 Gaussian 16, Revision A.03,
 Gaussian 16:  ES64L-G16RevA.03 25-Dec-2016

 ----------------
 # b3lyp/6-31g(d)
 ----------------

 ----------------------
 tmpdir/M1_conf_0_8.gjf
 ----------------------
 Symbolic Z-matrix:
 Charge =  0 Multiplicity = 1

                         Standard orientation:
 ---------------------------------------------------------------------
 Center     Atomic      Atomic             Coordinates (Angstroms)
 Number     Number       Type             X           Y           Z
 ---------------------------------------------------------------------
      1          6           0       -0.005012   -0.007947   -0.010273
      2          1           0        0.003373   -0.037861    1.086633
      3          1           0        0.155413    1.038840   -0.295959
      4          1           0       -1.008577   -0.358608   -0.361925
      5          1           0        0.879864   -0.594688   -0.367111
 ---------------------------------------------------------------------

 SCF Done:  E(RB3LYP) =  -40.5161316641     A.U. after    9 cycles

 The electronic state is 1-A.
 Alpha  occ. eigenvalues --  -10.17326  -0.68626  -0.39516  -0.38415  -0.37961
 Alpha virt. eigenvalues --    0.11298   0.16752   0.17240   0.17485   0.53126
 Alpha virt. eigenvalues --    0.53321   0.55117   0.87206   0.88721   0.89152
 Alpha virt. eigenvalues --    0.93602   1.09654   1.65764   1.66294   2.18246

 Mulliken charges:
               1
     1  C   -0.622655
     2  H    0.156394
     3  H    0.157315
     4  H    0.155221
     5  H    0.153725
 Sum of Mulliken charges =  -0.00000

 Dipole moment (field-independent basis, Debye):
    X=              0.0172    Y=              0.0474    Z=              0.0519  Tot=              0.0723
 Quadrupole moment (field-independent basis, Debye-Ang):
   XX=             -8.0537   YY=             -8.3900   ZZ=             -8.4364
   XY=              0.0105   XZ=              0.0040   YZ=             -0.0063

 Normal termination of Gaussian 16 at Fri Sep 22 17:00:22 2023.
