 Gaussian 16, Revision A.03,
 Gaussian 16:  ES64L-G16RevA.03 25-Dec-2016

 ----------------
 # b3lyp/6-31g(d)
 ----------------

 ----------------------
 tmpdir/M1_conf_0_4.gjf
 ----------------------
 Symbolic Z-matrix:
 Charge =  0 Multiplicity = 1

                         Standard orientation:
 ---------------------------------------------------------------------
 Center     Atomic      Atomic             Coordinates (Angstroms)
 Number     Number       Type             X           Y           Z
 ---------------------------------------------------------------------
      1          6           0        0.003459    0.007299   -0.006754
      2          1           0       -0.451730   -0.779704   -0.618977
      3          1           0       -0.515830   -0.024523    0.961972
      4          1           0        1.089517   -0.208153    0.140864
      5          1           0       -0.142713    0.968588   -0.443337
 ---------------------------------------------------------------------

 SCF Done:  E(RB3LYP) =  -40.5171773524     A.U. after    9 cycles

 The electronic state is 1-A.
 Alpha  occ. eigenvalues --  -10.16752  -0.69021  -0.39670  -0.38786  -0.38192
 Alpha virt. eigenvalues --    0.11712   0.17190   0.17280   0.18351   0.52788
 Alpha virt. eigenvalues --    0.53216   0.54134   0.88468   0.88845   0.91227
 Alpha virt. eigenvalues --    0.95179   1.09984   1.65572   1.65854   2.21503

 Mulliken charges:
               1
     1  C   -0.627578
     2  H    0.156225
     3  H    0.154266
     4  H    0.152026
     5  H    0.165061
 Sum of Mulliken charges =  -0.00000

 Dipole moment (field-independent basis, Debye):
    X=             -0.0360    Y=              0.0053    Z=              0.0053  Tot=              0.0367
 Quadrupole moment (field-independent basis, Debye-Ang):
   XX=             -8.1921   YY=             -8.2020   ZZ=             -8.3729
   XY=             -0.0032   XZ=              0.0079   YZ=             -0.0342

 Normal termination of Gaussian 16 at Fri Sep 22 17:00:20 2023.
