 Gaussian 16, Revision A.03,
 Gaussian 16:  ES64L-G16RevA.03 25-Dec-2016

 ----------------
 # b3lyp/6-31g(d)
 ----------------

 ----------------------
 tmpdir/M1_conf_0_7.gjf
 ----------------------
 Symbolic Z-matrix:
 Charge =  0 Multiplicity = 1

                         Standard orientation:
 ---------------------------------------------------------------------
 Center     Atomic      Atomic             Coordinates (Angstroms)
 Number     Number       Type             X           Y           Z
 ---------------------------------------------------------------------
      1          6           0        0.000318   -0.009990   -0.017702
      2          1           0       -0.005556    1.063549   -0.255303
      3          1           0       -0.030120   -0.062260    1.077729
      4          1           0        0.982300   -0.460344   -0.335749
      5          1           0       -0.948530   -0.481006   -0.380465
 ---------------------------------------------------------------------

 SCF Done:  E(RB3LYP) =  -40.5148203403     A.U. after    9 cycles

 The electronic state is 1-A.
 Alpha  occ. eigenvalues --  -10.17413  -0.68601  -0.39727  -0.38382  -0.37625
 Alpha virt. eigenvalues --    0.11165   0.16535   0.17314   0.17379   0.52949
 Alpha virt. eigenvalues --    0.53383   0.55579   0.86533   0.88769   0.88977
 Alpha virt. eigenvalues --    0.93777   1.09797   1.65759   1.66424   2.16705

 Mulliken charges:
               1
     1  C   -0.622922
     2  H    0.157062
     3  H    0.155721
     4  H    0.154348
     5  H    0.155790
 Sum of Mulliken charges =  -0.00000

 Dipole moment (field-independent basis, Debye):
    X=             -0.0070    Y=              0.0511    Z=              0.0839  Tot=              0.0986
 Quadrupole moment (field-independent basis, Debye-Ang):
   XX=             -7.9952   YY=             -8.3776   ZZ=             -8.5289
   XY=              0.0053   XZ=              0.0037   YZ=             -0.0011

 Normal termination of Gaussian 16 at Fri Sep 22 17:00:22 2023.
