 Gaussian 16, Revision A.03,
 Gaussian 16:  ES64L-G16RevA.03 25-Dec-2016

 ----------------
 # b3lyp/6-31g(d)
 ----------------

 -----------------------
 tmpdir/M1_conf_0_10.gjf
 -----------------------
 Symbolic Z-matrix:
 Charge =  0 Multiplicity = 1

                         Standard orientation:
 ---------------------------------------------------------------------
 Center     Atomic      Atomic             Coordinates (Angstroms)
 Number     Number       Type             X           Y           Z
 ---------------------------------------------------------------------
      1          8           0        0.000000    0.105757    0.000000
      2          1           0        0.822724   -0.433395    0.000000
      3          1           0       -0.822724   -0.412662    0.000000
 ---------------------------------------------------------------------

 SCF Done:  E(RB3LYP) =  -76.4055480361     A.U. after    9 cycles

 The electronic state is 1-A'.
 Alpha  occ. eigenvalues --  -19.13343  -0.98482  -0.53028  -0.34939  -0.28652
 Alpha virt. eigenvalues --    0.05957   0.14804   0.80452   0.81573   0.89376
 Alpha virt. eigenvalues --    0.89405   1.07754   1.15786   1.74081   1.76353
 Alpha virt. eigenvalues --    1.79404   2.29414   2.54931   3.56448

 Mulliken charges:
               1
     1  O   -0.792845
     2  H    0.395675
     3  H    0.397171
 Sum of Mulliken charges =  -0.00000

 Dipole moment (field-independent basis, Debye):
    X=             -0.0097    Y=             -1.9206    Z=              0.0000  Tot=              1.9206
 Quadrupole moment (field-independent basis, Debye-Ang):
   XX=             -3.7813   YY=             -6.2662   ZZ=             -7.2198
   XY=             -0.0356   XZ=             -0.0000   YZ=             -0.0000

 Normal termination of Gaussian 16 at Fri Sep 22 17:00:22 2023.
