 Gaussian 16, Revision A.03,
 Gaussian 16:  ES64L-G16RevA.03 25-Dec-2016

 ----------------
 # b3lyp/6-31g(d)
 ----------------

 ----------------------
 tmpdir/M1_conf_0_9.gjf
 ----------------------
 Symbolic Z-matrix:
 Charge =  0 Multiplicity = 1

                         Standard orientation:
 ---------------------------------------------------------------------
 Center     Atomic      Atomic             Coordinates (Angstroms)
 Number     Number       Type             X           Y           Z
 ---------------------------------------------------------------------
      1          6           0       -0.005198    0.000036    0.006406
      2          1           0       -0.153836    0.910317   -0.600441
      3          1           0       -0.660121   -0.815989   -0.393322
      4          1           0       -0.284747    0.206260    1.011725
      5          1           0        1.129895   -0.300805   -0.056398
 ---------------------------------------------------------------------

 SCF Done:  E(RB3LYP) =  -40.5134661275     A.U. after    9 cycles

 The electronic state is 1-A.
 Alpha  occ. eigenvalues --  -10.17620  -0.68468  -0.39333  -0.38566  -0.37714
 Alpha virt. eigenvalues --    0.10968   0.15786   0.17023   0.18163   0.52591
 Alpha virt. eigenvalues --    0.53794   0.55680   0.84703   0.88048   0.89754
 Alpha virt. eigenvalues --    0.94176   1.09319   1.65968   1.66095   2.15569

 Mulliken charges:
               1
     1  C   -0.616538
     2  H    0.156687
     3  H    0.153215
     4  H    0.167885
     5  H    0.138751
 Sum of Mulliken charges =   0.00000

 Dipole moment (field-independent basis, Debye):
    X=             -0.0601    Y=              0.0423    Z=              0.0263  Tot=              0.0781
 Quadrupole moment (field-independent basis, Debye-Ang):
   XX=             -8.2285   YY=             -8.3506   ZZ=             -8.3504
   XY=              0.0265   XZ=             -0.0270   YZ=              0.0102

 Normal termination of Gaussian 16 at Fri Sep 22 17:00:22 2023.
