 Gaussian 16, Revision A.03,
 Gaussian 16:  ES64L-G16RevA.03 25-Dec-2016

 ----------------
 # b3lyp/6-31g(d)
 ----------------

 ----------------------
 tmpdir/M1_conf_0_1.gjf
 ----------------------
 Symbolic Z-matrix:
 Charge =  0 Multiplicity = 1

                         Standard orientation:
 ---------------------------------------------------------------------
 Center     Atomic      Atomic             Coordinates (Angstroms)
 Number     Number       Type             X           Y           Z
 ---------------------------------------------------------------------
      1          6           0       -0.014064   -0.005661   -0.007084
      2          1           0        0.218101   -0.010558    1.059391
      3          1           0       -0.260289    1.026673   -0.288477
      4          1           0        0.987011   -0.311791   -0.505287
      5          1           0       -0.860437   -0.670355   -0.223124
 ---------------------------------------------------------------------

 SCF Done:  E(RB3LYP) =  -40.5145804165     A.U. after    9 cycles

 The electronic state is 1-A.
 Alpha  occ. eigenvalues --  -10.17453  -0.68565  -0.39725  -0.38741  -0.37310
 Alpha virt. eigenvalues --    0.11142   0.16055   0.17439   0.17742   0.53039
 Alpha virt. eigenvalues --    0.53370   0.55401   0.85447   0.89223   0.89771
 Alpha virt. eigenvalues --    0.93349   1.09451   1.66033   1.66292   2.17021

 Mulliken charges:
               1
     1  C   -0.620430
     2  H    0.158824
     3  H    0.158304
     4  H    0.142228
     5  H    0.161073
 Sum of Mulliken charges =  -0.00000

 Dipole moment (field-independent basis, Debye):
    X=             -0.0088    Y=              0.0365    Z=              0.0671  Tot=              0.0769
 Quadrupole moment (field-independent basis, Debye-Ang):
   XX=             -8.0934   YY=             -8.3224   ZZ=             -8.4895
   XY=              0.0544   XZ=              0.0721   YZ=             -0.0157

 Normal termination of Gaussian 16 at Fri Sep 22 17:00:20 2023.
