 Gaussian 16, Revision A.03,
 Gaussian 16:  ES64L-G16RevA.03 25-Dec-2016

 ----------------
 # b3lyp/6-31g(d)
 ----------------

 ----------------------
 tmpdir/M1_conf_0_5.gjf
 ----------------------
 Symbolic Z-matrix:
 Charge =  0 Multiplicity = 1

                         Standard orientation:
 ---------------------------------------------------------------------
 Center     Atomic      Atomic             Coordinates (Angstroms)
 Number     Number       Type             X           Y           Z
 ---------------------------------------------------------------------
      1          6           0       -0.002467   -0.011017   -0.009049
      2          1           0        0.002896    0.990923   -0.458961
      3          1           0        0.077760    0.140904    1.075939
      4          1           0       -0.980846   -0.506973   -0.228069
      5          1           0        0.914990   -0.558752   -0.334616
 ---------------------------------------------------------------------

 SCF Done:  E(RB3LYP) =  -40.5162856834     A.U. after    9 cycles

 The electronic state is 1-A.
 Alpha  occ. eigenvalues --  -10.17310  -0.68635  -0.39513  -0.38375  -0.38027
 Alpha virt. eigenvalues --    0.11318   0.16800   0.17307   0.17404   0.53140
 Alpha virt. eigenvalues --    0.53350   0.55020   0.87342   0.88844   0.89040
 Alpha virt. eigenvalues --    0.93583   1.09707   1.65769   1.66233   2.18510

 Mulliken charges:
               1
     1  C   -0.622862
     2  H    0.156767
     3  H    0.155958
     4  H    0.155185
     5  H    0.154952
 Sum of Mulliken charges =  -0.00000

 Dipole moment (field-independent basis, Debye):
    X=              0.0100    Y=              0.0564    Z=              0.0425  Tot=              0.0713
 Quadrupole moment (field-independent basis, Debye-Ang):
   XX=             -8.0598   YY=             -8.3771   ZZ=             -8.4403
   XY=              0.0016   XZ=              0.0017   YZ=             -0.0035

 Normal termination of Gaussian 16 at Fri Sep 22 17:00:20 2023.
