 Gaussian 16, Revision A.03,
 Gaussian 16:  ES64L-G16RevA.03 25-Dec-2016

 ----------------
 # b3lyp/6-31g(d)
 ----------------

 ----------------------
 tmpdir/M1_conf_0_2.gjf
 ----------------------
 Symbolic Z-matrix:
 Charge =  0 Multiplicity = 1

                         Standard orientation:
 ---------------------------------------------------------------------
 Center     Atomic      Atomic             Coordinates (Angstroms)
 Number     Number       Type             X           Y           Z
 ---------------------------------------------------------------------
      1          7           0        1.066815   -0.201880   -0.015117
      2          7           0       -0.108696    0.239790   -0.054405
      3          7           0       -1.220372   -0.101771    0.038419
      4          1           0        1.835771    0.447025    0.217724
 ---------------------------------------------------------------------

 SCF Done:  E(RB3LYP) =  -164.756561271     A.U. after   14 cycles

 The electronic state is 1-A.
 Alpha  occ. eigenvalues --  -14.51945 -14.41813 -14.38762  -1.13590  -0.94837
 Alpha  occ. eigenvalues --   -0.62488  -0.52109  -0.49855  -0.44922  -0.31040
 Alpha  occ. eigenvalues --   -0.26686
 Alpha virt. eigenvalues --   -0.08773  -0.01150   0.08128   0.28790   0.44403
 Alpha virt. eigenvalues --    0.52090   0.61280   0.61572   0.64719   0.67602
 Alpha virt. eigenvalues --    0.71834   0.74939   0.78564   0.79205   0.88836

 Mulliken charges:
               1
     1  N   -0.435157
     2  N    0.218242
     3  N   -0.125462
     4  H    0.342377
 Sum of Mulliken charges =   0.00000

 Dipole moment (field-independent basis, Debye):
    X=              1.5556    Y=              1.5323    Z=              0.3242  Tot=              2.2075
 Quadrupole moment (field-independent basis, Debye-Ang):
   XX=            -16.3581   YY=            -16.2921   ZZ=            -16.8890
   XY=              1.9517   XZ=              0.8652   YZ=              0.1640

 Normal termination of Gaussian 16 at Fri Sep 22 17:00:21 2023.
