 Gaussian 16, Revision A.03,
 Gaussian 16:  ES64L-G16RevA.03 25-Dec-2016

 ----------------
 # b3lyp/6-31g(d)
 ----------------

 -----------------------
 tmpdir/M1_conf_0_11.gjf
 -----------------------
 Symbolic Z-matrix:
 Charge =  0 Multiplicity = 1

                         Standard orientation:
 ---------------------------------------------------------------------
 Center     Atomic      Atomic             Coordinates (Angstroms)
 Number     Number       Type             X           Y           Z
 ---------------------------------------------------------------------
      1          6           0        0.004107    0.000671   -0.005519
      2          1           0       -0.028181   -0.320747    1.038940
      3          1           0        0.610953   -0.719561   -0.572265
      4          1           0        0.490540    0.987318   -0.061057
      5          1           0       -1.097954    0.048961   -0.372504
 ---------------------------------------------------------------------

 SCF Done:  E(RB3LYP) =  -40.5150746898     A.U. after    9 cycles

 The electronic state is 1-A.
 Alpha  occ. eigenvalues --  -10.17550  -0.68477  -0.39168  -0.38730  -0.37769
 Alpha virt. eigenvalues --    0.11090   0.16126   0.17323   0.17621   0.53137
 Alpha virt. eigenvalues --    0.53358   0.55481   0.85407   0.88980   0.89475
 Alpha virt. eigenvalues --    0.93067   1.09283   1.65958   1.66251   2.16581

 Mulliken charges:
               1
     1  C   -0.618470
     2  H    0.158876
     3  H    0.158816
     4  H    0.157990
     5  H    0.142787
 Sum of Mulliken charges =  -0.00000

 Dipole moment (field-independent basis, Debye):
    X=              0.0488    Y=             -0.0100    Z=              0.0506  Tot=              0.0710
 Quadrupole moment (field-independent basis, Debye-Ang):
   XX=             -8.1595   YY=             -8.3371   ZZ=             -8.4217
   XY=              0.0037   XZ=             -0.0525   YZ=              0.0041

 Normal termination of Gaussian 16 at Fri Sep 22 17:00:23 2023.
