 Gaussian 16, Revision A.03,
 Gaussian 16:  ES64L-G16RevA.03 25-Dec-2016

 ----------------
 # b3lyp/6-31g(d)
 ----------------

 ----------------------
 tmpdir/M1_conf_0_6.gjf
 ----------------------
 Symbolic Z-matrix:
 Charge =  0 Multiplicity = 1

                         Standard orientation:
 ---------------------------------------------------------------------
 Center     Atomic      Atomic             Coordinates (Angstroms)
 Number     Number       Type             X           Y           Z
 ---------------------------------------------------------------------
      1          6           0        0.000053   -0.009027   -0.017693
      2          1           0       -0.019229    1.070282   -0.226749
      3          1           0       -0.019711   -0.094307    1.076250
      4          1           0        0.983277   -0.441960   -0.355480
      5          1           0       -0.944652   -0.479852   -0.387862
 ---------------------------------------------------------------------

 SCF Done:  E(RB3LYP) =  -40.5149571300     A.U. after    9 cycles

 The electronic state is 1-A.
 Alpha  occ. eigenvalues --  -10.17405  -0.68602  -0.39712  -0.38410  -0.37627
 Alpha virt. eigenvalues --    0.11180   0.16542   0.17334   0.17375   0.52965
 Alpha virt. eigenvalues --    0.53387   0.55527   0.86582   0.88808   0.88986
 Alpha virt. eigenvalues --    0.93733   1.09775   1.65751   1.66428   2.16876

 Mulliken charges:
               1
     1  C   -0.622892
     2  H    0.157095
     3  H    0.155633
     4  H    0.154200
     5  H    0.155965
 Sum of Mulliken charges =  -0.00000

 Dipole moment (field-independent basis, Debye):
    X=             -0.0071    Y=              0.0468    Z=              0.0836  Tot=              0.0960
 Quadrupole moment (field-independent basis, Debye-Ang):
   XX=             -8.0014   YY=             -8.3734   ZZ=             -8.5250
   XY=              0.0060   XZ=              0.0051   YZ=             -0.0008

 Normal termination of Gaussian 16 at Fri Sep 22 17:00:22 2023.
