 Gaussian 16, Revision A.03,
 Gaussian 16:  ES64L-G16RevA.03 25-Dec-2016

 ----------------
 # b3lyp/6-31g(d)
 ----------------

 --------------------
 tmpdir/M1_ref_10.gjf
 --------------------
 Symbolic Z-matrix:
 Charge =  0 Multiplicity = 1

                         Standard orientation:
 ---------------------------------------------------------------------
 Center     Atomic      Atomic             Coordinates (Angstroms)
 Number     Number       Type             X           Y           Z
 ---------------------------------------------------------------------
      1          8           0       -0.000000    0.105926   -0.000000
      2          1           0        0.817997   -0.430316   -0.000000
      3          1           0       -0.817997   -0.417094    0.000000
 ---------------------------------------------------------------------

 SCF Done:  E(RB3LYP) =  -76.4059537012     A.U. after    9 cycles

 The electronic state is 1-A'.
 Alpha  occ. eigenvalues --  -19.13311  -0.98655  -0.53117  -0.35041  -0.28694
 Alpha virt. eigenvalues --    0.06077   0.14909   0.80977   0.81586   0.89360
 Alpha virt. eigenvalues --    0.89377   1.07735   1.15975   1.74020   1.76178
 Alpha virt. eigenvalues --    1.79309   2.29692   2.55669   3.56585

 Mulliken charges:
               1
     1  O   -0.792862
     2  H    0.395963
     3  H    0.396899
 Sum of Mulliken charges =   0.00000

 Dipole moment (field-independent basis, Debye):
    X=             -0.0062    Y=             -1.9262    Z=              0.0000  Tot=              1.9262
 Quadrupole moment (field-independent basis, Debye-Ang):
   XX=             -3.8059   YY=             -6.2547   ZZ=             -7.2129
   XY=             -0.0226   XZ=             -0.0000   YZ=             -0.0000

 Normal termination of Gaussian 16 at Fri Sep 22 17:00:13 2023.
