 Gaussian 16, Revision A.03,
 Gaussian 16:  ES64L-G16RevA.03 25-Dec-2016

 ----------------
 # b3lyp/6-31g(d)
 ----------------

 -------------------
 tmpdir/M1_ref_1.gjf
 -------------------
 Symbolic Z-matrix:
 Charge =  0 Multiplicity = 1

                         Standard orientation:
 ---------------------------------------------------------------------
 Center     Atomic      Atomic             Coordinates (Angstroms)
 Number     Number       Type             X           Y           Z
 ---------------------------------------------------------------------
      1          6           0       -0.015266   -0.005861   -0.004710
      2          1           0        0.183805    0.173515    1.054110
      3          1           0       -0.328394    0.946760   -0.451460
      4          1           0        1.029032   -0.319366   -0.437922
      5          1           0       -0.792848   -0.765745   -0.136466
 ---------------------------------------------------------------------

 SCF Done:  E(RB3LYP) =  -40.5138759486     A.U. after    9 cycles

 The electronic state is 1-A.
 Alpha  occ. eigenvalues --  -10.17573  -0.68490  -0.39666  -0.38793  -0.37196
 Alpha virt. eigenvalues --    0.11024   0.15794   0.17457   0.17759   0.53065
 Alpha virt. eigenvalues --    0.53404   0.55549   0.84738   0.89231   0.89862
 Alpha virt. eigenvalues --    0.93060   1.09383   1.66110   1.66224   2.16233

 Mulliken charges:
               1
     1  C   -0.618401
     2  H    0.159340
     3  H    0.158921
     4  H    0.138294
     5  H    0.161847
 Sum of Mulliken charges =   0.00000

 Dipole moment (field-independent basis, Debye):
    X=             -0.0241    Y=              0.0430    Z=              0.0602  Tot=              0.0778
 Quadrupole moment (field-independent basis, Debye-Ang):
   XX=             -8.1463   YY=             -8.3071   ZZ=             -8.4741
   XY=              0.0701   XZ=              0.0782   YZ=             -0.0200

 Normal termination of Gaussian 16 at Fri Sep 22 17:00:11 2023.
