 Gaussian 16, Revision A.03,
 Gaussian 16:  ES64L-G16RevA.03 25-Dec-2016

 ----------------
 # b3lyp/6-31g(d)
 ----------------

 -----------------------
 tmpdir/M2_conf_0_56.gjf
 -----------------------
 Symbolic Z-matrix:
 Charge =  0 Multiplicity = 1

                         Standard orientation:
 ---------------------------------------------------------------------
 Center     Atomic      Atomic             Coordinates (Angstroms)
 Number     Number       Type             X           Y           Z
 ---------------------------------------------------------------------
      1          6           0        1.200804    0.090029   -0.001310
      2          6           0       -0.212759   -0.285907    0.000478
      3          6           0       -1.388290    0.002235    0.013521
      4          1           0        1.253275    1.116075   -0.461147
      5          1           0        1.565518    0.143921    1.040374
      6          1           0        1.842199   -0.692591   -0.587292
      7          1           0       -2.259516    0.594451   -0.068069
 ---------------------------------------------------------------------

 SCF Done:  E(RB3LYP) =  -116.629818756     A.U. after   12 cycles

 The electronic state is 1-A.
 Alpha  occ. eigenvalues --  -10.21706 -10.18331 -10.17189  -0.77449  -0.68629
 Alpha  occ. eigenvalues --   -0.52098  -0.43870  -0.42818  -0.41937  -0.25919
 Alpha  occ. eigenvalues --   -0.25694
 Alpha virt. eigenvalues --    0.00858   0.06020   0.10529   0.14187   0.16851
 Alpha virt. eigenvalues --    0.18082   0.26241   0.44667   0.45999   0.52981
 Alpha virt. eigenvalues --    0.54164   0.61421   0.63493   0.64860   0.70224

 Mulliken charges:
               1
     1  C   -0.519181
     2  C    0.083747
     3  C   -0.273309
     4  H    0.185333
     5  H    0.182275
     6  H    0.156638
     7  H    0.184497
 Sum of Mulliken charges =  -0.00000

 Dipole moment (field-independent basis, Debye):
    X=              0.6780    Y=              0.9033    Z=             -0.0409  Tot=              1.1302
 Quadrupole moment (field-independent basis, Debye-Ang):
   XX=            -15.4183   YY=            -18.4690   ZZ=            -19.1509
   XY=             -1.6832   XZ=              0.3197   YZ=             -0.0646

 Normal termination of Gaussian 16 at Fri Sep 22 17:02:38 2023.
