 Gaussian 16, Revision A.03,
 Gaussian 16:  ES64L-G16RevA.03 25-Dec-2016

 ----------------
 # b3lyp/6-31g(d)
 ----------------

 ------------------------
 tmpdir/M2_conf_0_109.gjf
 ------------------------
 Symbolic Z-matrix:
 Charge =  0 Multiplicity = 1

                         Standard orientation:
 ---------------------------------------------------------------------
 Center     Atomic      Atomic             Coordinates (Angstroms)
 Number     Number       Type             X           Y           Z
 ---------------------------------------------------------------------
      1          1           0       -0.034383   -0.265061    1.054044
      2          6           0        0.003573    0.000325   -0.005774
      3          1           0        0.610479   -0.751808   -0.531308
      4          1           0       -1.094957    0.034541   -0.378996
      5          1           0        0.497425    0.980377   -0.109094
 ---------------------------------------------------------------------

 SCF Done:  E(RB3LYP) =  -40.5151606699     A.U. after    9 cycles

 The electronic state is 1-A.
 Alpha  occ. eigenvalues --  -10.17549  -0.68476  -0.39171  -0.38693  -0.37800
 Alpha virt. eigenvalues --    0.11097   0.16166   0.17290   0.17611   0.53141
 Alpha virt. eigenvalues --    0.53375   0.55461   0.85510   0.88907   0.89446
 Alpha virt. eigenvalues --    0.93057   1.09285   1.65969   1.66245   2.16674

 Mulliken charges:
               1
     1  H    0.158852
     2  C   -0.618564
     3  H    0.158585
     4  H    0.143389
     5  H    0.157739
 Sum of Mulliken charges =   0.00000

 Dipole moment (field-independent basis, Debye):
    X=              0.0473    Y=             -0.0076    Z=              0.0520  Tot=              0.0707
 Quadrupole moment (field-independent basis, Debye-Ang):
   XX=             -8.1546   YY=             -8.3401   ZZ=             -8.4235
   XY=              0.0013   XZ=             -0.0505   YZ=              0.0030

 Normal termination of Gaussian 16 at Fri Sep 22 17:02:49 2023.
