 Gaussian 16, Revision A.03,
 Gaussian 16:  ES64L-G16RevA.03 25-Dec-2016

 ----------------
 # b3lyp/6-31g(d)
 ----------------

 ------------------------
 tmpdir/M2_conf_0_103.gjf
 ------------------------
 Symbolic Z-matrix:
 Charge =  0 Multiplicity = 1

                         Standard orientation:
 ---------------------------------------------------------------------
 Center     Atomic      Atomic             Coordinates (Angstroms)
 Number     Number       Type             X           Y           Z
 ---------------------------------------------------------------------
      1          6           0        0.003612    0.000176   -0.005645
      2          1           0       -0.037818   -0.252517    1.057245
      3          1           0       -1.093850    0.032958   -0.382116
      4          1           0        0.609571   -0.759070   -0.521957
      5          1           0        0.500427    0.977576   -0.119305
 ---------------------------------------------------------------------

 SCF Done:  E(RB3LYP) =  -40.5151692652     A.U. after    9 cycles

 The electronic state is 1-A.
 Alpha  occ. eigenvalues --  -10.17550  -0.68474  -0.39179  -0.38684  -0.37801
 Alpha virt. eigenvalues --    0.11098   0.16164   0.17287   0.17613   0.53151
 Alpha virt. eigenvalues --    0.53370   0.55459   0.85511   0.88900   0.89455
 Alpha virt. eigenvalues --    0.93043   1.09281   1.65974   1.66242   2.16685

 Mulliken charges:
               1
     1  C   -0.618543
     2  H    0.158854
     3  H    0.143371
     4  H    0.158591
     5  H    0.157728
 Sum of Mulliken charges =  -0.00000

 Dipole moment (field-independent basis, Debye):
    X=              0.0471    Y=             -0.0069    Z=              0.0516  Tot=              0.0702
 Quadrupole moment (field-independent basis, Debye-Ang):
   XX=             -8.1550   YY=             -8.3418   ZZ=             -8.4215
   XY=              0.0010   XZ=             -0.0509   YZ=              0.0030

 Normal termination of Gaussian 16 at Fri Sep 22 17:02:49 2023.
