 Gaussian 16, Revision A.03,
 Gaussian 16:  ES64L-G16RevA.03 25-Dec-2016

 ----------------
 # b3lyp/6-31g(d)
 ----------------

 -----------------------
 tmpdir/M2_conf_0_98.gjf
 -----------------------
 Symbolic Z-matrix:
 Charge =  0 Multiplicity = 1

                         Standard orientation:
 ---------------------------------------------------------------------
 Center     Atomic      Atomic             Coordinates (Angstroms)
 Number     Number       Type             X           Y           Z
 ---------------------------------------------------------------------
      1          6           0       -0.800797    0.481657   -0.000541
      2          6           0        0.587156    0.647283   -0.000201
      3          6           0        1.416796   -0.473700   -0.000015
      4          8           0       -1.286591   -0.646603    0.000255
      5          1           0       -1.452894    1.350954    0.001123
      6          1           0        1.016347    1.645530    0.001068
      7          1           0        1.013540   -1.400904   -0.000436
      8          1           0        2.496803   -0.354188    0.000740
 ---------------------------------------------------------------------

 SCF Done:  E(RB3LYP) =  -191.895736945     A.U. after   14 cycles

 The electronic state is 1-A.
 Alpha  occ. eigenvalues --  -19.13621 -10.26550 -10.21627 -10.20659  -1.03176
 Alpha  occ. eigenvalues --   -0.79224  -0.67275  -0.55060  -0.51771  -0.44578
 Alpha  occ. eigenvalues --   -0.41973  -0.39455  -0.39071  -0.27503  -0.25328
 Alpha virt. eigenvalues --   -0.07927   0.07070   0.10589   0.14083   0.16630
 Alpha virt. eigenvalues --    0.20040   0.25377   0.31236   0.35989   0.51441
 Alpha virt. eigenvalues --    0.52716   0.57552   0.57956   0.59664   0.63465

 Mulliken charges:
               1
     1  C    0.222836
     2  C   -0.141047
     3  C   -0.272798
     4  O   -0.417729
     5  H    0.112578
     6  H    0.140087
     7  H    0.194668
     8  H    0.161405
 Sum of Mulliken charges =  -0.00000

 Dipole moment (field-independent basis, Debye):
    X=              2.1171    Y=              1.6631    Z=              0.0001  Tot=              2.6922
 Quadrupole moment (field-independent basis, Debye-Ang):
   XX=            -23.2905   YY=            -22.0107   ZZ=            -24.1844
   XY=             -3.0216   XZ=              0.0028   YZ=              0.0022

 Normal termination of Gaussian 16 at Fri Sep 22 17:02:52 2023.
