 Gaussian 16, Revision A.03,
 Gaussian 16:  ES64L-G16RevA.03 25-Dec-2016

 ----------------
 # b3lyp/6-31g(d)
 ----------------

 -----------------------
 tmpdir/M2_conf_0_18.gjf
 -----------------------
 Symbolic Z-matrix:
 Charge =  0 Multiplicity = 1

                         Standard orientation:
 ---------------------------------------------------------------------
 Center     Atomic      Atomic             Coordinates (Angstroms)
 Number     Number       Type             X           Y           Z
 ---------------------------------------------------------------------
      1          1           0       -0.034594    1.054202   -0.286341
      2          6           0        0.001043   -0.009673   -0.016261
      3          1           0       -0.039140   -0.033498    1.080041
      4          1           0        1.001000   -0.446340   -0.319142
      5          1           0       -0.933522   -0.516329   -0.376991
 ---------------------------------------------------------------------

 SCF Done:  E(RB3LYP) =  -40.5146098011     A.U. after    9 cycles

 The electronic state is 1-A.
 Alpha  occ. eigenvalues --  -10.17493  -0.68543  -0.39595  -0.38404  -0.37639
 Alpha virt. eigenvalues --    0.11097   0.16491   0.17185   0.17391   0.52981
 Alpha virt. eigenvalues --    0.53397   0.55705   0.86307   0.88577   0.88872
 Alpha virt. eigenvalues --    0.93635   1.09698   1.65801   1.66437   2.16265

 Mulliken charges:
               1
     1  H    0.157678
     2  C   -0.621773
     3  H    0.156080
     4  H    0.153003
     5  H    0.155012
 Sum of Mulliken charges =  -0.00000

 Dipole moment (field-independent basis, Debye):
    X=             -0.0127    Y=              0.0563    Z=              0.0805  Tot=              0.0990
 Quadrupole moment (field-independent basis, Debye-Ang):
   XX=             -8.0056   YY=             -8.3853   ZZ=             -8.5246
   XY=              0.0062   XZ=              0.0046   YZ=             -0.0060

 Normal termination of Gaussian 16 at Fri Sep 22 17:02:14 2023.
