 Gaussian 16, Revision A.03,
 Gaussian 16:  ES64L-G16RevA.03 25-Dec-2016

 ----------------
 # b3lyp/6-31g(d)
 ----------------

 ----------------------
 tmpdir/M2_conf_0_4.gjf
 ----------------------
 Symbolic Z-matrix:
 Charge =  0 Multiplicity = 1

                         Standard orientation:
 ---------------------------------------------------------------------
 Center     Atomic      Atomic             Coordinates (Angstroms)
 Number     Number       Type             X           Y           Z
 ---------------------------------------------------------------------
      1          6           0       -1.341975   -0.248526    0.012529
      2          6           0        0.005668    0.545757    0.015185
      3          6           0        1.337405   -0.249841    0.008483
      4          1           0       -1.947902   -0.274165    0.957208
      5          1           0       -1.164889   -1.275498   -0.333915
      6          1           0       -1.981915    0.211938   -0.750704
      7          1           0        0.011545    1.257132    0.852609
      8          1           0        0.013419    1.165562   -0.890026
      9          1           0        1.751263   -0.521517    1.019365
     10          1           0        2.096889    0.338586   -0.522639
     11          1           0        1.215002   -1.186380   -0.549079
 ---------------------------------------------------------------------

 SCF Done:  E(RB3LYP) =  -119.133169421     A.U. after   11 cycles

 The electronic state is 1-A.
 Alpha  occ. eigenvalues --  -10.18147 -10.17462 -10.17461  -0.76537  -0.67507
 Alpha  occ. eigenvalues --   -0.57959  -0.44431  -0.42722  -0.39190  -0.37678
 Alpha  occ. eigenvalues --   -0.33520  -0.32723  -0.31793
 Alpha virt. eigenvalues --    0.09486   0.12143   0.13692   0.14211   0.17010
 Alpha virt. eigenvalues --    0.18259   0.18622   0.23577   0.25096   0.28496
 Alpha virt. eigenvalues --    0.50768   0.52592   0.53480   0.60487   0.62174

 Mulliken charges:
               1
     1  C   -0.448164
     2  C   -0.241595
     3  C   -0.442818
     4  H    0.142784
     5  H    0.144086
     6  H    0.144894
     7  H    0.137959
     8  H    0.136750
     9  H    0.139485
    10  H    0.144031
    11  H    0.142587
 Sum of Mulliken charges =  -0.00000

 Dipole moment (field-independent basis, Debye):
    X=             -0.0108    Y=              0.0975    Z=             -0.1043  Tot=              0.1432
 Quadrupole moment (field-independent basis, Debye-Ang):
   XX=            -21.7995   YY=            -21.6307   ZZ=            -21.2290
   XY=              0.0016   XZ=             -0.0735   YZ=             -0.0278

 Normal termination of Gaussian 16 at Fri Sep 22 17:02:22 2023.
