 Gaussian 16, Revision A.03,
 Gaussian 16:  ES64L-G16RevA.03 25-Dec-2016

 ----------------
 # b3lyp/6-31g(d)
 ----------------

 -----------------------
 tmpdir/M2_conf_0_87.gjf
 -----------------------
 Symbolic Z-matrix:
 Charge =  0 Multiplicity = 1

                         Standard orientation:
 ---------------------------------------------------------------------
 Center     Atomic      Atomic             Coordinates (Angstroms)
 Number     Number       Type             X           Y           Z
 ---------------------------------------------------------------------
      1          6           0       -0.697949    0.484621   -0.000553
      2          6           0        0.699951    0.485693   -0.000134
      3          6           0       -1.395835   -0.721414    0.000261
      4          1           0       -1.243170    1.424645    0.001116
      5          6           0        1.393748   -0.724086    0.000040
      6          1           0        1.243679    1.426471    0.001200
 ---------------------------------------------------------------------

 SCF Done:  E(RB3LYP) =  -153.300520058     A.U. after   14 cycles

 The electronic state is 1-A.
 Alpha  occ. eigenvalues --  -10.27280 -10.27235 -10.22984 -10.22927  -0.84824
 Alpha  occ. eigenvalues --   -0.72064  -0.60718  -0.49745  -0.48956  -0.35922
 Alpha  occ. eigenvalues --   -0.31671  -0.29647  -0.24016
 Alpha virt. eigenvalues --   -0.13148  -0.09885  -0.06183   0.06786   0.10702
 Alpha virt. eigenvalues --    0.14677   0.25659   0.35414   0.37903   0.48168
 Alpha virt. eigenvalues --    0.50283   0.52916   0.55206   0.55916   0.58362

 Mulliken charges:
               1
     1  C   -0.212561
     2  C   -0.211435
     3  C    0.004958
     4  H    0.207026
     5  C    0.005277
     6  H    0.206736
 Sum of Mulliken charges =  -0.00000

 Dipole moment (field-independent basis, Debye):
    X=              0.0121    Y=              3.4911    Z=              0.0023  Tot=              3.4912
 Quadrupole moment (field-independent basis, Debye-Ang):
   XX=            -24.2692   YY=            -23.4025   ZZ=            -25.2798
   XY=             -0.0109   XZ=              0.0010   YZ=              0.0056

 Normal termination of Gaussian 16 at Fri Sep 22 17:02:42 2023.
