 Gaussian 16, Revision A.03,
 Gaussian 16:  ES64L-G16RevA.03 25-Dec-2016

 ----------------
 # b3lyp/6-31g(d)
 ----------------

 ----------------------
 tmpdir/M2_conf_0_3.gjf
 ----------------------
 Symbolic Z-matrix:
 Charge =  0 Multiplicity = 1

                         Standard orientation:
 ---------------------------------------------------------------------
 Center     Atomic      Atomic             Coordinates (Angstroms)
 Number     Number       Type             X           Y           Z
 ---------------------------------------------------------------------
      1          6           0        0.000864   -0.010475   -0.016209
      2          1           0       -0.039918   -0.011293    1.080133
      3          1           0        0.998651   -0.458321   -0.309795
      4          1           0       -0.937888   -0.516710   -0.367445
      5          1           0       -0.026030    1.049175   -0.305639
 ---------------------------------------------------------------------

 SCF Done:  E(RB3LYP) =  -40.5145306278     A.U. after    9 cycles

 The electronic state is 1-A.
 Alpha  occ. eigenvalues --  -10.17500  -0.68541  -0.39613  -0.38371  -0.37642
 Alpha virt. eigenvalues --    0.11088   0.16486   0.17186   0.17376   0.52972
 Alpha virt. eigenvalues --    0.53404   0.55731   0.86283   0.88575   0.88836
 Alpha virt. eigenvalues --    0.93645   1.09713   1.65806   1.66435   2.16178

 Mulliken charges:
               1
     1  C   -0.621779
     2  H    0.156144
     3  H    0.153076
     4  H    0.155073
     5  H    0.157486
 Sum of Mulliken charges =  -0.00000

 Dipole moment (field-independent basis, Debye):
    X=             -0.0118    Y=              0.0591    Z=              0.0803  Tot=              0.1004
 Quadrupole moment (field-independent basis, Debye-Ang):
   XX=             -8.0016   YY=             -8.3886   ZZ=             -8.5270
   XY=              0.0066   XZ=              0.0044   YZ=             -0.0054

 Normal termination of Gaussian 16 at Fri Sep 22 17:02:14 2023.
