 Gaussian 16, Revision A.03,
 Gaussian 16:  ES64L-G16RevA.03 25-Dec-2016

 ----------------
 # b3lyp/6-31g(d)
 ----------------

 -----------------------
 tmpdir/M2_conf_0_64.gjf
 -----------------------
 Symbolic Z-matrix:
 Charge =  0 Multiplicity = 1

                         Standard orientation:
 ---------------------------------------------------------------------
 Center     Atomic      Atomic             Coordinates (Angstroms)
 Number     Number       Type             X           Y           Z
 ---------------------------------------------------------------------
      1          6           0       -0.015269   -0.005865   -0.004722
      2          1           0       -0.328717    0.948135   -0.448837
      3          1           0        1.029229   -0.317745   -0.438772
      4          1           0        0.183674    0.170475    1.054625
      5          1           0       -0.792572   -0.765675   -0.138684
 ---------------------------------------------------------------------

 SCF Done:  E(RB3LYP) =  -40.5138699475     A.U. after    9 cycles

 The electronic state is 1-A.
 Alpha  occ. eigenvalues --  -10.17576  -0.68487  -0.39666  -0.38790  -0.37195
 Alpha virt. eigenvalues --    0.11022   0.15792   0.17453   0.17759   0.53067
 Alpha virt. eigenvalues --    0.53407   0.55550   0.84735   0.89221   0.89860
 Alpha virt. eigenvalues --    0.93051   1.09381   1.66111   1.66225   2.16226

 Mulliken charges:
               1
     1  C   -0.618368
     2  H    0.158875
     3  H    0.138287
     4  H    0.159352
     5  H    0.161854
 Sum of Mulliken charges =   0.00000

 Dipole moment (field-independent basis, Debye):
    X=             -0.0241    Y=              0.0427    Z=              0.0604  Tot=              0.0778
 Quadrupole moment (field-independent basis, Debye-Ang):
   XX=             -8.1466   YY=             -8.3070   ZZ=             -8.4744
   XY=              0.0700   XZ=              0.0784   YZ=             -0.0197

 Normal termination of Gaussian 16 at Fri Sep 22 17:02:30 2023.
