 Gaussian 16, Revision A.03,
 Gaussian 16:  ES64L-G16RevA.03 25-Dec-2016

 ----------------
 # b3lyp/6-31g(d)
 ----------------

 -----------------------
 tmpdir/M2_conf_0_19.gjf
 -----------------------
 Symbolic Z-matrix:
 Charge =  0 Multiplicity = 1

                         Standard orientation:
 ---------------------------------------------------------------------
 Center     Atomic      Atomic             Coordinates (Angstroms)
 Number     Number       Type             X           Y           Z
 ---------------------------------------------------------------------
      1          6           0        0.765597    0.000609    0.004170
      2          6           0       -0.777361    0.014436   -0.011552
      3          1           0        1.257230    0.998526    0.154812
      4          1           0        1.120723   -0.435738   -0.938394
      5          1           0        1.086177   -0.682562    0.802012
      6          1           0       -1.161546   -0.960781   -0.336239
      7          1           0       -1.160657    0.181068    1.004763
      8          1           0       -1.071346    0.809217   -0.642662
 ---------------------------------------------------------------------

 SCF Done:  E(RB3LYP) =  -79.8260070037     A.U. after   10 cycles

 The electronic state is 1-A.
 Alpha  occ. eigenvalues --  -10.17422 -10.16945  -0.74716  -0.60909  -0.43811
 Alpha  occ. eigenvalues --   -0.42802  -0.35812  -0.34136  -0.33691
 Alpha virt. eigenvalues --    0.10237   0.15038   0.15720   0.16885   0.19155
 Alpha virt. eigenvalues --    0.20152   0.23456   0.51353   0.54382   0.55162
 Alpha virt. eigenvalues --    0.61728   0.65209   0.66401   0.87741   0.88458

 Mulliken charges:
               1
     1  C   -0.435834
     2  C   -0.432330
     3  H    0.139666
     4  H    0.143767
     5  H    0.142472
     6  H    0.144919
     7  H    0.142533
     8  H    0.154808
 Sum of Mulliken charges =   0.00000

 Dipole moment (field-independent basis, Debye):
    X=             -0.0231    Y=             -0.0265    Z=             -0.0131  Tot=              0.0375
 Quadrupole moment (field-independent basis, Debye-Ang):
   XX=            -15.4914   YY=            -14.5067   ZZ=            -14.7629
   XY=              0.1655   XZ=             -0.0559   YZ=             -0.0478

 Normal termination of Gaussian 16 at Fri Sep 22 17:02:18 2023.
