 Gaussian 16, Revision A.03,
 Gaussian 16:  ES64L-G16RevA.03 25-Dec-2016

 ----------------
 # b3lyp/6-31g(d)
 ----------------

 -----------------------
 tmpdir/M2_conf_0_90.gjf
 -----------------------
 Symbolic Z-matrix:
 Charge =  0 Multiplicity = 1

                         Standard orientation:
 ---------------------------------------------------------------------
 Center     Atomic      Atomic             Coordinates (Angstroms)
 Number     Number       Type             X           Y           Z
 ---------------------------------------------------------------------
      1          6           0        0.695859   -0.008201   -0.000735
      2          6           0       -0.697540   -0.008727    0.000421
      3          1           0       -1.236639    0.934813   -0.002545
      4          1           0        1.211549   -0.882210   -0.000592
      5          1           0        1.239867    0.933327    0.003459
      6          1           0       -1.204689   -0.884362    0.001567
 ---------------------------------------------------------------------

 SCF Done:  E(RB3LYP) =  -78.5753315474     A.U. after   10 cycles

 The electronic state is 1-A.
 Alpha  occ. eigenvalues --  -10.18358 -10.18297  -0.74732  -0.59091  -0.47273
 Alpha  occ. eigenvalues --   -0.40421  -0.37134  -0.25609
 Alpha virt. eigenvalues --    0.00579   0.12398   0.16195   0.16761   0.24407
 Alpha virt. eigenvalues --    0.31044   0.49224   0.55704   0.55775   0.63310
 Alpha virt. eigenvalues --    0.65249   0.65884   0.87988   0.88176   0.96076

 Mulliken charges:
               1
     1  C   -0.296082
     2  C   -0.295107
     3  H    0.144262
     4  H    0.151467
     5  H    0.143828
     6  H    0.151631
 Sum of Mulliken charges =  -0.00000

 Dipole moment (field-independent basis, Debye):
    X=              0.0021    Y=             -0.0437    Z=              0.0017  Tot=              0.0437
 Quadrupole moment (field-independent basis, Debye-Ang):
   XX=            -11.9856   YY=            -11.9574   ZZ=            -15.0450
   XY=             -0.0027   XZ=              0.0045   YZ=             -0.0001

 Normal termination of Gaussian 16 at Fri Sep 22 17:02:41 2023.
