 Gaussian 16, Revision A.03,
 Gaussian 16:  ES64L-G16RevA.03 25-Dec-2016

 ----------------
 # b3lyp/6-31g(d)
 ----------------

 -----------------------
 tmpdir/M2_conf_0_22.gjf
 -----------------------
 Symbolic Z-matrix:
 Charge =  0 Multiplicity = 1

                         Standard orientation:
 ---------------------------------------------------------------------
 Center     Atomic      Atomic             Coordinates (Angstroms)
 Number     Number       Type             X           Y           Z
 ---------------------------------------------------------------------
      1          6           0        1.315530   -0.249522    0.004445
      2          6           0       -0.007850    0.559152    0.006577
      3          6           0       -1.323258   -0.269919    0.015204
      4          1           0        1.753228   -0.567805    0.999159
      5          1           0        1.205103   -1.126010   -0.647955
      6          1           0        2.063992    0.387030   -0.484088
      7          1           0       -0.019329    1.226590    0.877977
      8          1           0       -0.035370    1.206662   -0.879997
      9          1           0       -2.183922    0.387192    0.192781
     10          1           0       -1.479605   -0.734263   -0.968418
     11          1           0       -1.210629   -1.017659    0.753181
 ---------------------------------------------------------------------

 SCF Done:  E(RB3LYP) =  -119.136098023     A.U. after   11 cycles

 The electronic state is 1-A.
 Alpha  occ. eigenvalues --  -10.17923 -10.17527 -10.16711  -0.76851  -0.67645
 Alpha  occ. eigenvalues --   -0.57797  -0.44923  -0.43000  -0.39336  -0.37922
 Alpha  occ. eigenvalues --   -0.33913  -0.32395  -0.31852
 Alpha virt. eigenvalues --    0.09478   0.13539   0.15010   0.15727   0.16783
 Alpha virt. eigenvalues --    0.17537   0.18159   0.22464   0.23928   0.26154
 Alpha virt. eigenvalues --    0.51187   0.52568   0.54298   0.57793   0.59644

 Mulliken charges:
               1
     1  C   -0.442918
     2  C   -0.245133
     3  C   -0.439125
     4  H    0.138917
     5  H    0.143094
     6  H    0.144208
     7  H    0.134134
     8  H    0.133263
     9  H    0.141269
    10  H    0.139218
    11  H    0.153074
 Sum of Mulliken charges =  -0.00000

 Dipole moment (field-independent basis, Debye):
    X=              0.0239    Y=              0.0778    Z=             -0.0452  Tot=              0.0931
 Quadrupole moment (field-independent basis, Debye-Ang):
   XX=            -21.9066   YY=            -21.6607   ZZ=            -21.1312
   XY=             -0.1984   XZ=              0.1651   YZ=             -0.0823

 Normal termination of Gaussian 16 at Fri Sep 22 17:02:22 2023.
