 Gaussian 16, Revision A.03,
 Gaussian 16:  ES64L-G16RevA.03 25-Dec-2016

 ----------------
 # b3lyp/6-31g(d)
 ----------------

 ------------------------
 tmpdir/M2_conf_0_102.gjf
 ------------------------
 Symbolic Z-matrix:
 Charge =  0 Multiplicity = 1

                         Standard orientation:
 ---------------------------------------------------------------------
 Center     Atomic      Atomic             Coordinates (Angstroms)
 Number     Number       Type             X           Y           Z
 ---------------------------------------------------------------------
      1          6           0        1.197801    0.182616   -0.004974
      2          8           0       -0.005989   -0.578257   -0.000145
      3          6           0       -1.189520    0.194900    0.004824
      4          1           0        1.448966    0.592141    1.012954
      5          1           0        1.087143    1.023458   -0.713323
      6          1           0        2.022895   -0.413732   -0.296290
      7          1           0       -2.021155   -0.505704   -0.107546
      8          1           0       -1.329036    0.755775    0.940867
      9          1           0       -1.210592    0.909027   -0.834602
 ---------------------------------------------------------------------

 SCF Done:  E(RB3LYP) =  -155.021924281     A.U. after   12 cycles

 The electronic state is 1-A.
 Alpha  occ. eigenvalues --  -19.14287 -10.22451 -10.22446  -1.02025  -0.71895
 Alpha  occ. eigenvalues --   -0.63612  -0.47276  -0.46758  -0.45949  -0.39364
 Alpha  occ. eigenvalues --   -0.38101  -0.30934  -0.24946
 Alpha virt. eigenvalues --    0.09268   0.13343   0.14555   0.15664   0.16735
 Alpha virt. eigenvalues --    0.18336   0.19145   0.24300   0.51569   0.53031
 Alpha virt. eigenvalues --    0.53576   0.57251   0.59427   0.72293   0.82517

 Mulliken charges:
               1
     1  C   -0.188901
     2  O   -0.452975
     3  C   -0.189835
     4  H    0.124528
     5  H    0.125893
     6  H    0.165306
     7  H    0.158611
     8  H    0.130144
     9  H    0.127230
 Sum of Mulliken charges =   0.00000

 Dipole moment (field-independent basis, Debye):
    X=              0.0462    Y=              1.2715    Z=             -0.0654  Tot=              1.2740
 Quadrupole moment (field-independent basis, Debye-Ang):
   XX=            -16.7605   YY=            -20.9555   ZZ=            -20.0476
   XY=             -0.0295   XZ=             -0.0578   YZ=             -0.0022

 Normal termination of Gaussian 16 at Fri Sep 22 17:02:47 2023.
