 Gaussian 16, Revision A.03,
 Gaussian 16:  ES64L-G16RevA.03 25-Dec-2016

 ----------------
 # b3lyp/6-31g(d)
 ----------------

 ----------------------
 tmpdir/M2_conf_0_7.gjf
 ----------------------
 Symbolic Z-matrix:
 Charge =  0 Multiplicity = 1

                         Standard orientation:
 ---------------------------------------------------------------------
 Center     Atomic      Atomic             Coordinates (Angstroms)
 Number     Number       Type             X           Y           Z
 ---------------------------------------------------------------------
      1          6           0        0.775551    0.008496   -0.005637
      2          6           0       -0.775719    0.004876   -0.014547
      3          1           0       -1.139343   -0.784650   -0.686709
      4          1           0        1.271980   -0.204621   -0.993112
      5          1           0        1.125649   -0.738325    0.718834
      6          1           0        1.148962    0.981350    0.336546
      7          1           0       -1.317000    0.972697   -0.244037
      8          1           0       -1.089236   -0.306682    0.989580
 ---------------------------------------------------------------------

 SCF Done:  E(RB3LYP) =  -79.8243481798     A.U. after   10 cycles

 The electronic state is 1-A.
 Alpha  occ. eigenvalues --  -10.17781 -10.17732  -0.74230  -0.61005  -0.42735
 Alpha  occ. eigenvalues --   -0.42550  -0.36230  -0.33844  -0.33573
 Alpha virt. eigenvalues --    0.10257   0.13692   0.14210   0.15614   0.20550
 Alpha virt. eigenvalues --    0.21610   0.23647   0.51822   0.54122   0.54273
 Alpha virt. eigenvalues --    0.65205   0.65839   0.67248   0.86491   0.86764

 Mulliken charges:
               1
     1  C   -0.434283
     2  C   -0.434105
     3  H    0.146808
     4  H    0.140266
     5  H    0.147007
     6  H    0.147179
     7  H    0.141034
     8  H    0.146094
 Sum of Mulliken charges =  -0.00000

 Dipole moment (field-independent basis, Debye):
    X=              0.0031    Y=             -0.0488    Z=              0.0872  Tot=              0.1000
 Quadrupole moment (field-independent basis, Debye-Ang):
   XX=            -15.2061   YY=            -14.7253   ZZ=            -14.8409
   XY=             -0.0962   XZ=             -0.0205   YZ=             -0.0056

 Normal termination of Gaussian 16 at Fri Sep 22 17:02:20 2023.
