 Gaussian 16, Revision A.03,
 Gaussian 16:  ES64L-G16RevA.03 25-Dec-2016

 ----------------
 # b3lyp/6-31g(d)
 ----------------

 -----------------------
 tmpdir/M2_conf_0_92.gjf
 -----------------------
 Symbolic Z-matrix:
 Charge =  0 Multiplicity = 1

                         Standard orientation:
 ---------------------------------------------------------------------
 Center     Atomic      Atomic             Coordinates (Angstroms)
 Number     Number       Type             X           Y           Z
 ---------------------------------------------------------------------
      1          6           0        0.697071   -0.007884   -0.000009
      2          6           0       -0.697529   -0.007754   -0.000150
      3          1           0        1.202389   -0.883661    0.000212
      4          1           0        1.243578    0.931285    0.000025
      5          1           0       -1.200341   -0.885887    0.000280
      6          1           0       -1.242872    0.932087    0.000434
 ---------------------------------------------------------------------

 SCF Done:  E(RB3LYP) =  -78.5747297571     A.U. after   11 cycles

 The electronic state is 1-A.
 Alpha  occ. eigenvalues --  -10.18343 -10.18285  -0.74735  -0.59117  -0.47300
 Alpha  occ. eigenvalues --   -0.40387  -0.37193  -0.25589
 Alpha virt. eigenvalues --    0.00557   0.12426   0.16225   0.16786   0.24429
 Alpha virt. eigenvalues --    0.30990   0.49209   0.55739   0.55793   0.63307
 Alpha virt. eigenvalues --    0.65231   0.65818   0.88014   0.88285   0.96164

 Mulliken charges:
               1
     1  C   -0.295865
     2  C   -0.295742
     3  H    0.151533
     4  H    0.144209
     5  H    0.151459
     6  H    0.144406
 Sum of Mulliken charges =   0.00000

 Dipole moment (field-independent basis, Debye):
    X=              0.0010    Y=             -0.0458    Z=              0.0009  Tot=              0.0458
 Quadrupole moment (field-independent basis, Debye-Ang):
   XX=            -11.9882   YY=            -11.9508   ZZ=            -15.0432
   XY=             -0.0026   XZ=             -0.0006   YZ=             -0.0000

 Normal termination of Gaussian 16 at Fri Sep 22 17:02:49 2023.
