 Gaussian 16, Revision A.03,
 Gaussian 16:  ES64L-G16RevA.03 25-Dec-2016

 ----------------
 # b3lyp/6-31g(d)
 ----------------

 -----------------------
 tmpdir/M2_conf_0_14.gjf
 -----------------------
 Symbolic Z-matrix:
 Charge =  0 Multiplicity = 1

                         Standard orientation:
 ---------------------------------------------------------------------
 Center     Atomic      Atomic             Coordinates (Angstroms)
 Number     Number       Type             X           Y           Z
 ---------------------------------------------------------------------
      1          6           0        0.781992   -0.004306   -0.016948
      2          6           0       -0.782276    0.005700   -0.016515
      3          1           0       -1.144558    1.002189   -0.302513
      4          1           0        1.322778    0.798082   -0.586702
      5          1           0        1.143297   -0.989580   -0.342606
      6          1           0        1.102739    0.089755    1.027992
      7          1           0       -1.320857   -0.773420   -0.619126
      8          1           0       -1.101697   -0.135396    1.023738
 ---------------------------------------------------------------------

 SCF Done:  E(RB3LYP) =  -79.8216693218     A.U. after   10 cycles

 The electronic state is 1-A.
 Alpha  occ. eigenvalues --  -10.17749 -10.17732  -0.74016  -0.61153  -0.42669
 Alpha  occ. eigenvalues --   -0.42434  -0.36349  -0.33839  -0.33300
 Alpha virt. eigenvalues --    0.10300   0.13187   0.13381   0.15423   0.21963
 Alpha virt. eigenvalues --    0.22951   0.23468   0.52215   0.53756   0.53902
 Alpha virt. eigenvalues --    0.65024   0.66470   0.70372   0.85713   0.86206

 Mulliken charges:
               1
     1  C   -0.439565
     2  C   -0.439352
     3  H    0.148101
     4  H    0.144335
     5  H    0.147865
     6  H    0.147168
     7  H    0.144325
     8  H    0.147122
 Sum of Mulliken charges =   0.00000

 Dipole moment (field-independent basis, Debye):
    X=             -0.0001    Y=             -0.0035    Z=              0.1104  Tot=              0.1105
 Quadrupole moment (field-independent basis, Debye-Ang):
   XX=            -15.1441   YY=            -14.6495   ZZ=            -14.9117
   XY=              0.1763   XZ=              0.0053   YZ=             -0.0012

 Normal termination of Gaussian 16 at Fri Sep 22 17:02:26 2023.
