 Gaussian 16, Revision A.03,
 Gaussian 16:  ES64L-G16RevA.03 25-Dec-2016

 ----------------
 # b3lyp/6-31g(d)
 ----------------

 -----------------------
 tmpdir/M2_conf_0_97.gjf
 -----------------------
 Symbolic Z-matrix:
 Charge =  0 Multiplicity = 1

                         Standard orientation:
 ---------------------------------------------------------------------
 Center     Atomic      Atomic             Coordinates (Angstroms)
 Number     Number       Type             X           Y           Z
 ---------------------------------------------------------------------
      1          6           0       -0.549073   -0.013254   -0.000153
      2          1           0       -1.110633    0.917339    0.000310
      3          1           0       -1.036889   -0.899805    0.000332
      4          8           0        0.680245    0.007748    0.000034
 ---------------------------------------------------------------------

 SCF Done:  E(RB3LYP) =  -114.492854835     A.U. after   11 cycles

 The electronic state is 1-A.
 Alpha  occ. eigenvalues --  -19.16419 -10.27821  -1.04502  -0.65318  -0.50890
 Alpha  occ. eigenvalues --   -0.44119  -0.38873  -0.26659
 Alpha virt. eigenvalues --   -0.04682   0.11701   0.19256   0.21705   0.51099
 Alpha virt. eigenvalues --    0.59687   0.63323   0.66965   0.84667   0.86329
 Alpha virt. eigenvalues --    0.94213   0.96293   1.06191   1.37120   1.50013

 Mulliken charges:
               1
     1  C    0.075185
     2  H    0.126501
     3  H    0.143131
     4  O   -0.344817
 Sum of Mulliken charges =  -0.00000

 Dipole moment (field-independent basis, Debye):
    X=             -2.3362    Y=             -0.1023    Z=              0.0001  Tot=              2.3384
 Quadrupole moment (field-independent basis, Debye-Ang):
   XX=            -11.8344   YY=            -11.2934   ZZ=            -11.3319
   XY=              0.0469   XZ=             -0.0002   YZ=              0.0000

 Normal termination of Gaussian 16 at Fri Sep 22 17:02:44 2023.
