 Gaussian 16, Revision A.03,
 Gaussian 16:  ES64L-G16RevA.03 25-Dec-2016

 ----------------
 # b3lyp/6-31g(d)
 ----------------

 -----------------------
 tmpdir/M2_conf_0_68.gjf
 -----------------------
 Symbolic Z-matrix:
 Charge = -1 Multiplicity = 1

                         Standard orientation:
 ---------------------------------------------------------------------
 Center     Atomic      Atomic             Coordinates (Angstroms)
 Number     Number       Type             X           Y           Z
 ---------------------------------------------------------------------
      1          7           0        1.714183   -0.381341    0.135228
      2          6           0        0.584235    0.512617   -0.254912
      3          6           0       -0.738102    0.194876    0.407895
      4          1           0        1.607382   -1.293653   -0.093129
      5          1           0        0.927583    1.508855    0.032371
      6          1           0        0.466266    0.502109   -1.346307
      7          1           0       -0.880774    0.397154    1.392043
      8          8           0       -1.649568   -0.336255   -0.231184
 ---------------------------------------------------------------------

 SCF Done:  E(RB3LYP) =  -208.494374573     A.U. after   18 cycles

 The electronic state is 1-A.
 Alpha  occ. eigenvalues --  -18.92476 -13.99588 -10.04622  -9.98104  -0.81752
 Alpha  occ. eigenvalues --   -0.57377  -0.44925  -0.37418  -0.26268  -0.21399
 Alpha  occ. eigenvalues --   -0.19024  -0.18079  -0.13242  -0.05035   0.02956
 Alpha  occ. eigenvalues --    0.08182
 Alpha virt. eigenvalues --    0.18842   0.32881   0.33428   0.36327   0.38066
 Alpha virt. eigenvalues --    0.44738   0.49691   0.52743   0.74675   0.80035
 Alpha virt. eigenvalues --    0.81286   0.83655   0.86426   0.92581   0.96673

 Mulliken charges:
               1
     1  N   -0.858369
     2  C   -0.107669
     3  C    0.190150
     4  H    0.190422
     5  H    0.038457
     6  H    0.027200
     7  H    0.036655
     8  O   -0.516844
 Sum of Mulliken charges =  -1.00000

 Dipole moment (field-independent basis, Debye):
    X=             -2.8757    Y=              1.1410    Z=              0.1487  Tot=              3.0974
 Quadrupole moment (field-independent basis, Debye-Ang):
   XX=            -44.8667   YY=            -25.6651   ZZ=            -27.5953
   XY=             -0.8582   XZ=             -3.2292   YZ=              0.6987

 Normal termination of Gaussian 16 at Fri Sep 22 17:02:43 2023.
