 Gaussian 16, Revision A.03,
 Gaussian 16:  ES64L-G16RevA.03 25-Dec-2016

 ----------------
 # b3lyp/6-31g(d)
 ----------------

 -----------------------
 tmpdir/M2_conf_0_16.gjf
 -----------------------
 Symbolic Z-matrix:
 Charge =  0 Multiplicity = 1

                         Standard orientation:
 ---------------------------------------------------------------------
 Center     Atomic      Atomic             Coordinates (Angstroms)
 Number     Number       Type             X           Y           Z
 ---------------------------------------------------------------------
      1          6           0        0.775980    0.007264   -0.010495
      2          6           0       -0.774888   -0.001782   -0.014575
      3          1           0       -1.136659   -0.966525   -0.394625
      4          1           0        1.266662   -0.485401   -0.895651
      5          1           0        1.128782    1.044869    0.051692
      6          1           0        1.136437   -0.497375    0.895843
      7          1           0       -1.316495    0.839924   -0.544220
      8          1           0       -1.085277    0.031616    1.037382
 ---------------------------------------------------------------------

 SCF Done:  E(RB3LYP) =  -79.8245840641     A.U. after   10 cycles

 The electronic state is 1-A.
 Alpha  occ. eigenvalues --  -10.17766 -10.17744  -0.74251  -0.60954  -0.42749
 Alpha  occ. eigenvalues --   -0.42597  -0.36226  -0.33843  -0.33563
 Alpha virt. eigenvalues --    0.10227   0.13761   0.14366   0.15764   0.20309
 Alpha virt. eigenvalues --    0.21305   0.23586   0.51806   0.54129   0.54413
 Alpha virt. eigenvalues --    0.64939   0.65811   0.66827   0.86586   0.86918

 Mulliken charges:
               1
     1  C   -0.433378
     2  C   -0.433560
     3  H    0.146441
     4  H    0.140434
     5  H    0.146758
     6  H    0.146782
     7  H    0.140773
     8  H    0.145750
 Sum of Mulliken charges =   0.00000

 Dipole moment (field-independent basis, Debye):
    X=              0.0021    Y=             -0.0199    Z=              0.1032  Tot=              0.1051
 Quadrupole moment (field-independent basis, Debye-Ang):
   XX=            -15.2426   YY=            -14.7201   ZZ=            -14.8302
   XY=             -0.1290   XZ=              0.0322   YZ=             -0.0035

 Normal termination of Gaussian 16 at Fri Sep 22 17:02:20 2023.
