 Gaussian 16, Revision A.03,
 Gaussian 16:  ES64L-G16RevA.03 25-Dec-2016

 ----------------
 # b3lyp/6-31g(d)
 ----------------

 -----------------------
 tmpdir/M2_conf_0_40.gjf
 -----------------------
 Symbolic Z-matrix:
 Charge =  0 Multiplicity = 1

                         Standard orientation:
 ---------------------------------------------------------------------
 Center     Atomic      Atomic             Coordinates (Angstroms)
 Number     Number       Type             X           Y           Z
 ---------------------------------------------------------------------
      1          6           0        1.318624   -0.244609    0.011302
      2          6           0       -0.007433    0.560366    0.000363
      3          6           0       -1.320683   -0.272289    0.009248
      4          1           0        1.771125   -0.526909    1.010240
      5          1           0        1.203956   -1.144942   -0.608066
      6          1           0        2.058874    0.373246   -0.512062
      7          1           0       -0.023570    1.201007   -0.890978
      8          1           0       -0.051902    1.226700    0.870415
      9          1           0       -1.415860   -0.803959   -0.954747
     10          1           0       -1.217567   -0.979952    0.790180
     11          1           0       -2.268106    0.394000    0.169542
 ---------------------------------------------------------------------

 SCF Done:  E(RB3LYP) =  -119.133013538     A.U. after   11 cycles

 The electronic state is 1-A.
 Alpha  occ. eigenvalues --  -10.18001 -10.17659 -10.17508  -0.76813  -0.67356
 Alpha  occ. eigenvalues --   -0.57720  -0.45014  -0.42437  -0.39181  -0.37949
 Alpha  occ. eigenvalues --   -0.33652  -0.32268  -0.32100
 Alpha virt. eigenvalues --    0.09097   0.13552   0.14501   0.15423   0.16072
 Alpha virt. eigenvalues --    0.17428   0.17827   0.22366   0.23853   0.26243
 Alpha virt. eigenvalues --    0.51538   0.52468   0.54590   0.57794   0.59450

 Mulliken charges:
               1
     1  C   -0.444354
     2  C   -0.242010
     3  C   -0.431972
     4  H    0.140043
     5  H    0.143478
     6  H    0.145603
     7  H    0.134535
     8  H    0.135575
     9  H    0.139552
    10  H    0.154324
    11  H    0.125226
 Sum of Mulliken charges =  -0.00000

 Dipole moment (field-independent basis, Debye):
    X=              0.0991    Y=              0.0437    Z=             -0.0344  Tot=              0.1137
 Quadrupole moment (field-independent basis, Debye-Ang):
   XX=            -22.0282   YY=            -21.7506   ZZ=            -21.1634
   XY=             -0.1941   XZ=              0.0494   YZ=             -0.0379

 Normal termination of Gaussian 16 at Fri Sep 22 17:02:30 2023.
