 Gaussian 16, Revision A.03,
 Gaussian 16:  ES64L-G16RevA.03 25-Dec-2016

 ----------------
 # b3lyp/6-31g(d)
 ----------------

 -----------------------
 tmpdir/M2_conf_0_82.gjf
 -----------------------
 Symbolic Z-matrix:
 Charge =  0 Multiplicity = 1

                         Standard orientation:
 ---------------------------------------------------------------------
 Center     Atomic      Atomic             Coordinates (Angstroms)
 Number     Number       Type             X           Y           Z
 ---------------------------------------------------------------------
      1          6           0        0.694045    0.485194   -0.001023
      2          6           0       -0.702852    0.482828    0.000155
      3          6           0        1.408705   -0.717616    0.000479
      4          1           0        1.232778    1.430334    0.001483
      5          6           0       -1.397896   -0.726234   -0.000098
      6          1           0       -1.244787    1.424635    0.001434
 ---------------------------------------------------------------------

 SCF Done:  E(RB3LYP) =  -153.299976672     A.U. after   13 cycles

 The electronic state is 1-A.
 Alpha  occ. eigenvalues --  -10.27329 -10.27305 -10.23011 -10.22944  -0.84743
 Alpha  occ. eigenvalues --   -0.72014  -0.60729  -0.49718  -0.48912  -0.35878
 Alpha  occ. eigenvalues --   -0.31669  -0.29672  -0.23996
 Alpha virt. eigenvalues --   -0.13123  -0.09987  -0.06247   0.06752   0.10653
 Alpha virt. eigenvalues --    0.14709   0.25589   0.35483   0.37767   0.48209
 Alpha virt. eigenvalues --    0.50287   0.52701   0.55248   0.55904   0.58366

 Mulliken charges:
               1
     1  C   -0.214866
     2  C   -0.210461
     3  C    0.006433
     4  H    0.206563
     5  C    0.005876
     6  H    0.206456
 Sum of Mulliken charges =  -0.00000

 Dipole moment (field-independent basis, Debye):
    X=             -0.0362    Y=              3.4726    Z=              0.0028  Tot=              3.4728
 Quadrupole moment (field-independent basis, Debye-Ang):
   XX=            -24.3741   YY=            -23.3625   ZZ=            -25.2956
   XY=              0.0064   XZ=             -0.0019   YZ=              0.0070

 Normal termination of Gaussian 16 at Fri Sep 22 17:02:42 2023.
