 Gaussian 16, Revision A.03,
 Gaussian 16:  ES64L-G16RevA.03 25-Dec-2016

 ----------------
 # b3lyp/6-31g(d)
 ----------------

 -----------------------
 tmpdir/M2_conf_0_96.gjf
 -----------------------
 Symbolic Z-matrix:
 Charge =  0 Multiplicity = 1

                         Standard orientation:
 ---------------------------------------------------------------------
 Center     Atomic      Atomic             Coordinates (Angstroms)
 Number     Number       Type             X           Y           Z
 ---------------------------------------------------------------------
      1          6           0       -0.697560   -0.007728   -0.000150
      2          6           0        0.697040   -0.007874   -0.000009
      3          1           0        1.244048    0.930999    0.000025
      4          1           0       -1.200382   -0.885855    0.000280
      5          1           0       -1.242892    0.932119    0.000434
      6          1           0        1.202348   -0.883656    0.000212
 ---------------------------------------------------------------------

 SCF Done:  E(RB3LYP) =  -78.5747323525     A.U. after   11 cycles

 The electronic state is 1-A.
 Alpha  occ. eigenvalues --  -10.18343 -10.18285  -0.74735  -0.59119  -0.47297
 Alpha  occ. eigenvalues --   -0.40390  -0.37191  -0.25589
 Alpha virt. eigenvalues --    0.00557   0.12428   0.16224   0.16785   0.24429
 Alpha virt. eigenvalues --    0.30993   0.49210   0.55734   0.55793   0.63306
 Alpha virt. eigenvalues --    0.65232   0.65817   0.88014   0.88286   0.96166

 Mulliken charges:
               1
     1  C   -0.295737
     2  C   -0.295884
     3  H    0.144214
     4  H    0.151467
     5  H    0.144410
     6  H    0.151529
 Sum of Mulliken charges =  -0.00000

 Dipole moment (field-independent basis, Debye):
    X=              0.0011    Y=             -0.0459    Z=              0.0009  Tot=              0.0459
 Quadrupole moment (field-independent basis, Debye-Ang):
   XX=            -11.9871   YY=            -11.9515   ZZ=            -15.0432
   XY=             -0.0021   XZ=             -0.0006   YZ=             -0.0000

 Normal termination of Gaussian 16 at Fri Sep 22 17:02:42 2023.
