 Gaussian 16, Revision A.03,
 Gaussian 16:  ES64L-G16RevA.03 25-Dec-2016

 ----------------
 # b3lyp/6-31g(d)
 ----------------

 -----------------------
 tmpdir/M2_conf_0_80.gjf
 -----------------------
 Symbolic Z-matrix:
 Charge =  0 Multiplicity = 1

                         Standard orientation:
 ---------------------------------------------------------------------
 Center     Atomic      Atomic             Coordinates (Angstroms)
 Number     Number       Type             X           Y           Z
 ---------------------------------------------------------------------
      1          6           0        0.705680    0.508854   -0.003459
      2          6           0       -0.696213    0.504754   -0.001733
      3          1           0       -1.228155    1.453156    0.002203
      4          1           0        1.256977    1.455013    0.014295
      5          8           0        1.306239   -0.568457    0.000545
      6          8           0       -1.316942   -0.555271    0.001286
 ---------------------------------------------------------------------

 SCF Done:  E(RB3LYP) =  -227.799671086     A.U. after   13 cycles

 The electronic state is 1-A.
 Alpha  occ. eigenvalues --  -19.18734 -19.18674 -10.29910 -10.29764  -1.08816
 Alpha  occ. eigenvalues --   -1.04965  -0.75252  -0.57585  -0.55303  -0.47055
 Alpha  occ. eigenvalues --   -0.45168  -0.44473  -0.37667  -0.30498  -0.27963
 Alpha virt. eigenvalues --   -0.13141   0.03535   0.10699   0.13540   0.17695
 Alpha virt. eigenvalues --    0.31393   0.37835   0.48360   0.51354   0.56502
 Alpha virt. eigenvalues --    0.58717   0.65676   0.66554   0.74135   0.81703

 Mulliken charges:
               1
     1  C    0.199222
     2  C    0.205636
     3  H    0.129951
     4  H    0.135546
     5  O   -0.334935
     6  O   -0.335420
 Sum of Mulliken charges =   0.00000

 Dipole moment (field-independent basis, Debye):
    X=              0.0541    Y=              3.4902    Z=             -0.0042  Tot=              3.4906
 Quadrupole moment (field-independent basis, Debye-Ang):
   XX=            -25.3789   YY=            -21.3452   ZZ=            -20.7787
   XY=              0.0872   XZ=              0.0064   YZ=              0.0042

 Normal termination of Gaussian 16 at Fri Sep 22 17:02:49 2023.
