 Gaussian 16, Revision A.03,
 Gaussian 16:  ES64L-G16RevA.03 25-Dec-2016

 ----------------
 # b3lyp/6-31g(d)
 ----------------

 -----------------------
 tmpdir/M2_conf_0_60.gjf
 -----------------------
 Symbolic Z-matrix:
 Charge =  0 Multiplicity = 1

                         Standard orientation:
 ---------------------------------------------------------------------
 Center     Atomic      Atomic             Coordinates (Angstroms)
 Number     Number       Type             X           Y           Z
 ---------------------------------------------------------------------
      1          7           0        0.736494   -0.090439   -0.002052
      2          7           0       -0.385583   -0.608234   -0.007818
      3          6           0       -1.587701    0.276663   -0.004519
      4          7           0        1.822535    0.264567    0.003357
      5          1           0       -2.425948   -0.420957    0.055159
      6          1           0       -1.594309    0.885493    0.908966
      7          1           0       -1.667658    0.914228   -0.891422
 ---------------------------------------------------------------------

 SCF Done:  E(RB3LYP) =  -204.092218829     A.U. after   14 cycles

 The electronic state is 1-A.
 Alpha  occ. eigenvalues --  -14.51208 -14.40444 -14.38313 -10.24259  -1.13648
 Alpha  occ. eigenvalues --   -0.97565  -0.75120  -0.54164  -0.51320  -0.51202
 Alpha  occ. eigenvalues --   -0.45106  -0.43797  -0.41919  -0.29913  -0.25457
 Alpha virt. eigenvalues --   -0.02620   0.01369   0.10185   0.13743   0.14779
 Alpha virt. eigenvalues --    0.16480   0.26671   0.46518   0.49003   0.51711
 Alpha virt. eigenvalues --    0.54874   0.56187   0.63282   0.65466   0.70100

 Mulliken charges:
               1
     1  N    0.402737
     2  N   -0.363414
     3  C   -0.305103
     4  N   -0.269447
     5  H    0.188505
     6  H    0.171887
     7  H    0.174835
 Sum of Mulliken charges =  -0.00000

 Dipole moment (field-independent basis, Debye):
    X=             -2.2660    Y=              1.0181    Z=              0.0195  Tot=              2.4843
 Quadrupole moment (field-independent basis, Debye-Ang):
   XX=            -24.0419   YY=            -24.0254   ZZ=            -22.9319
   XY=             -1.8215   XZ=             -0.0429   YZ=             -0.0894

 Normal termination of Gaussian 16 at Fri Sep 22 17:02:33 2023.
