 Gaussian 16, Revision A.03,
 Gaussian 16:  ES64L-G16RevA.03 25-Dec-2016

 ----------------
 # b3lyp/6-31g(d)
 ----------------

 -----------------------
 tmpdir/M2_conf_0_67.gjf
 -----------------------
 Symbolic Z-matrix:
 Charge = -1 Multiplicity = 1

                         Standard orientation:
 ---------------------------------------------------------------------
 Center     Atomic      Atomic             Coordinates (Angstroms)
 Number     Number       Type             X           Y           Z
 ---------------------------------------------------------------------
      1          7           0       -0.820274    0.128070   -0.011556
      2          6           0        0.664622   -0.024211   -0.004667
      3          1           0        0.978144   -0.495359    0.936024
      4          1           0       -1.311303   -0.679539    0.038603
      5          1           0        1.033066    1.003967   -0.001768
      6          1           0        1.054285   -0.580297   -0.863965
 ---------------------------------------------------------------------

 SCF Done:  E(RB3LYP) =  -95.1448963499     A.U. after   13 cycles

 The electronic state is 1-A.
 Alpha  occ. eigenvalues --  -13.92033  -9.94164  -0.50765  -0.36217  -0.16905
 Alpha  occ. eigenvalues --   -0.15711  -0.09575   0.08865   0.14845
 Alpha virt. eigenvalues --    0.33306   0.39252   0.40190   0.40570   0.50437
 Alpha virt. eigenvalues --    0.81213   0.81753   0.84918   1.05044   1.07159
 Alpha virt. eigenvalues --    1.08289   1.12754   1.14006   1.19122   1.25349

 Mulliken charges:
               1
     1  N   -0.920996
     2  C   -0.242278
     3  H   -0.007743
     4  H    0.140321
     5  H    0.044016
     6  H   -0.013320
 Sum of Mulliken charges =  -1.00000

 Dipole moment (field-independent basis, Debye):
    X=              2.3517    Y=             -1.2521    Z=              0.1260  Tot=              2.6672
 Quadrupole moment (field-independent basis, Debye-Ang):
   XX=            -20.6735   YY=            -16.6360   ZZ=            -17.7070
   XY=              2.4445   XZ=             -0.1683   YZ=             -0.0219

 Normal termination of Gaussian 16 at Fri Sep 22 17:02:33 2023.
