 Gaussian 16, Revision A.03,
 Gaussian 16:  ES64L-G16RevA.03 25-Dec-2016

 ----------------
 # b3lyp/6-31g(d)
 ----------------

 -----------------------
 tmpdir/M2_conf_0_54.gjf
 -----------------------
 Symbolic Z-matrix:
 Charge =  0 Multiplicity = 1

                         Standard orientation:
 ---------------------------------------------------------------------
 Center     Atomic      Atomic             Coordinates (Angstroms)
 Number     Number       Type             X           Y           Z
 ---------------------------------------------------------------------
      1          6           0        0.831576   -0.089369   -0.111010
      2          6           0       -0.485932    0.533640    0.013591
      3          8           0       -1.510548   -0.455110    0.038003
      4          7           0        1.931688   -0.181092    0.044291
      5          1           0       -0.456703    1.146186    0.957473
      6          1           0       -0.654330    1.206581   -0.846529
      7          1           0       -2.400262   -0.109871   -0.140494
 ---------------------------------------------------------------------

 SCF Done:  E(RB3LYP) =  -207.933426720     A.U. after   13 cycles

 The electronic state is 1-A.
 Alpha  occ. eigenvalues --  -19.17221 -14.33469 -10.29582 -10.22453  -1.04462
 Alpha  occ. eigenvalues --   -0.92898  -0.75461  -0.55032  -0.52313  -0.49422
 Alpha  occ. eigenvalues --   -0.37744  -0.36244  -0.35087  -0.34649  -0.29720
 Alpha virt. eigenvalues --   -0.00375   0.03172   0.08236   0.10493   0.15439
 Alpha virt. eigenvalues --    0.19520   0.25016   0.31484   0.50622   0.54126
 Alpha virt. eigenvalues --    0.56827   0.57944   0.65966   0.69450   0.71947

 Mulliken charges:
               1
     1  C    0.315180
     2  C   -0.102685
     3  O   -0.611501
     4  N   -0.368260
     5  H    0.183722
     6  H    0.175128
     7  H    0.408416
 Sum of Mulliken charges =  -0.00000

 Dipole moment (field-independent basis, Debye):
    X=             -3.7169    Y=              2.3404    Z=             -0.4554  Tot=              4.4159
 Quadrupole moment (field-independent basis, Debye-Ang):
   XX=            -24.5051   YY=            -22.7788   ZZ=            -22.3382
   XY=             -1.4137   XZ=              0.7360   YZ=              0.1303

 Normal termination of Gaussian 16 at Fri Sep 22 17:02:31 2023.
