 Gaussian 16, Revision A.03,
 Gaussian 16:  ES64L-G16RevA.03 25-Dec-2016

 ----------------
 # b3lyp/6-31g(d)
 ----------------

 -----------------------
 tmpdir/M2_conf_0_20.gjf
 -----------------------
 Symbolic Z-matrix:
 Charge =  0 Multiplicity = 1

                         Standard orientation:
 ---------------------------------------------------------------------
 Center     Atomic      Atomic             Coordinates (Angstroms)
 Number     Number       Type             X           Y           Z
 ---------------------------------------------------------------------
      1          6           0       -0.002860   -0.011311   -0.002605
      2          1           0        0.005773    0.776169   -0.768153
      3          1           0       -0.977639   -0.565460   -0.056886
      4          1           0        0.921341   -0.641736   -0.126658
      5          1           0        0.067683    0.498893    0.967324
 ---------------------------------------------------------------------

 SCF Done:  E(RB3LYP) =  -40.5161351570     A.U. after    9 cycles

 The electronic state is 1-A.
 Alpha  occ. eigenvalues --  -10.17435  -0.68542  -0.39279  -0.38374  -0.38119
 Alpha virt. eigenvalues --    0.11233   0.16772   0.17093   0.17388   0.53151
 Alpha virt. eigenvalues --    0.53490   0.55111   0.87132   0.88425   0.88916
 Alpha virt. eigenvalues --    0.93272   1.09579   1.65856   1.66210   2.18096

 Mulliken charges:
               1
     1  C   -0.621083
     2  H    0.157104
     3  H    0.154296
     4  H    0.152797
     5  H    0.156887
 Sum of Mulliken charges =  -0.00000

 Dipole moment (field-independent basis, Debye):
    X=              0.0074    Y=              0.0683    Z=              0.0142  Tot=              0.0701
 Quadrupole moment (field-independent basis, Debye-Ang):
   XX=             -8.0897   YY=             -8.3841   ZZ=             -8.4255
   XY=              0.0088   XZ=              0.0029   YZ=             -0.0040

 Normal termination of Gaussian 16 at Fri Sep 22 17:02:20 2023.
