 Gaussian 16, Revision A.03,
 Gaussian 16:  ES64L-G16RevA.03 25-Dec-2016

 ----------------
 # b3lyp/6-31g(d)
 ----------------

 -----------------------
 tmpdir/M2_conf_0_36.gjf
 -----------------------
 Symbolic Z-matrix:
 Charge =  0 Multiplicity = 1

                         Standard orientation:
 ---------------------------------------------------------------------
 Center     Atomic      Atomic             Coordinates (Angstroms)
 Number     Number       Type             X           Y           Z
 ---------------------------------------------------------------------
      1          1           0        1.517968   -0.217419    1.006794
      2          6           0        1.148812    0.034733    0.002939
      3          6           0       -0.295824   -0.170734   -0.032338
      4          1           0        1.341161    1.122266   -0.214435
      5          1           0        1.702809   -0.596441   -0.703298
      6          7           0       -1.382838    0.072515    0.012476
 ---------------------------------------------------------------------

 SCF Done:  E(RB3LYP) =  -132.742466205     A.U. after   13 cycles

 The electronic state is 1-A.
 Alpha  occ. eigenvalues --  -14.32327 -10.24087 -10.21990  -0.92083  -0.77038
 Alpha  occ. eigenvalues --   -0.50912  -0.46306  -0.45950  -0.35784  -0.33565
 Alpha  occ. eigenvalues --   -0.33323
 Alpha virt. eigenvalues --    0.02477   0.05154   0.09258   0.14305   0.16144
 Alpha virt. eigenvalues --    0.23058   0.30057   0.52460   0.53311   0.56925
 Alpha virt. eigenvalues --    0.61911   0.62348   0.69090   0.76068   0.80659

 Mulliken charges:
               1
     1  H    0.204099
     2  C   -0.524303
     3  C    0.292621
     4  H    0.208867
     5  H    0.197767
     6  N   -0.379050
 Sum of Mulliken charges =  -0.00000

 Dipole moment (field-independent basis, Debye):
    X=              3.6146    Y=             -0.1119    Z=              0.0035  Tot=              3.6163
 Quadrupole moment (field-independent basis, Debye-Ang):
   XX=            -20.3195   YY=            -17.0255   ZZ=            -17.2202
   XY=              0.2392   XZ=              0.0627   YZ=             -0.0614

 Normal termination of Gaussian 16 at Fri Sep 22 17:02:22 2023.
