 Gaussian 16, Revision A.03,
 Gaussian 16:  ES64L-G16RevA.03 25-Dec-2016

 ----------------
 # b3lyp/6-31g(d)
 ----------------

 -----------------------
 tmpdir/M2_conf_0_42.gjf
 -----------------------
 Symbolic Z-matrix:
 Charge =  0 Multiplicity = 1

                         Standard orientation:
 ---------------------------------------------------------------------
 Center     Atomic      Atomic             Coordinates (Angstroms)
 Number     Number       Type             X           Y           Z
 ---------------------------------------------------------------------
      1          6           0       -0.776200    0.004910   -0.014578
      2          6           0        0.775070    0.008579   -0.005560
      3          1           0        1.152615    0.982953    0.327648
      4          1           0       -1.317441    0.970689   -0.252590
      5          1           0       -1.135250   -0.791686   -0.680821
      6          1           0       -1.089813   -0.297830    0.992213
      7          1           0        1.271583   -0.213198   -0.991087
      8          1           0        1.125088   -0.731865    0.725467
 ---------------------------------------------------------------------

 SCF Done:  E(RB3LYP) =  -79.8243318990     A.U. after   10 cycles

 The electronic state is 1-A.
 Alpha  occ. eigenvalues --  -10.17787 -10.17726  -0.74230  -0.61005  -0.42731
 Alpha  occ. eigenvalues --   -0.42557  -0.36226  -0.33844  -0.33574
 Alpha virt. eigenvalues --    0.10257   0.13694   0.14207   0.15616   0.20550
 Alpha virt. eigenvalues --    0.21610   0.23647   0.51821   0.54130   0.54268
 Alpha virt. eigenvalues --    0.65191   0.65842   0.67258   0.86486   0.86768

 Mulliken charges:
               1
     1  C   -0.433856
     2  C   -0.434534
     3  H    0.147084
     4  H    0.141121
     5  H    0.146903
     6  H    0.146146
     7  H    0.140186
     8  H    0.146950
 Sum of Mulliken charges =   0.00000

 Dipole moment (field-independent basis, Debye):
    X=              0.0034    Y=             -0.0484    Z=              0.0874  Tot=              0.0999
 Quadrupole moment (field-independent basis, Debye-Ang):
   XX=            -15.2066   YY=            -14.7266   ZZ=            -14.8393
   XY=             -0.0963   XZ=             -0.0211   YZ=             -0.0057

 Normal termination of Gaussian 16 at Fri Sep 22 17:02:24 2023.
