 Gaussian 16, Revision A.03,
 Gaussian 16:  ES64L-G16RevA.03 25-Dec-2016

 ----------------
 # b3lyp/6-31g(d)
 ----------------

 -----------------------
 tmpdir/M2_conf_0_41.gjf
 -----------------------
 Symbolic Z-matrix:
 Charge =  0 Multiplicity = 1

                         Standard orientation:
 ---------------------------------------------------------------------
 Center     Atomic      Atomic             Coordinates (Angstroms)
 Number     Number       Type             X           Y           Z
 ---------------------------------------------------------------------
      1          6           0        0.775417    0.005551    0.014903
      2          6           0       -0.775849    0.008656    0.005110
      3          1           0       -1.115603   -0.756205   -0.705327
      4          1           0        1.316388    0.978232    0.223615
      5          1           0        1.134313   -0.770310    0.705267
      6          1           0        1.089520   -0.327659   -0.982058
      7          1           0       -1.272754   -0.183079    0.996725
      8          1           0       -1.149271    0.973779   -0.358303
 ---------------------------------------------------------------------

 SCF Done:  E(RB3LYP) =  -79.8242625916     A.U. after   10 cycles

 The electronic state is 1-A.
 Alpha  occ. eigenvalues --  -10.17770 -10.17728  -0.74244  -0.60970  -0.42782
 Alpha  occ. eigenvalues --   -0.42572  -0.36163  -0.33854  -0.33578
 Alpha virt. eigenvalues --    0.10233   0.13720   0.14192   0.15639   0.20543
 Alpha virt. eigenvalues --    0.21616   0.23619   0.51798   0.54164   0.54324
 Alpha virt. eigenvalues --    0.65167   0.65834   0.67145   0.86473   0.86775

 Mulliken charges:
               1
     1  C   -0.434133
     2  C   -0.433921
     3  H    0.146950
     4  H    0.140890
     5  H    0.146756
     6  H    0.145978
     7  H    0.140325
     8  H    0.147154
 Sum of Mulliken charges =   0.00000

 Dipole moment (field-independent basis, Debye):
    X=             -0.0030    Y=             -0.0513    Z=             -0.0855  Tot=              0.0997
 Quadrupole moment (field-independent basis, Debye-Ang):
   XX=            -15.2325   YY=            -14.7176   ZZ=            -14.8337
   XY=              0.0908   XZ=             -0.0348   YZ=              0.0055

 Normal termination of Gaussian 16 at Fri Sep 22 17:02:34 2023.
