 Gaussian 16, Revision A.03,
 Gaussian 16:  ES64L-G16RevA.03 25-Dec-2016

 ----------------
 # b3lyp/6-31g(d)
 ----------------

 -----------------------
 tmpdir/M2_conf_0_69.gjf
 -----------------------
 Symbolic Z-matrix:
 Charge =  0 Multiplicity = 1

                         Standard orientation:
 ---------------------------------------------------------------------
 Center     Atomic      Atomic             Coordinates (Angstroms)
 Number     Number       Type             X           Y           Z
 ---------------------------------------------------------------------
      1          1           0        0.181651    0.187046    1.051978
      2          6           0       -0.015274   -0.006016   -0.004832
      3          1           0       -0.328027    0.941456   -0.462697
      4          1           0        1.030132   -0.324333   -0.431953
      5          1           0       -0.792114   -0.768072   -0.128334
 ---------------------------------------------------------------------

 SCF Done:  E(RB3LYP) =  -40.5138594573     A.U. after    9 cycles

 The electronic state is 1-A.
 Alpha  occ. eigenvalues --  -10.17574  -0.68490  -0.39668  -0.38786  -0.37199
 Alpha virt. eigenvalues --    0.11022   0.15796   0.17455   0.17758   0.53056
 Alpha virt. eigenvalues --    0.53414   0.55551   0.84736   0.89220   0.89859
 Alpha virt. eigenvalues --    0.93073   1.09390   1.66108   1.66221   2.16220

 Mulliken charges:
               1
     1  H    0.159314
     2  C   -0.618408
     3  H    0.158918
     4  H    0.138309
     5  H    0.161867
 Sum of Mulliken charges =   0.00000

 Dipole moment (field-independent basis, Debye):
    X=             -0.0242    Y=              0.0440    Z=              0.0603  Tot=              0.0784
 Quadrupole moment (field-independent basis, Debye-Ang):
   XX=             -8.1465   YY=             -8.3052   ZZ=             -8.4760
   XY=              0.0711   XZ=              0.0770   YZ=             -0.0203

 Normal termination of Gaussian 16 at Fri Sep 22 17:02:29 2023.
