 Gaussian 16, Revision A.03,
 Gaussian 16:  ES64L-G16RevA.03 25-Dec-2016

 ----------------
 # b3lyp/6-31g(d)
 ----------------

 -----------------------
 tmpdir/M2_conf_0_79.gjf
 -----------------------
 Symbolic Z-matrix:
 Charge =  0 Multiplicity = 1

                         Standard orientation:
 ---------------------------------------------------------------------
 Center     Atomic      Atomic             Coordinates (Angstroms)
 Number     Number       Type             X           Y           Z
 ---------------------------------------------------------------------
      1          6           0        0.808659    0.485290   -0.003296
      2          6           0       -0.584020    0.645809   -0.001658
      3          6           0       -1.419377   -0.469424    0.001256
      4          1           0        1.467227    1.360171    0.014853
      5          8           0        1.278580   -0.655081    0.000333
      6          1           0       -1.006540    1.647756    0.002609
      7          1           0       -1.022930   -1.400429    0.002352
      8          1           0       -2.497959   -0.336898   -0.000288
 ---------------------------------------------------------------------

 SCF Done:  E(RB3LYP) =  -191.895896266     A.U. after   14 cycles

 The electronic state is 1-A.
 Alpha  occ. eigenvalues --  -19.13693 -10.26759 -10.21583 -10.20669  -1.02970
 Alpha  occ. eigenvalues --   -0.79111  -0.67217  -0.55001  -0.51643  -0.44566
 Alpha  occ. eigenvalues --   -0.41984  -0.39343  -0.38964  -0.27456  -0.25364
 Alpha virt. eigenvalues --   -0.07951   0.06924   0.10548   0.13961   0.16455
 Alpha virt. eigenvalues --    0.20079   0.25211   0.31222   0.35836   0.51465
 Alpha virt. eigenvalues --    0.52658   0.57405   0.57940   0.59819   0.63401

 Mulliken charges:
               1
     1  C    0.222168
     2  C   -0.140371
     3  C   -0.272279
     4  H    0.115064
     5  O   -0.418476
     6  H    0.138347
     7  H    0.194344
     8  H    0.161204
 Sum of Mulliken charges =  -0.00000

 Dipole moment (field-independent basis, Debye):
    X=             -2.0681    Y=              1.6905    Z=              0.0028  Tot=              2.6711
 Quadrupole moment (field-independent basis, Debye-Ang):
   XX=            -23.2470   YY=            -22.0277   ZZ=            -24.2111
   XY=              3.0783   XZ=             -0.0017   YZ=              0.0051

 Normal termination of Gaussian 16 at Fri Sep 22 17:02:43 2023.
