 Gaussian 16, Revision A.03,
 Gaussian 16:  ES64L-G16RevA.03 25-Dec-2016

 ----------------
 # b3lyp/6-31g(d)
 ----------------

 -----------------------
 tmpdir/M2_conf_0_84.gjf
 -----------------------
 Symbolic Z-matrix:
 Charge =  0 Multiplicity = 1

                         Standard orientation:
 ---------------------------------------------------------------------
 Center     Atomic      Atomic             Coordinates (Angstroms)
 Number     Number       Type             X           Y           Z
 ---------------------------------------------------------------------
      1          6           0       -1.430871   -0.468903   -0.003099
      2          6           0       -0.581601    0.642948   -0.000031
      3          6           0        0.805641    0.480630    0.000371
      4          1           0       -2.518322   -0.340270    0.015829
      5          1           0       -1.023687   -1.398433   -0.001935
      6          1           0       -1.007123    1.644171   -0.002558
      7          8           0        1.292281   -0.648461    0.000615
      8          1           0        1.451872    1.354166    0.000300
 ---------------------------------------------------------------------

 SCF Done:  E(RB3LYP) =  -191.895648492     A.U. after   14 cycles

 The electronic state is 1-A.
 Alpha  occ. eigenvalues --  -19.13672 -10.26592 -10.21831 -10.20707  -1.03141
 Alpha  occ. eigenvalues --   -0.79128  -0.67294  -0.55003  -0.51686  -0.44469
 Alpha  occ. eigenvalues --   -0.42116  -0.39438  -0.38936  -0.27464  -0.25363
 Alpha virt. eigenvalues --   -0.08019   0.07044   0.10435   0.13922   0.16623
 Alpha virt. eigenvalues --    0.19877   0.25197   0.31176   0.36197   0.51424
 Alpha virt. eigenvalues --    0.52703   0.57113   0.57933   0.59716   0.63435

 Mulliken charges:
               1
     1  C   -0.274313
     2  C   -0.138986
     3  C    0.222359
     4  H    0.162526
     5  H    0.194115
     6  H    0.138596
     7  O   -0.417921
     8  H    0.113623
 Sum of Mulliken charges =  -0.00000

 Dipole moment (field-independent basis, Debye):
    X=             -2.1232    Y=              1.6682    Z=              0.0077  Tot=              2.7002
 Quadrupole moment (field-independent basis, Debye-Ang):
   XX=            -23.2373   YY=            -22.0691   ZZ=            -24.2129
   XY=              3.0486   XZ=             -0.0299   YZ=             -0.0041

 Normal termination of Gaussian 16 at Fri Sep 22 17:02:43 2023.
