 Gaussian 16, Revision A.03,
 Gaussian 16:  ES64L-G16RevA.03 25-Dec-2016

 ----------------
 # b3lyp/6-31g(d)
 ----------------

 -----------------------
 tmpdir/M2_conf_0_86.gjf
 -----------------------
 Symbolic Z-matrix:
 Charge =  0 Multiplicity = 1

                         Standard orientation:
 ---------------------------------------------------------------------
 Center     Atomic      Atomic             Coordinates (Angstroms)
 Number     Number       Type             X           Y           Z
 ---------------------------------------------------------------------
      1          6           0       -0.702452    0.503454    0.000129
      2          6           0        0.694247    0.504759   -0.001015
      3          1           0        1.233366    1.449678    0.001465
      4          8           0       -1.316017   -0.562003   -0.000063
      5          1           0       -1.243672    1.445670    0.001349
      6          8           0        1.323460   -0.556075    0.000376
 ---------------------------------------------------------------------

 SCF Done:  E(RB3LYP) =  -227.799002572     A.U. after   13 cycles

 The electronic state is 1-A.
 Alpha  occ. eigenvalues --  -19.18744 -19.18716 -10.29821 -10.29765  -1.08793
 Alpha  occ. eigenvalues --   -1.04990  -0.75479  -0.57650  -0.55427  -0.47089
 Alpha  occ. eigenvalues --   -0.45205  -0.44468  -0.37676  -0.30538  -0.27976
 Alpha virt. eigenvalues --   -0.13242   0.03622   0.10751   0.13711   0.17674
 Alpha virt. eigenvalues --    0.31609   0.38009   0.48312   0.51252   0.56569
 Alpha virt. eigenvalues --    0.58530   0.65859   0.66378   0.74289   0.81868

 Mulliken charges:
               1
     1  C    0.203207
     2  C    0.202620
     3  H    0.132315
     4  O   -0.334710
     5  H    0.133459
     6  O   -0.336891
 Sum of Mulliken charges =  -0.00000

 Dipole moment (field-independent basis, Debye):
    X=             -0.0391    Y=              3.4752    Z=             -0.0007  Tot=              3.4754
 Quadrupole moment (field-independent basis, Debye-Ang):
   XX=            -25.4289   YY=            -21.3553   ZZ=            -20.7663
   XY=             -0.0283   XZ=             -0.0010   YZ=              0.0006

 Normal termination of Gaussian 16 at Fri Sep 22 17:02:52 2023.
