 Gaussian 16, Revision A.03,
 Gaussian 16:  ES64L-G16RevA.03 25-Dec-2016

 ----------------
 # b3lyp/6-31g(d)
 ----------------

 -----------------------
 tmpdir/M2_conf_0_43.gjf
 -----------------------
 Symbolic Z-matrix:
 Charge =  0 Multiplicity = 1

                         Standard orientation:
 ---------------------------------------------------------------------
 Center     Atomic      Atomic             Coordinates (Angstroms)
 Number     Number       Type             X           Y           Z
 ---------------------------------------------------------------------
      1          6           0        0.779265   -0.018744   -0.009273
      2          6           0       -0.775525    0.004161    0.002011
      3          1           0       -1.090311    0.376953    0.985421
      4          1           0        1.136645   -0.599139    0.860463
      5          1           0        1.061833   -0.514998   -0.900985
      6          1           0        1.239739    1.055082    0.036813
      7          1           0       -1.280591   -0.978573   -0.198080
      8          1           0       -1.089753    0.748178   -0.740060
 ---------------------------------------------------------------------

 SCF Done:  E(RB3LYP) =  -79.8225506968     A.U. after   10 cycles

 The electronic state is 1-A.
 Alpha  occ. eigenvalues --  -10.17807 -10.17590  -0.74322  -0.60617  -0.43368
 Alpha  occ. eigenvalues --   -0.42642  -0.35572  -0.34029  -0.33602
 Alpha virt. eigenvalues --    0.09895   0.13751   0.15982   0.17063   0.18578
 Alpha virt. eigenvalues --    0.19457   0.22922   0.51676   0.54941   0.55187
 Alpha virt. eigenvalues --    0.61104   0.65584   0.66426   0.85076   0.87901

 Mulliken charges:
               1
     1  C   -0.426715
     2  C   -0.432727
     3  H    0.144164
     4  H    0.143422
     5  H    0.156226
     6  H    0.128968
     7  H    0.141263
     8  H    0.145399
 Sum of Mulliken charges =  -0.00000

 Dipole moment (field-independent basis, Debye):
    X=             -0.0137    Y=             -0.0270    Z=             -0.0235  Tot=              0.0383
 Quadrupole moment (field-independent basis, Debye-Ang):
   XX=            -15.5667   YY=            -14.5956   ZZ=            -14.7739
   XY=              0.1859   XZ=              0.0554   YZ=              0.0335

 Normal termination of Gaussian 16 at Fri Sep 22 17:02:28 2023.
