 Gaussian 16, Revision A.03,
 Gaussian 16:  ES64L-G16RevA.03 25-Dec-2016

 ----------------
 # b3lyp/6-31g(d)
 ----------------

 -----------------------
 tmpdir/M2_conf_0_51.gjf
 -----------------------
 Symbolic Z-matrix:
 Charge =  0 Multiplicity = 1

                         Standard orientation:
 ---------------------------------------------------------------------
 Center     Atomic      Atomic             Coordinates (Angstroms)
 Number     Number       Type             X           Y           Z
 ---------------------------------------------------------------------
      1          6           0        1.229335   -0.247855   -0.007569
      2          6           0       -0.088972    0.576029    0.028605
      3          8           0       -1.224612   -0.269375   -0.125305
      4          1           0        2.178742    0.350151   -0.051250
      5          1           0        1.255479   -0.886181    0.885194
      6          1           0        1.164452   -0.917146   -0.874060
      7          1           0       -0.153125    1.109640    0.994093
      8          1           0       -0.018683    1.282258   -0.757249
      9          1           0       -1.472142   -0.752765    0.679495
 ---------------------------------------------------------------------

 SCF Done:  E(RB3LYP) =  -155.027934848     A.U. after   12 cycles

 The electronic state is 1-A.
 Alpha  occ. eigenvalues --  -19.13772 -10.22844 -10.17530  -1.00632  -0.73778
 Alpha  occ. eigenvalues --   -0.61923  -0.50221  -0.45557  -0.41456  -0.37075
 Alpha  occ. eigenvalues --   -0.36497  -0.31364  -0.26134
 Alpha virt. eigenvalues --    0.07073   0.12044   0.15189   0.15957   0.17319
 Alpha virt. eigenvalues --    0.19178   0.22713   0.23128   0.53157   0.55289
 Alpha virt. eigenvalues --    0.55916   0.59159   0.64525   0.66909   0.80462

 Mulliken charges:
               1
     1  C   -0.452059
     2  C   -0.023504
     3  O   -0.620998
     4  H    0.134265
     5  H    0.133406
     6  H    0.159280
     7  H    0.118874
     8  H    0.157433
     9  H    0.393302
 Sum of Mulliken charges =   0.00000

 Dipole moment (field-independent basis, Debye):
    X=              0.6323    Y=              0.0206    Z=              1.3790  Tot=              1.5172
 Quadrupole moment (field-independent basis, Debye-Ang):
   XX=            -20.8983   YY=            -18.9546   ZZ=            -18.7874
   XY=              1.2190   XZ=             -2.5484   YZ=             -1.3961

 Normal termination of Gaussian 16 at Fri Sep 22 17:02:31 2023.
