 Gaussian 16, Revision A.03,
 Gaussian 16:  ES64L-G16RevA.03 25-Dec-2016

 ----------------
 # b3lyp/6-31g(d)
 ----------------

 -----------------------
 tmpdir/M2_conf_0_23.gjf
 -----------------------
 Symbolic Z-matrix:
 Charge =  0 Multiplicity = 1

                         Standard orientation:
 ---------------------------------------------------------------------
 Center     Atomic      Atomic             Coordinates (Angstroms)
 Number     Number       Type             X           Y           Z
 ---------------------------------------------------------------------
      1          6           0       -0.775239   -0.001980   -0.014584
      2          6           0        0.775627    0.007343   -0.010495
      3          1           0        1.129910    1.045207    0.037225
      4          1           0       -1.316918    0.832179   -0.555965
      5          1           0       -1.132128   -0.973510   -0.381743
      6          1           0       -1.085727    0.046042    1.036773
      7          1           0        1.266459   -0.497550   -0.888646
      8          1           0        1.136074   -0.484549    0.902833
 ---------------------------------------------------------------------

 SCF Done:  E(RB3LYP) =  -79.8245613396     A.U. after   10 cycles

 The electronic state is 1-A.
 Alpha  occ. eigenvalues --  -10.17767 -10.17739  -0.74254  -0.60946  -0.42761
 Alpha  occ. eigenvalues --   -0.42597  -0.36220  -0.33837  -0.33564
 Alpha virt. eigenvalues --    0.10222   0.13760   0.14362   0.15778   0.20304
 Alpha virt. eigenvalues --    0.21306   0.23580   0.51802   0.54128   0.54431
 Alpha virt. eigenvalues --    0.64923   0.65814   0.66817   0.86582   0.86922

 Mulliken charges:
               1
     1  C   -0.433354
     2  C   -0.433537
     3  H    0.146661
     4  H    0.140843
     5  H    0.146486
     6  H    0.145786
     7  H    0.140378
     8  H    0.146738
 Sum of Mulliken charges =  -0.00000

 Dipole moment (field-independent basis, Debye):
    X=              0.0024    Y=             -0.0187    Z=              0.1033  Tot=              0.1050
 Quadrupole moment (field-independent basis, Debye-Ang):
   XX=            -15.2482   YY=            -14.7179   ZZ=            -14.8292
   XY=             -0.1325   XZ=              0.0325   YZ=             -0.0036

 Normal termination of Gaussian 16 at Fri Sep 22 17:02:26 2023.
