 Gaussian 16, Revision A.03,
 Gaussian 16:  ES64L-G16RevA.03 25-Dec-2016

 ----------------
 # b3lyp/6-31g(d)
 ----------------

 -----------------------
 tmpdir/M2_conf_0_11.gjf
 -----------------------
 Symbolic Z-matrix:
 Charge =  0 Multiplicity = 1

                         Standard orientation:
 ---------------------------------------------------------------------
 Center     Atomic      Atomic             Coordinates (Angstroms)
 Number     Number       Type             X           Y           Z
 ---------------------------------------------------------------------
      1          6           0        0.001034   -0.009090   -0.016521
      2          1           0       -0.034780    1.064050   -0.253142
      3          1           0        1.000926   -0.435915   -0.333336
      4          1           0       -0.933616   -0.504160   -0.392791
      5          1           0       -0.038736   -0.069437    1.078395
 ---------------------------------------------------------------------

 SCF Done:  E(RB3LYP) =  -40.5146085030     A.U. after    9 cycles

 The electronic state is 1-A.
 Alpha  occ. eigenvalues --  -10.17507  -0.68532  -0.39597  -0.38399  -0.37627
 Alpha virt. eigenvalues --    0.11092   0.16476   0.17186   0.17374   0.52987
 Alpha virt. eigenvalues --    0.53422   0.55704   0.86297   0.88576   0.88833
 Alpha virt. eigenvalues --    0.93561   1.09675   1.65800   1.66460   2.16270

 Mulliken charges:
               1
     1  C   -0.621607
     2  H    0.157403
     3  H    0.153029
     4  H    0.155040
     5  H    0.156136
 Sum of Mulliken charges =  -0.00000

 Dipole moment (field-independent basis, Debye):
    X=             -0.0126    Y=              0.0521    Z=              0.0825  Tot=              0.0984
 Quadrupole moment (field-independent basis, Debye-Ang):
   XX=             -8.0069   YY=             -8.3850   ZZ=             -8.5263
   XY=              0.0061   XZ=              0.0048   YZ=             -0.0049

 Normal termination of Gaussian 16 at Fri Sep 22 17:02:20 2023.
