 Gaussian 16, Revision A.03,
 Gaussian 16:  ES64L-G16RevA.03 25-Dec-2016

 ----------------
 # b3lyp/6-31g(d)
 ----------------

 -----------------------
 tmpdir/M2_conf_0_71.gjf
 -----------------------
 Symbolic Z-matrix:
 Charge =  0 Multiplicity = 1

                         Standard orientation:
 ---------------------------------------------------------------------
 Center     Atomic      Atomic             Coordinates (Angstroms)
 Number     Number       Type             X           Y           Z
 ---------------------------------------------------------------------
      1          1           0        1.127014   -1.204029   -0.289805
      2          6           0        1.158578   -0.144131   -0.005578
      3          6           0       -0.236802    0.440473   -0.009097
      4          1           0        1.719626   -0.027740    1.018291
      5          1           0        1.805465    0.371729   -0.718538
      6          1           0       -0.372055    1.446218   -0.006480
      7          8           0       -1.226338   -0.295529    0.010573
 ---------------------------------------------------------------------

 SCF Done:  E(RB3LYP) =  -153.818618241     A.U. after   13 cycles

 The electronic state is 1-A.
 Alpha  occ. eigenvalues --  -19.14683 -10.27528 -10.20356  -1.03272  -0.74617
 Alpha  occ. eigenvalues --   -0.60238  -0.47873  -0.43187  -0.42862  -0.39684
 Alpha  occ. eigenvalues --   -0.35386  -0.25460
 Alpha virt. eigenvalues --   -0.03162   0.10375   0.13733   0.14976   0.16201
 Alpha virt. eigenvalues --    0.25143   0.27995   0.52667   0.52982   0.58456
 Alpha virt. eigenvalues --    0.62349   0.65032   0.71268   0.72985   0.81499

 Mulliken charges:
               1
     1  H    0.187217
     2  C   -0.519115
     3  C    0.260350
     4  H    0.164495
     5  H    0.165447
     6  H    0.131318
     7  O   -0.389712
 Sum of Mulliken charges =  -0.00000

 Dipole moment (field-independent basis, Debye):
    X=              2.3792    Y=              1.2841    Z=             -0.0236  Tot=              2.7037
 Quadrupole moment (field-independent basis, Debye-Ang):
   XX=            -20.4405   YY=            -17.5078   ZZ=            -17.6405
   XY=             -1.1253   XZ=              0.1462   YZ=              0.0894

 Normal termination of Gaussian 16 at Fri Sep 22 17:02:40 2023.
