 Gaussian 16, Revision A.03,
 Gaussian 16:  ES64L-G16RevA.03 25-Dec-2016

 ----------------
 # b3lyp/6-31g(d)
 ----------------

 -----------------------
 tmpdir/M2_conf_0_99.gjf
 -----------------------
 Symbolic Z-matrix:
 Charge =  0 Multiplicity = 1

                         Standard orientation:
 ---------------------------------------------------------------------
 Center     Atomic      Atomic             Coordinates (Angstroms)
 Number     Number       Type             X           Y           Z
 ---------------------------------------------------------------------
      1          6           0       -0.697984    0.504683   -0.000555
      2          6           0        0.699816    0.505868   -0.000147
      3          1           0        1.244949    1.445829    0.001150
      4          8           0       -1.313143   -0.558591    0.000209
      5          1           0       -1.243281    1.444670    0.001086
      6          8           0        1.311560   -0.560635    0.000038
 ---------------------------------------------------------------------

 SCF Done:  E(RB3LYP) =  -227.799081872     A.U. after   13 cycles

 The electronic state is 1-A.
 Alpha  occ. eigenvalues --  -19.18676 -19.18654 -10.29762 -10.29704  -1.08919
 Alpha  occ. eigenvalues --   -1.05063  -0.75342  -0.57655  -0.55474  -0.47074
 Alpha  occ. eigenvalues --   -0.45251  -0.44480  -0.37705  -0.30480  -0.27947
 Alpha virt. eigenvalues --   -0.13126   0.03674   0.10847   0.13687   0.17749
 Alpha virt. eigenvalues --    0.31614   0.38050   0.48323   0.51205   0.56522
 Alpha virt. eigenvalues --    0.58781   0.66016   0.66652   0.74372   0.81926

 Mulliken charges:
               1
     1  C    0.202646
     2  C    0.201977
     3  H    0.133165
     4  O   -0.334815
     5  H    0.131957
     6  O   -0.334931
 Sum of Mulliken charges =  -0.00000

 Dipole moment (field-independent basis, Debye):
    X=              0.0102    Y=              3.4795    Z=             -0.0006  Tot=              3.4795
 Quadrupole moment (field-independent basis, Debye-Ang):
   XX=            -25.3622   YY=            -21.3597   ZZ=            -20.7548
   XY=              0.0160   XZ=              0.0004   YZ=              0.0005

 Normal termination of Gaussian 16 at Fri Sep 22 17:02:45 2023.
