 Gaussian 16, Revision A.03,
 Gaussian 16:  ES64L-G16RevA.03 25-Dec-2016

 ----------------
 # b3lyp/6-31g(d)
 ----------------

 -----------------------
 tmpdir/M2_conf_0_89.gjf
 -----------------------
 Symbolic Z-matrix:
 Charge =  0 Multiplicity = 1

                         Standard orientation:
 ---------------------------------------------------------------------
 Center     Atomic      Atomic             Coordinates (Angstroms)
 Number     Number       Type             X           Y           Z
 ---------------------------------------------------------------------
      1          6           0        1.422160   -0.469358   -0.000822
      2          6           0        0.583898    0.643692    0.000243
      3          6           0       -0.804512    0.481962    0.000233
      4          1           0        1.033885   -1.406942   -0.001764
      5          1           0        2.501572   -0.337906    0.004610
      6          1           0        1.011739    1.642623   -0.001545
      7          8           0       -1.287796   -0.648570    0.000210
      8          1           0       -1.454109    1.353014   -0.000904
 ---------------------------------------------------------------------

 SCF Done:  E(RB3LYP) =  -191.896229511     A.U. after   14 cycles

 The electronic state is 1-A.
 Alpha  occ. eigenvalues --  -19.13644 -10.26577 -10.21659 -10.20646  -1.03127
 Alpha  occ. eigenvalues --   -0.79196  -0.67290  -0.55085  -0.51715  -0.44564
 Alpha  occ. eigenvalues --   -0.42000  -0.39434  -0.39004  -0.27507  -0.25336
 Alpha virt. eigenvalues --   -0.07937   0.07070   0.10547   0.14028   0.16618
 Alpha virt. eigenvalues --    0.19962   0.25326   0.31260   0.36082   0.51428
 Alpha virt. eigenvalues --    0.52724   0.57393   0.57945   0.59756   0.63390

 Mulliken charges:
               1
     1  C   -0.273199
     2  C   -0.139588
     3  C    0.222421
     4  H    0.194091
     5  H    0.161117
     6  H    0.139272
     7  O   -0.417526
     8  H    0.113411
 Sum of Mulliken charges =  -0.00000

 Dipole moment (field-independent basis, Debye):
    X=              2.1099    Y=              1.6698    Z=              0.0005  Tot=              2.6907
 Quadrupole moment (field-independent basis, Debye-Ang):
   XX=            -23.2754   YY=            -22.0141   ZZ=            -24.1902
   XY=             -3.0528   XZ=              0.0070   YZ=             -0.0011

 Normal termination of Gaussian 16 at Fri Sep 22 17:02:52 2023.
