 Gaussian 16, Revision A.03,
 Gaussian 16:  ES64L-G16RevA.03 25-Dec-2016

 ----------------
 # b3lyp/6-31g(d)
 ----------------

 -----------------------
 tmpdir/M2_conf_0_94.gjf
 -----------------------
 Symbolic Z-matrix:
 Charge =  0 Multiplicity = 1

                         Standard orientation:
 ---------------------------------------------------------------------
 Center     Atomic      Atomic             Coordinates (Angstroms)
 Number     Number       Type             X           Y           Z
 ---------------------------------------------------------------------
      1          6           0        0.796613    0.483102   -0.000998
      2          6           0       -0.590787    0.644015    0.000031
      3          6           0       -1.421412   -0.476238   -0.000205
      4          8           0        1.298365   -0.643629    0.000470
      5          1           0        1.442131    1.358791    0.001499
      6          1           0       -1.018916    1.642720    0.001175
      7          1           0       -1.015425   -1.403124   -0.000813
      8          1           0       -2.501190   -0.354628    0.001414
 ---------------------------------------------------------------------

 SCF Done:  E(RB3LYP) =  -191.896057131     A.U. after   14 cycles

 The electronic state is 1-A.
 Alpha  occ. eigenvalues --  -19.13643 -10.26588 -10.21713 -10.20716  -1.02882
 Alpha  occ. eigenvalues --   -0.79309  -0.67352  -0.55034  -0.51763  -0.44552
 Alpha  occ. eigenvalues --   -0.42005  -0.39322  -0.39062  -0.27542  -0.25322
 Alpha virt. eigenvalues --   -0.08018   0.07025   0.10497   0.14030   0.16646
 Alpha virt. eigenvalues --    0.19965   0.25305   0.31206   0.35999   0.51428
 Alpha virt. eigenvalues --    0.52684   0.57444   0.57963   0.59602   0.63377

 Mulliken charges:
               1
     1  C    0.221433
     2  C   -0.138710
     3  C   -0.272946
     4  O   -0.420261
     5  H    0.112942
     6  H    0.140616
     7  H    0.194832
     8  H    0.162094
 Sum of Mulliken charges =  -0.00000

 Dipole moment (field-independent basis, Debye):
    X=             -2.1730    Y=              1.6637    Z=             -0.0005  Tot=              2.7367
 Quadrupole moment (field-independent basis, Debye-Ang):
   XX=            -23.3438   YY=            -21.9930   ZZ=            -24.1951
   XY=              3.0174   XZ=             -0.0045   YZ=              0.0027

 Normal termination of Gaussian 16 at Fri Sep 22 17:02:48 2023.
