 Gaussian 16, Revision A.03,
 Gaussian 16:  ES64L-G16RevA.03 25-Dec-2016

 ----------------
 # b3lyp/6-31g(d)
 ----------------

 -----------------------
 tmpdir/M2_conf_0_38.gjf
 -----------------------
 Symbolic Z-matrix:
 Charge =  0 Multiplicity = 1

                         Standard orientation:
 ---------------------------------------------------------------------
 Center     Atomic      Atomic             Coordinates (Angstroms)
 Number     Number       Type             X           Y           Z
 ---------------------------------------------------------------------
      1          6           0        0.005392   -0.010873    0.000344
      2          1           0        0.012116    0.687447   -0.846043
      3          1           0        1.005529   -0.518211    0.057167
      4          1           0       -0.883603   -0.691284   -0.116672
      5          1           0       -0.166395    0.587286    0.903483
 ---------------------------------------------------------------------

 SCF Done:  E(RB3LYP) =  -40.5160131965     A.U. after    9 cycles

 The electronic state is 1-A.
 Alpha  occ. eigenvalues --  -10.17413  -0.68561  -0.39382  -0.38419  -0.37993
 Alpha virt. eigenvalues --    0.11239   0.16720   0.17096   0.17481   0.53144
 Alpha virt. eigenvalues --    0.53405   0.55186   0.87052   0.88387   0.89124
 Alpha virt. eigenvalues --    0.93373   1.09553   1.65830   1.66286   2.17960

 Mulliken charges:
               1
     1  C   -0.621403
     2  H    0.157151
     3  H    0.154515
     4  H    0.152314
     5  H    0.157424
 Sum of Mulliken charges =  -0.00000

 Dipole moment (field-independent basis, Debye):
    X=             -0.0169    Y=              0.0688    Z=              0.0012  Tot=              0.0709
 Quadrupole moment (field-independent basis, Debye-Ang):
   XX=             -8.0720   YY=             -8.4108   ZZ=             -8.4128
   XY=             -0.0145   XZ=             -0.0061   YZ=             -0.0014

 Normal termination of Gaussian 16 at Fri Sep 22 17:02:28 2023.
