 Gaussian 16, Revision A.03,
 Gaussian 16:  ES64L-G16RevA.03 25-Dec-2016

 ----------------
 # b3lyp/6-31g(d)
 ----------------

 -----------------------
 tmpdir/M2_conf_0_13.gjf
 -----------------------
 Symbolic Z-matrix:
 Charge =  0 Multiplicity = 1

                         Standard orientation:
 ---------------------------------------------------------------------
 Center     Atomic      Atomic             Coordinates (Angstroms)
 Number     Number       Type             X           Y           Z
 ---------------------------------------------------------------------
      1          6           0       -1.340621   -0.247216    0.014387
      2          6           0        0.006963    0.547171    0.013277
      3          6           0        1.335769   -0.252551    0.010711
      4          1           0       -1.948583   -0.269654    0.958202
      5          1           0       -1.161537   -1.275542   -0.328875
      6          1           0       -1.979718    0.206018   -0.753576
      7          1           0        0.015190    1.261956    0.846982
      8          1           0        0.015523    1.159156   -0.897477
      9          1           0        1.727435   -0.546484    1.024212
     10          1           0        1.206527   -1.161589   -0.590868
     11          1           0        2.112499    0.341716   -0.488853
 ---------------------------------------------------------------------

 SCF Done:  E(RB3LYP) =  -119.133399199     A.U. after   11 cycles

 The electronic state is 1-A.
 Alpha  occ. eigenvalues --  -10.18132 -10.17481 -10.17467  -0.76559  -0.67493
 Alpha  occ. eigenvalues --   -0.57917  -0.44523  -0.42726  -0.39029  -0.37795
 Alpha  occ. eigenvalues --   -0.33551  -0.32631  -0.31861
 Alpha virt. eigenvalues --    0.09486   0.12230   0.13748   0.14207   0.17010
 Alpha virt. eigenvalues --    0.18229   0.18642   0.23422   0.24974   0.28305
 Alpha virt. eigenvalues --    0.50755   0.52558   0.53692   0.60232   0.62029

 Mulliken charges:
               1
     1  C   -0.448106
     2  C   -0.241343
     3  C   -0.441606
     4  H    0.142807
     5  H    0.143735
     6  H    0.144958
     7  H    0.137635
     8  H    0.136447
     9  H    0.139699
    10  H    0.142049
    11  H    0.143724
 Sum of Mulliken charges =  -0.00000

 Dipole moment (field-independent basis, Debye):
    X=             -0.0098    Y=              0.1012    Z=             -0.1075  Tot=              0.1480
 Quadrupole moment (field-independent basis, Debye-Ang):
   XX=            -21.7922   YY=            -21.6918   ZZ=            -21.1918
   XY=              0.0312   XZ=             -0.0620   YZ=             -0.0022

 Normal termination of Gaussian 16 at Fri Sep 22 17:02:22 2023.
