 Gaussian 16, Revision A.03,
 Gaussian 16:  ES64L-G16RevA.03 25-Dec-2016

 ----------------
 # b3lyp/6-31g(d)
 ----------------

 -----------------------
 tmpdir/M2_conf_0_12.gjf
 -----------------------
 Symbolic Z-matrix:
 Charge =  0 Multiplicity = 1

                         Standard orientation:
 ---------------------------------------------------------------------
 Center     Atomic      Atomic             Coordinates (Angstroms)
 Number     Number       Type             X           Y           Z
 ---------------------------------------------------------------------
      1          6           0        0.001028   -0.009108   -0.016461
      2          1           0       -0.038732   -0.060656    1.079007
      3          1           0        1.000821   -0.438588   -0.329963
      4          1           0       -0.933692   -0.506939   -0.388877
      5          1           0       -0.034567    1.060833   -0.261404
 ---------------------------------------------------------------------

 SCF Done:  E(RB3LYP) =  -40.5146190024     A.U. after    9 cycles

 The electronic state is 1-A.
 Alpha  occ. eigenvalues --  -10.17494  -0.68542  -0.39595  -0.38417  -0.37626
 Alpha virt. eigenvalues --    0.11098   0.16483   0.17186   0.17396   0.52986
 Alpha virt. eigenvalues --    0.53394   0.55705   0.86301   0.88578   0.88885
 Alpha virt. eigenvalues --    0.93614   1.09684   1.65796   1.66453   2.16271

 Mulliken charges:
               1
     1  C   -0.621743
     2  H    0.156059
     3  H    0.152983
     4  H    0.154993
     5  H    0.157707
 Sum of Mulliken charges =  -0.00000

 Dipole moment (field-independent basis, Debye):
    X=             -0.0127    Y=              0.0538    Z=              0.0816  Tot=              0.0986
 Quadrupole moment (field-independent basis, Debye-Ang):
   XX=             -8.0061   YY=             -8.3848   ZZ=             -8.5248
   XY=              0.0060   XZ=              0.0048   YZ=             -0.0058

 Normal termination of Gaussian 16 at Fri Sep 22 17:02:14 2023.
