 Gaussian 16, Revision A.03,
 Gaussian 16:  ES64L-G16RevA.03 25-Dec-2016

 ----------------
 # b3lyp/6-31g(d)
 ----------------

 ------------------------
 tmpdir/M2_conf_0_100.gjf
 ------------------------
 Symbolic Z-matrix:
 Charge =  0 Multiplicity = 1

                         Standard orientation:
 ---------------------------------------------------------------------
 Center     Atomic      Atomic             Coordinates (Angstroms)
 Number     Number       Type             X           Y           Z
 ---------------------------------------------------------------------
      1          6           0        0.697091   -0.007866   -0.000008
      2          6           0       -0.697509   -0.007747   -0.000149
      3          1           0       -1.243189    0.931899    0.000432
      4          1           0        1.202417   -0.883639    0.000210
      5          1           0        1.243591    0.931308    0.000022
      6          1           0       -1.200314   -0.885885    0.000276
 ---------------------------------------------------------------------

 SCF Done:  E(RB3LYP) =  -78.5747317773     A.U. after   11 cycles

 The electronic state is 1-A.
 Alpha  occ. eigenvalues --  -10.18343 -10.18285  -0.74735  -0.59118  -0.47298
 Alpha  occ. eigenvalues --   -0.40389  -0.37192  -0.25589
 Alpha virt. eigenvalues --    0.00557   0.12427   0.16224   0.16785   0.24429
 Alpha virt. eigenvalues --    0.30992   0.49210   0.55736   0.55793   0.63306
 Alpha virt. eigenvalues --    0.65232   0.65817   0.88014   0.88285   0.96166

 Mulliken charges:
               1
     1  C   -0.295861
     2  C   -0.295755
     3  H    0.144409
     4  H    0.151539
     5  H    0.144211
     6  H    0.151457
 Sum of Mulliken charges =  -0.00000

 Dipole moment (field-independent basis, Debye):
    X=              0.0009    Y=             -0.0458    Z=              0.0009  Tot=              0.0459
 Quadrupole moment (field-independent basis, Debye-Ang):
   XX=            -11.9875   YY=            -11.9513   ZZ=            -15.0432
   XY=             -0.0029   XZ=             -0.0006   YZ=             -0.0000

 Normal termination of Gaussian 16 at Fri Sep 22 17:02:49 2023.
