 Gaussian 16, Revision A.03,
 Gaussian 16:  ES64L-G16RevA.03 25-Dec-2016

 ----------------
 # b3lyp/6-31g(d)
 ----------------

 -----------------------
 tmpdir/M2_conf_0_57.gjf
 -----------------------
 Symbolic Z-matrix:
 Charge =  0 Multiplicity = 1

                         Standard orientation:
 ---------------------------------------------------------------------
 Center     Atomic      Atomic             Coordinates (Angstroms)
 Number     Number       Type             X           Y           Z
 ---------------------------------------------------------------------
      1          6           0        1.199853    0.081748    0.003452
      2          6           0       -0.214514   -0.277384   -0.028548
      3          6           0       -1.393135   -0.005510    0.016214
      4          1           0        1.267975    1.169822   -0.276604
      5          1           0        1.815250   -0.523199   -0.674337
      6          1           0        1.602741   -0.070447    1.014442
      7          1           0       -2.239192    0.630694   -0.010211
 ---------------------------------------------------------------------

 SCF Done:  E(RB3LYP) =  -116.632650761     A.U. after   12 cycles

 The electronic state is 1-A.
 Alpha  occ. eigenvalues --  -10.21000 -10.18371 -10.17102  -0.77641  -0.69004
 Alpha  occ. eigenvalues --   -0.52019  -0.44192  -0.42992  -0.42627  -0.25938
 Alpha  occ. eigenvalues --   -0.25700
 Alpha virt. eigenvalues --    0.00615   0.06199   0.11453   0.14715   0.17518
 Alpha virt. eigenvalues --    0.18308   0.26375   0.44340   0.45544   0.52611
 Alpha virt. eigenvalues --    0.54263   0.61614   0.63148   0.64567   0.70482

 Mulliken charges:
               1
     1  C   -0.527610
     2  C    0.099033
     3  C   -0.294055
     4  H    0.183368
     5  H    0.172479
     6  H    0.180414
     7  H    0.186372
 Sum of Mulliken charges =   0.00000

 Dipole moment (field-independent basis, Debye):
    X=              0.8078    Y=              0.8935    Z=              0.0125  Tot=              1.2045
 Quadrupole moment (field-independent basis, Debye-Ang):
   XX=            -15.3382   YY=            -18.4060   ZZ=            -19.1585
   XY=             -1.8143   XZ=              0.1068   YZ=             -0.0769

 Normal termination of Gaussian 16 at Fri Sep 22 17:02:29 2023.
