 Gaussian 16, Revision A.03,
 Gaussian 16:  ES64L-G16RevA.03 25-Dec-2016

 ----------------
 # b3lyp/6-31g(d)
 ----------------

 -----------------------
 tmpdir/M2_conf_0_93.gjf
 -----------------------
 Symbolic Z-matrix:
 Charge =  0 Multiplicity = 1

                         Standard orientation:
 ---------------------------------------------------------------------
 Center     Atomic      Atomic             Coordinates (Angstroms)
 Number     Number       Type             X           Y           Z
 ---------------------------------------------------------------------
      1          6           0        0.548849   -0.013411   -0.000022
      2          1           0        1.111516    0.916629    0.000045
      3          1           0        1.039135   -0.897686    0.000049
      4          8           0       -0.680468    0.007691    0.000005
 ---------------------------------------------------------------------

 SCF Done:  E(RB3LYP) =  -114.492791954     A.U. after   11 cycles

 The electronic state is 1-A.
 Alpha  occ. eigenvalues --  -19.16432 -10.27821  -1.04506  -0.65355  -0.50866
 Alpha  occ. eigenvalues --   -0.44138  -0.38878  -0.26668
 Alpha virt. eigenvalues --   -0.04688   0.11720   0.19273   0.21696   0.51097
 Alpha virt. eigenvalues --    0.59714   0.63231   0.67011   0.84648   0.86297
 Alpha virt. eigenvalues --    0.94293   0.96287   1.06168   1.37118   1.49997

 Mulliken charges:
               1
     1  C    0.075243
     2  H    0.126249
     3  H    0.143257
     4  O   -0.344750
 Sum of Mulliken charges =  -0.00000

 Dipole moment (field-independent basis, Debye):
    X=              2.3367    Y=             -0.1035    Z=              0.0000  Tot=              2.3390
 Quadrupole moment (field-independent basis, Debye-Ang):
   XX=            -11.8292   YY=            -11.2998   ZZ=            -11.3306
   XY=             -0.0500   XZ=              0.0000   YZ=              0.0000

 Normal termination of Gaussian 16 at Fri Sep 22 17:02:40 2023.
