 Gaussian 16, Revision A.03,
 Gaussian 16:  ES64L-G16RevA.03 25-Dec-2016

 ----------------
 # b3lyp/6-31g(d)
 ----------------

 -----------------------
 tmpdir/M2_conf_0_75.gjf
 -----------------------
 Symbolic Z-matrix:
 Charge =  0 Multiplicity = 1

                         Standard orientation:
 ---------------------------------------------------------------------
 Center     Atomic      Atomic             Coordinates (Angstroms)
 Number     Number       Type             X           Y           Z
 ---------------------------------------------------------------------
      1          6           0        1.225055   -0.179016   -0.004323
      2          6           0       -0.119785    0.513978   -0.009917
      3          6           0       -1.302922   -0.232572    0.008165
      4          1           0        1.789320   -0.105688    1.021768
      5          1           0        1.911102    0.288225   -0.714199
      6          1           0        1.116068   -1.233334   -0.290167
      7          1           0       -0.175187    1.527254   -0.005618
      8          1           0       -2.202658    0.228512    0.022238
      9          1           0       -1.252732   -1.319308    0.002426
 ---------------------------------------------------------------------

 SCF Done:  E(RB3LYP) =  -117.890541242     A.U. after   12 cycles

 The electronic state is 1-A.
 Alpha  occ. eigenvalues --  -10.18870 -10.18724 -10.17328  -0.77253  -0.67402
 Alpha  occ. eigenvalues --   -0.56526  -0.46799  -0.40930  -0.39522  -0.36447
 Alpha  occ. eigenvalues --   -0.35965  -0.23958
 Alpha virt. eigenvalues --    0.01078   0.11405   0.14311   0.14850   0.17270
 Alpha virt. eigenvalues --    0.18599   0.20450   0.28327   0.34842   0.50599
 Alpha virt. eigenvalues --    0.52850   0.54947   0.59711   0.64152   0.64930

 Mulliken charges:
               1
     1  C   -0.476346
     2  C   -0.055699
     3  C   -0.332722
     4  H    0.139586
     5  H    0.153845
     6  H    0.156221
     7  H    0.135511
     8  H    0.144529
     9  H    0.135075
 Sum of Mulliken charges =   0.00000

 Dipole moment (field-independent basis, Debye):
    X=              0.2680    Y=              0.1311    Z=             -0.0340  Tot=              0.3003
 Quadrupole moment (field-independent basis, Debye-Ang):
   XX=            -18.9186   YY=            -18.5334   ZZ=            -21.4214
   XY=              0.0697   XZ=             -0.0371   YZ=              0.0714

 Normal termination of Gaussian 16 at Fri Sep 22 17:02:37 2023.
