 Gaussian 16, Revision A.03,
 Gaussian 16:  ES64L-G16RevA.03 25-Dec-2016

 ----------------
 # b3lyp/6-31g(d)
 ----------------

 -----------------------
 tmpdir/M2_conf_0_35.gjf
 -----------------------
 Symbolic Z-matrix:
 Charge =  0 Multiplicity = 1

                         Standard orientation:
 ---------------------------------------------------------------------
 Center     Atomic      Atomic             Coordinates (Angstroms)
 Number     Number       Type             X           Y           Z
 ---------------------------------------------------------------------
      1          1           0        1.659435   -0.627201   -0.704701
      2          6           0        1.148531    0.035935    0.004732
      3          6           0       -0.296066   -0.170558   -0.025824
      4          1           0        1.351032    1.112338   -0.254720
      5          1           0        1.556680   -0.192675    0.999080
      6          7           0       -1.383133    0.073610    0.012414
 ---------------------------------------------------------------------

 SCF Done:  E(RB3LYP) =  -132.742551926     A.U. after   13 cycles

 The electronic state is 1-A.
 Alpha  occ. eigenvalues --  -14.32343 -10.24074 -10.21980  -0.92084  -0.77026
 Alpha  occ. eigenvalues --   -0.50882  -0.46287  -0.45964  -0.35810  -0.33582
 Alpha  occ. eigenvalues --   -0.33312
 Alpha virt. eigenvalues --    0.02439   0.05058   0.09281   0.14366   0.16256
 Alpha virt. eigenvalues --    0.23006   0.30074   0.52472   0.53306   0.56874
 Alpha virt. eigenvalues --    0.61856   0.62537   0.68855   0.76230   0.80429

 Mulliken charges:
               1
     1  H    0.196714
     2  C   -0.523046
     3  C    0.291850
     4  H    0.208733
     5  H    0.204422
     6  N   -0.378672
 Sum of Mulliken charges =  -0.00000

 Dipole moment (field-independent basis, Debye):
    X=              3.6105    Y=             -0.1167    Z=             -0.0066  Tot=              3.6124
 Quadrupole moment (field-independent basis, Debye-Ang):
   XX=            -20.3284   YY=            -17.0208   ZZ=            -17.2136
   XY=              0.2615   XZ=              0.1009   YZ=             -0.0561

 Normal termination of Gaussian 16 at Fri Sep 22 17:02:27 2023.
