 Gaussian 16, Revision A.03,
 Gaussian 16:  ES64L-G16RevA.03 25-Dec-2016

 ----------------
 # b3lyp/6-31g(d)
 ----------------

 -----------------------
 tmpdir/M2_conf_0_95.gjf
 -----------------------
 Symbolic Z-matrix:
 Charge =  0 Multiplicity = 1

                         Standard orientation:
 ---------------------------------------------------------------------
 Center     Atomic      Atomic             Coordinates (Angstroms)
 Number     Number       Type             X           Y           Z
 ---------------------------------------------------------------------
      1          6           0        0.694248    0.504771   -0.001014
      2          6           0       -0.702451    0.503470    0.000127
      3          1           0       -1.243998    1.445505    0.001349
      4          8           0        1.323458   -0.556065    0.000375
      5          1           0        1.233700    1.449502    0.001466
      6          8           0       -1.316019   -0.561992   -0.000062
 ---------------------------------------------------------------------

 SCF Done:  E(RB3LYP) =  -227.798997982     A.U. after   13 cycles

 The electronic state is 1-A.
 Alpha  occ. eigenvalues --  -19.18744 -19.18716 -10.29822 -10.29766  -1.08792
 Alpha  occ. eigenvalues --   -1.04990  -0.75477  -0.57650  -0.55429  -0.47088
 Alpha  occ. eigenvalues --   -0.45204  -0.44467  -0.37675  -0.30536  -0.27976
 Alpha virt. eigenvalues --   -0.13241   0.03622   0.10752   0.13708   0.17673
 Alpha virt. eigenvalues --    0.31613   0.38006   0.48312   0.51246   0.56569
 Alpha virt. eigenvalues --    0.58529   0.65859   0.66384   0.74291   0.81870

 Mulliken charges:
               1
     1  C    0.202593
     2  C    0.203177
     3  H    0.133477
     4  O   -0.336879
     5  H    0.132332
     6  O   -0.334699
 Sum of Mulliken charges =  -0.00000

 Dipole moment (field-independent basis, Debye):
    X=             -0.0391    Y=              3.4753    Z=             -0.0007  Tot=              3.4755
 Quadrupole moment (field-independent basis, Debye-Ang):
   XX=            -25.4278   YY=            -21.3558   ZZ=            -20.7664
   XY=             -0.0283   XZ=             -0.0010   YZ=              0.0006

 Normal termination of Gaussian 16 at Fri Sep 22 17:02:54 2023.
