 Gaussian 16, Revision A.03,
 Gaussian 16:  ES64L-G16RevA.03 25-Dec-2016

 ----------------
 # b3lyp/6-31g(d)
 ----------------

 ----------------------
 tmpdir/M2_conf_0_9.gjf
 ----------------------
 Symbolic Z-matrix:
 Charge =  0 Multiplicity = 1

                         Standard orientation:
 ---------------------------------------------------------------------
 Center     Atomic      Atomic             Coordinates (Angstroms)
 Number     Number       Type             X           Y           Z
 ---------------------------------------------------------------------
      1          1           0       -0.025635    1.045338   -0.318260
      2          6           0        0.000874   -0.010762   -0.016082
      3          1           0       -0.040464    0.002584    1.080159
      4          1           0        0.998683   -0.462304   -0.303848
      5          1           0       -0.937829   -0.521047   -0.361559
 ---------------------------------------------------------------------

 SCF Done:  E(RB3LYP) =  -40.5145272868     A.U. after    9 cycles

 The electronic state is 1-A.
 Alpha  occ. eigenvalues --  -10.17500  -0.68541  -0.39613  -0.38365  -0.37648
 Alpha virt. eigenvalues --    0.11088   0.16490   0.17185   0.17373   0.52971
 Alpha virt. eigenvalues --    0.53405   0.55730   0.86286   0.88572   0.88829
 Alpha virt. eigenvalues --    0.93652   1.09719   1.65809   1.66427   2.16176

 Mulliken charges:
               1
     1  H    0.157471
     2  C   -0.621786
     3  H    0.156143
     4  H    0.153090
     5  H    0.155082
 Sum of Mulliken charges =  -0.00000

 Dipole moment (field-independent basis, Debye):
    X=             -0.0118    Y=              0.0603    Z=              0.0796  Tot=              0.1006
 Quadrupole moment (field-independent basis, Debye-Ang):
   XX=             -8.0015   YY=             -8.3888   ZZ=             -8.5269
   XY=              0.0067   XZ=              0.0043   YZ=             -0.0054

 Normal termination of Gaussian 16 at Fri Sep 22 17:02:14 2023.
