 Gaussian 16, Revision A.03,
 Gaussian 16:  ES64L-G16RevA.03 25-Dec-2016

 ----------------
 # b3lyp/6-31g(d)
 ----------------

 -----------------------
 tmpdir/M2_conf_0_85.gjf
 -----------------------
 Symbolic Z-matrix:
 Charge =  0 Multiplicity = 1

                         Standard orientation:
 ---------------------------------------------------------------------
 Center     Atomic      Atomic             Coordinates (Angstroms)
 Number     Number       Type             X           Y           Z
 ---------------------------------------------------------------------
      1          6           0       -0.699655   -0.009371   -0.003058
      2          6           0        0.699437   -0.006992    0.000896
      3          1           0        1.234217    0.940378   -0.005291
      4          1           0       -1.259130    0.932033    0.011547
      5          1           0       -1.189680   -0.898006    0.001537
      6          1           0        1.215905   -0.876231    0.005182
 ---------------------------------------------------------------------

 SCF Done:  E(RB3LYP) =  -78.5743738544     A.U. after   11 cycles

 The electronic state is 1-A.
 Alpha  occ. eigenvalues --  -10.18503 -10.18378  -0.74615  -0.59057  -0.47219
 Alpha  occ. eigenvalues --   -0.40285  -0.37181  -0.25528
 Alpha virt. eigenvalues --    0.00465   0.12292   0.16146   0.16669   0.24339
 Alpha virt. eigenvalues --    0.30812   0.49323   0.55785   0.55825   0.63248
 Alpha virt. eigenvalues --    0.65216   0.65544   0.87576   0.88172   0.95904

 Mulliken charges:
               1
     1  C   -0.296056
     2  C   -0.295983
     3  H    0.143792
     4  H    0.144538
     5  H    0.151322
     6  H    0.152387
 Sum of Mulliken charges =  -0.00000

 Dipole moment (field-independent basis, Debye):
    X=              0.0034    Y=             -0.0480    Z=              0.0119  Tot=              0.0495
 Quadrupole moment (field-independent basis, Debye-Ang):
   XX=            -11.9978   YY=            -11.9469   ZZ=            -15.0696
   XY=             -0.0464   XZ=             -0.0157   YZ=             -0.0003

 Normal termination of Gaussian 16 at Fri Sep 22 17:02:46 2023.
