 Gaussian 16, Revision A.03,
 Gaussian 16:  ES64L-G16RevA.03 25-Dec-2016

 ----------------
 # b3lyp/6-31g(d)
 ----------------

 -----------------------
 tmpdir/M2_conf_0_65.gjf
 -----------------------
 Symbolic Z-matrix:
 Charge =  0 Multiplicity = 1

                         Standard orientation:
 ---------------------------------------------------------------------
 Center     Atomic      Atomic             Coordinates (Angstroms)
 Number     Number       Type             X           Y           Z
 ---------------------------------------------------------------------
      1          6           0        1.160567   -0.144280   -0.005628
      2          6           0       -0.238408    0.440544   -0.009257
      3          1           0        1.719579   -0.023925    1.018892
      4          1           0        1.805502    0.374623   -0.718159
      5          1           0        1.135353   -1.204562   -0.289079
      6          1           0       -0.374444    1.446179   -0.007000
      7          8           0       -1.227368   -0.296237    0.010581
 ---------------------------------------------------------------------

 SCF Done:  E(RB3LYP) =  -153.818594424     A.U. after   13 cycles

 The electronic state is 1-A.
 Alpha  occ. eigenvalues --  -19.14696 -10.27557 -10.20374  -1.03273  -0.74556
 Alpha  occ. eigenvalues --   -0.60249  -0.47826  -0.43160  -0.42859  -0.39703
 Alpha  occ. eigenvalues --   -0.35403  -0.25457
 Alpha virt. eigenvalues --   -0.03159   0.10370   0.13709   0.14970   0.16195
 Alpha virt. eigenvalues --    0.25061   0.27933   0.52657   0.52978   0.58418
 Alpha virt. eigenvalues --    0.62309   0.65025   0.71271   0.73005   0.81530

 Mulliken charges:
               1
     1  C   -0.518954
     2  C    0.260079
     3  H    0.164192
     4  H    0.165292
     5  H    0.187196
     6  H    0.131586
     7  O   -0.389391
 Sum of Mulliken charges =   0.00000

 Dipole moment (field-independent basis, Debye):
    X=              2.3742    Y=              1.2877    Z=             -0.0243  Tot=              2.7010
 Quadrupole moment (field-independent basis, Debye-Ang):
   XX=            -20.4460   YY=            -17.5017   ZZ=            -17.6460
   XY=             -1.1350   XZ=              0.1437   YZ=              0.0912

 Normal termination of Gaussian 16 at Fri Sep 22 17:02:35 2023.
