 Gaussian 16, Revision A.03,
 Gaussian 16:  ES64L-G16RevA.03 25-Dec-2016

 ----------------
 # b3lyp/6-31g(d)
 ----------------

 -----------------------
 tmpdir/M2_conf_0_72.gjf
 -----------------------
 Symbolic Z-matrix:
 Charge =  0 Multiplicity = 1

                         Standard orientation:
 ---------------------------------------------------------------------
 Center     Atomic      Atomic             Coordinates (Angstroms)
 Number     Number       Type             X           Y           Z
 ---------------------------------------------------------------------
      1          6           0        0.706316    0.488303   -0.003463
      2          6           0       -0.696179    0.485165   -0.001621
      3          1           0        1.258265    1.434076    0.014504
      4          6           0        1.386720   -0.734207    0.000696
      5          6           0       -1.401108   -0.716765    0.001536
      6          1           0       -1.232762    1.430942    0.002611
 ---------------------------------------------------------------------

 SCF Done:  E(RB3LYP) =  -153.300223536     A.U. after   16 cycles

 The electronic state is 1-A.
 Alpha  occ. eigenvalues --  -10.27395 -10.27210 -10.23148 -10.22963  -0.84688
 Alpha  occ. eigenvalues --   -0.71958  -0.60637  -0.49571  -0.48913  -0.35834
 Alpha  occ. eigenvalues --   -0.31683  -0.29665  -0.24000
 Alpha virt. eigenvalues --   -0.13188  -0.09891  -0.06205   0.06666   0.10607
 Alpha virt. eigenvalues --    0.14536   0.25564   0.35127   0.37784   0.48229
 Alpha virt. eigenvalues --    0.50318   0.52974   0.55085   0.55912   0.58375

 Mulliken charges:
               1
     1  C   -0.210274
     2  C   -0.214539
     3  H    0.206197
     4  C    0.006361
     5  C    0.004694
     6  H    0.207560
 Sum of Mulliken charges =   0.00000

 Dipole moment (field-independent basis, Debye):
    X=              0.0726    Y=              3.4964    Z=              0.0168  Tot=              3.4972
 Quadrupole moment (field-independent basis, Debye-Ang):
   XX=            -24.2258   YY=            -23.4106   ZZ=            -25.3086
   XY=             -0.0321   XZ=              0.0313   YZ=              0.0408

 Normal termination of Gaussian 16 at Fri Sep 22 17:02:34 2023.
