 Gaussian 16, Revision A.03,
 Gaussian 16:  ES64L-G16RevA.03 25-Dec-2016

 ----------------
 # b3lyp/6-31g(d)
 ----------------

 -----------------------
 tmpdir/M2_conf_0_88.gjf
 -----------------------
 Symbolic Z-matrix:
 Charge =  0 Multiplicity = 1

                         Standard orientation:
 ---------------------------------------------------------------------
 Center     Atomic      Atomic             Coordinates (Angstroms)
 Number     Number       Type             X           Y           Z
 ---------------------------------------------------------------------
      1          6           0        0.548533   -0.013412   -0.000350
      2          1           0        1.105044    0.920557    0.000709
      3          8           0       -0.679692    0.007143    0.000078
      4          1           0        1.041290   -0.897229    0.000764
 ---------------------------------------------------------------------

 SCF Done:  E(RB3LYP) =  -114.492916250     A.U. after   11 cycles

 The electronic state is 1-A.
 Alpha  occ. eigenvalues --  -19.16413 -10.27811  -1.04560  -0.65306  -0.50898
 Alpha  occ. eigenvalues --   -0.44134  -0.38907  -0.26654
 Alpha virt. eigenvalues --   -0.04652   0.11703   0.19271   0.21720   0.51090
 Alpha virt. eigenvalues --    0.59712   0.63353   0.67054   0.84710   0.86256
 Alpha virt. eigenvalues --    0.94211   0.96296   1.06202   1.37159   1.50047

 Mulliken charges:
               1
     1  C    0.075337
     2  H    0.125926
     3  O   -0.344324
     4  H    0.143061
 Sum of Mulliken charges =  -0.00000

 Dipole moment (field-independent basis, Debye):
    X=              2.3320    Y=             -0.1026    Z=              0.0001  Tot=              2.3343
 Quadrupole moment (field-independent basis, Debye-Ang):
   XX=            -11.8377   YY=            -11.2940   ZZ=            -11.3296
   XY=             -0.0570   XZ=              0.0005   YZ=              0.0000

 Normal termination of Gaussian 16 at Fri Sep 22 17:02:44 2023.
