 Gaussian 16, Revision A.03,
 Gaussian 16:  ES64L-G16RevA.03 25-Dec-2016

 ----------------
 # b3lyp/6-31g(d)
 ----------------

 -----------------------
 tmpdir/M2_conf_0_39.gjf
 -----------------------
 Symbolic Z-matrix:
 Charge =  0 Multiplicity = 1

                         Standard orientation:
 ---------------------------------------------------------------------
 Center     Atomic      Atomic             Coordinates (Angstroms)
 Number     Number       Type             X           Y           Z
 ---------------------------------------------------------------------
      1          6           0        0.005417   -0.010908    0.000085
      2          1           0       -0.166804    0.562523    0.919164
      3          1           0        1.005829   -0.519068    0.043163
      4          1           0       -0.883196   -0.688399   -0.135368
      5          1           0        0.011666    0.710393   -0.827468
 ---------------------------------------------------------------------

 SCF Done:  E(RB3LYP) =  -40.5160110072     A.U. after    9 cycles

 The electronic state is 1-A.
 Alpha  occ. eigenvalues --  -10.17420  -0.68556  -0.39382  -0.38413  -0.37991
 Alpha virt. eigenvalues --    0.11236   0.16715   0.17094   0.17473   0.53154
 Alpha virt. eigenvalues --    0.53410   0.55185   0.87048   0.88385   0.89104
 Alpha virt. eigenvalues --    0.93343   1.09549   1.65833   1.66289   2.17960

 Mulliken charges:
               1
     1  C   -0.621334
     2  H    0.157422
     3  H    0.154541
     4  H    0.152334
     5  H    0.157038
 Sum of Mulliken charges =  -0.00000

 Dipole moment (field-independent basis, Debye):
    X=             -0.0170    Y=              0.0685    Z=              0.0032  Tot=              0.0706
 Quadrupole moment (field-independent basis, Debye-Ang):
   XX=             -8.0724   YY=             -8.4111   ZZ=             -8.4132
   XY=             -0.0144   XZ=             -0.0064   YZ=             -0.0014

 Normal termination of Gaussian 16 at Fri Sep 22 17:02:21 2023.
