 Gaussian 16, Revision A.03,
 Gaussian 16:  ES64L-G16RevA.03 25-Dec-2016

 ----------------
 # b3lyp/6-31g(d)
 ----------------

 -----------------------
 tmpdir/M2_conf_0_91.gjf
 -----------------------
 Symbolic Z-matrix:
 Charge =  0 Multiplicity = 1

                         Standard orientation:
 ---------------------------------------------------------------------
 Center     Atomic      Atomic             Coordinates (Angstroms)
 Number     Number       Type             X           Y           Z
 ---------------------------------------------------------------------
      1          6           0        0.699804    0.505785   -0.000149
      2          6           0       -0.697995    0.504628   -0.000553
      3          1           0       -1.241134    1.445858    0.001089
      4          8           0        1.311527   -0.560732    0.000040
      5          1           0        1.243476    1.446594    0.001146
      6          8           0       -1.313176   -0.558634    0.000208
 ---------------------------------------------------------------------

 SCF Done:  E(RB3LYP) =  -227.799107722     A.U. after   13 cycles

 The electronic state is 1-A.
 Alpha  occ. eigenvalues --  -19.18679 -19.18659 -10.29760 -10.29703  -1.08919
 Alpha  occ. eigenvalues --   -1.05064  -0.75354  -0.57651  -0.55465  -0.47078
 Alpha  occ. eigenvalues --   -0.45252  -0.44485  -0.37707  -0.30488  -0.27948
 Alpha virt. eigenvalues --   -0.13128   0.03674   0.10840   0.13700   0.17750
 Alpha virt. eigenvalues --    0.31589   0.38062   0.48323   0.51235   0.56523
 Alpha virt. eigenvalues --    0.58785   0.66012   0.66619   0.74357   0.81914

 Mulliken charges:
               1
     1  C    0.202085
     2  C    0.202850
     3  H    0.131853
     4  O   -0.334985
     5  H    0.133090
     6  O   -0.334893
 Sum of Mulliken charges =  -0.00000

 Dipole moment (field-independent basis, Debye):
    X=              0.0104    Y=              3.4792    Z=             -0.0006  Tot=              3.4792
 Quadrupole moment (field-independent basis, Debye-Ang):
   XX=            -25.3688   YY=            -21.3571   ZZ=            -20.7546
   XY=              0.0167   XZ=              0.0004   YZ=              0.0005

 Normal termination of Gaussian 16 at Fri Sep 22 17:02:46 2023.
