 Gaussian 16, Revision A.03,
 Gaussian 16:  ES64L-G16RevA.03 25-Dec-2016

 ----------------
 # b3lyp/6-31g(d)
 ----------------

 ------------------------
 tmpdir/M2_conf_0_101.gjf
 ------------------------
 Symbolic Z-matrix:
 Charge =  0 Multiplicity = 1

                         Standard orientation:
 ---------------------------------------------------------------------
 Center     Atomic      Atomic             Coordinates (Angstroms)
 Number     Number       Type             X           Y           Z
 ---------------------------------------------------------------------
      1          8           0       -0.740581    0.123018    0.000805
      2          6           0        0.667803   -0.022681    0.000636
      3          1           0       -1.230603   -0.723440    0.008398
      4          1           0        1.085837    0.979729   -0.123879
      5          1           0        1.053040   -0.447938    0.939240
      6          1           0        1.009556   -0.656409   -0.834020
 ---------------------------------------------------------------------

 SCF Done:  E(RB3LYP) =  -115.713016028     A.U. after   11 cycles

 The electronic state is 1-A.
 Alpha  occ. eigenvalues --  -19.13666 -10.22488  -1.00388  -0.67945  -0.50197
 Alpha  occ. eigenvalues --   -0.43255  -0.42169  -0.32002  -0.26168
 Alpha virt. eigenvalues --    0.07360   0.12924   0.16849   0.17607   0.20836
 Alpha virt. eigenvalues --    0.53650   0.56268   0.57785   0.78435   0.84993
 Alpha virt. eigenvalues --    0.86940   0.90217   0.95772   0.97684   1.01583

 Mulliken charges:
               1
     1  O   -0.616914
     2  C   -0.192334
     3  H    0.390926
     4  H    0.161641
     5  H    0.129262
     6  H    0.127419
 Sum of Mulliken charges =   0.00000

 Dipole moment (field-independent basis, Debye):
    X=              0.6024    Y=             -1.4919    Z=             -0.0068  Tot=              1.6089
 Quadrupole moment (field-independent basis, Debye-Ang):
   XX=            -12.1309   YY=            -12.1401   ZZ=            -13.5866
   XY=              2.3278   XZ=             -0.0288   YZ=             -0.0282

 Normal termination of Gaussian 16 at Fri Sep 22 17:02:52 2023.
