 Gaussian 16, Revision A.03,
 Gaussian 16:  ES64L-G16RevA.03 25-Dec-2016

 ----------------
 # b3lyp/6-31g(d)
 ----------------

 -----------------------
 tmpdir/M2_conf_0_73.gjf
 -----------------------
 Symbolic Z-matrix:
 Charge =  0 Multiplicity = 1

                         Standard orientation:
 ---------------------------------------------------------------------
 Center     Atomic      Atomic             Coordinates (Angstroms)
 Number     Number       Type             X           Y           Z
 ---------------------------------------------------------------------
      1          6           0       -0.699518   -0.009316   -0.003059
      2          6           0        0.699175   -0.006975    0.000895
      3          1           0       -1.258968    0.932100    0.011545
      4          1           0       -1.189566   -0.897941    0.001540
      5          1           0        1.215620   -0.876228    0.005184
      6          1           0        1.234970    0.939815   -0.005287
 ---------------------------------------------------------------------

 SCF Done:  E(RB3LYP) =  -78.5744293597     A.U. after   11 cycles

 The electronic state is 1-A.
 Alpha  occ. eigenvalues --  -10.18499 -10.18373  -0.74623  -0.59056  -0.47218
 Alpha  occ. eigenvalues --   -0.40295  -0.37174  -0.25534
 Alpha virt. eigenvalues --    0.00472   0.12296   0.16143   0.16668   0.24343
 Alpha virt. eigenvalues --    0.30829   0.49315   0.55785   0.55821   0.63251
 Alpha virt. eigenvalues --    0.65218   0.65567   0.87578   0.88166   0.95912

 Mulliken charges:
               1
     1  C   -0.295988
     2  C   -0.295968
     3  H    0.144520
     4  H    0.151309
     5  H    0.152352
     6  H    0.143776
 Sum of Mulliken charges =  -0.00000

 Dipole moment (field-independent basis, Debye):
    X=              0.0036    Y=             -0.0481    Z=              0.0119  Tot=              0.0497
 Quadrupole moment (field-independent basis, Debye-Ang):
   XX=            -11.9967   YY=            -11.9481   ZZ=            -15.0685
   XY=             -0.0454   XZ=             -0.0157   YZ=             -0.0003

 Normal termination of Gaussian 16 at Fri Sep 22 17:02:38 2023.
