 Gaussian 16, Revision A.03,
 Gaussian 16:  ES64L-G16RevA.03 25-Dec-2016

 ----------------
 # b3lyp/6-31g(d)
 ----------------

 -----------------------
 tmpdir/M2_conf_0_26.gjf
 -----------------------
 Symbolic Z-matrix:
 Charge =  0 Multiplicity = 1

                         Standard orientation:
 ---------------------------------------------------------------------
 Center     Atomic      Atomic             Coordinates (Angstroms)
 Number     Number       Type             X           Y           Z
 ---------------------------------------------------------------------
      1          6           0       -0.782693    0.014945   -0.011742
      2          6           0        0.772056    0.000454    0.004361
      3          1           0        1.082159   -0.697653    0.793369
      4          1           0       -1.166960   -0.954798   -0.352346
      5          1           0       -1.166279    0.165299    1.006994
      6          1           0       -1.076327    0.819824   -0.630094
      7          1           0        1.263830    0.995697    0.171350
      8          1           0        1.127397   -0.420764   -0.944987
 ---------------------------------------------------------------------

 SCF Done:  E(RB3LYP) =  -79.8258196629     A.U. after   10 cycles

 The electronic state is 1-A.
 Alpha  occ. eigenvalues --  -10.17501 -10.17014  -0.74500  -0.60975  -0.43725
 Alpha  occ. eigenvalues --   -0.42693  -0.35745  -0.34098  -0.33791
 Alpha virt. eigenvalues --    0.10238   0.15001   0.15749   0.16922   0.19129
 Alpha virt. eigenvalues --    0.20130   0.23047   0.51675   0.54208   0.55055
 Alpha virt. eigenvalues --    0.61745   0.65283   0.65836   0.87910   0.88619

 Mulliken charges:
               1
     1  C   -0.433686
     2  C   -0.436414
     3  H    0.142895
     4  H    0.145138
     5  H    0.142798
     6  H    0.155030
     7  H    0.140074
     8  H    0.144165
 Sum of Mulliken charges =  -0.00000

 Dipole moment (field-independent basis, Debye):
    X=             -0.0241    Y=             -0.0265    Z=             -0.0131  Tot=              0.0381
 Quadrupole moment (field-independent basis, Debye-Ang):
   XX=            -15.4748   YY=            -14.5078   ZZ=            -14.7664
   XY=              0.1743   XZ=             -0.0633   YZ=             -0.0472

 Normal termination of Gaussian 16 at Fri Sep 22 17:02:24 2023.
