 Gaussian 16, Revision A.03,
 Gaussian 16:  ES64L-G16RevA.03 25-Dec-2016

 ----------------
 # b3lyp/6-31g(d)
 ----------------

 -----------------------
 tmpdir/M2_conf_0_70.gjf
 -----------------------
 Symbolic Z-matrix:
 Charge =  0 Multiplicity = 1

                         Standard orientation:
 ---------------------------------------------------------------------
 Center     Atomic      Atomic             Coordinates (Angstroms)
 Number     Number       Type             X           Y           Z
 ---------------------------------------------------------------------
      1          1           0        1.798250    0.377847   -0.719563
      2          6           0        1.158370   -0.144924   -0.005306
      3          6           0       -0.236850    0.440068   -0.008956
      4          1           0        1.721410   -0.024521    1.017008
      5          1           0        1.135805   -1.204710   -0.290806
      6          1           0       -0.371820    1.445847   -0.006397
      7          8           0       -1.226595   -0.295665    0.010666
 ---------------------------------------------------------------------

 SCF Done:  E(RB3LYP) =  -153.818571211     A.U. after   13 cycles

 The electronic state is 1-A.
 Alpha  occ. eigenvalues --  -19.14668 -10.27524 -10.20362  -1.03259  -0.74628
 Alpha  occ. eigenvalues --   -0.60236  -0.47840  -0.43187  -0.42895  -0.39690
 Alpha  occ. eigenvalues --   -0.35377  -0.25444
 Alpha virt. eigenvalues --   -0.03150   0.10367   0.13670   0.14962   0.16253
 Alpha virt. eigenvalues --    0.25135   0.27980   0.52677   0.52994   0.58388
 Alpha virt. eigenvalues --    0.62343   0.65042   0.71275   0.73056   0.81513

 Mulliken charges:
               1
     1  H    0.165039
     2  C   -0.518693
     3  C    0.260321
     4  H    0.164468
     5  H    0.187295
     6  H    0.131391
     7  O   -0.389820
 Sum of Mulliken charges =  -0.00000

 Dipole moment (field-independent basis, Debye):
    X=              2.3810    Y=              1.2854    Z=             -0.0245  Tot=              2.7059
 Quadrupole moment (field-independent basis, Debye-Ang):
   XX=            -20.4508   YY=            -17.4973   ZZ=            -17.6423
   XY=             -1.1333   XZ=              0.1480   YZ=              0.0907

 Normal termination of Gaussian 16 at Fri Sep 22 17:02:34 2023.
