 Gaussian 16, Revision A.03,
 Gaussian 16:  ES64L-G16RevA.03 25-Dec-2016

 ----------------
 # b3lyp/6-31g(d)
 ----------------

 -----------------------
 tmpdir/M2_conf_0_77.gjf
 -----------------------
 Symbolic Z-matrix:
 Charge =  0 Multiplicity = 1

                         Standard orientation:
 ---------------------------------------------------------------------
 Center     Atomic      Atomic             Coordinates (Angstroms)
 Number     Number       Type             X           Y           Z
 ---------------------------------------------------------------------
      1          6           0        0.696273   -0.008103   -0.000736
      2          6           0       -0.697726   -0.008695    0.000422
      3          1           0        1.212005   -0.882084   -0.000592
      4          1           0        1.240237    0.933451    0.003457
      5          1           0       -1.204834   -0.884360    0.001566
      6          1           0       -1.238689    0.933783   -0.002546
 ---------------------------------------------------------------------

 SCF Done:  E(RB3LYP) =  -78.5752761275     A.U. after   10 cycles

 The electronic state is 1-A.
 Alpha  occ. eigenvalues --  -10.18369 -10.18306  -0.74719  -0.59103  -0.47257
 Alpha  occ. eigenvalues --   -0.40427  -0.37137  -0.25601
 Alpha virt. eigenvalues --    0.00565   0.12407   0.16195   0.16751   0.24404
 Alpha virt. eigenvalues --    0.31033   0.49245   0.55671   0.55781   0.63302
 Alpha virt. eigenvalues --    0.65255   0.65838   0.87982   0.88188   0.96076

 Mulliken charges:
               1
     1  C   -0.296138
     2  C   -0.295261
     3  H    0.151540
     4  H    0.143881
     5  H    0.151659
     6  H    0.144319
 Sum of Mulliken charges =  -0.00000

 Dipole moment (field-independent basis, Debye):
    X=              0.0016    Y=             -0.0438    Z=              0.0017  Tot=              0.0439
 Quadrupole moment (field-independent basis, Debye-Ang):
   XX=            -11.9800   YY=            -11.9605   ZZ=            -15.0465
   XY=             -0.0044   XZ=              0.0045   YZ=             -0.0001

 Normal termination of Gaussian 16 at Fri Sep 22 17:02:48 2023.
