 Gaussian 16, Revision A.03,
 Gaussian 16:  ES64L-G16RevA.03 25-Dec-2016

 ----------------
 # b3lyp/6-31g(d)
 ----------------

 ----------------------
 tmpdir/M2_conf_0_0.gjf
 ----------------------
 Symbolic Z-matrix:
 Charge =  0 Multiplicity = 1

                         Standard orientation:
 ---------------------------------------------------------------------
 Center     Atomic      Atomic             Coordinates (Angstroms)
 Number     Number       Type             X           Y           Z
 ---------------------------------------------------------------------
      1          6           0        0.777742   -0.004350   -0.016957
      2          6           0       -0.777925    0.005697   -0.016522
      3          1           0        1.318569    0.796979   -0.588160
      4          1           0        1.138983   -0.990234   -0.340851
      5          1           0        1.098510    0.091572    1.027808
      6          1           0       -1.316562   -0.774466   -0.617721
      7          1           0       -1.141063    1.001396   -0.304216
      8          1           0       -1.097339   -0.133328    1.024016
 ---------------------------------------------------------------------

 SCF Done:  E(RB3LYP) =  -79.8218023637     A.U. after   10 cycles

 The electronic state is 1-A.
 Alpha  occ. eigenvalues --  -10.17690 -10.17673  -0.74173  -0.61090  -0.42743
 Alpha  occ. eigenvalues --   -0.42516  -0.36446  -0.33801  -0.33224
 Alpha virt. eigenvalues --    0.10288   0.13132   0.13379   0.15463   0.22017
 Alpha virt. eigenvalues --    0.23047   0.23723   0.52014   0.53867   0.53936
 Alpha virt. eigenvalues --    0.65265   0.66594   0.70349   0.85594   0.86087

 Mulliken charges:
               1
     1  C   -0.439024
     2  C   -0.438869
     3  H    0.144185
     4  H    0.147677
     5  H    0.147017
     6  H    0.144164
     7  H    0.147891
     8  H    0.146959
 Sum of Mulliken charges =  -0.00000

 Dipole moment (field-independent basis, Debye):
    X=             -0.0002    Y=             -0.0033    Z=              0.1099  Tot=              0.1100
 Quadrupole moment (field-independent basis, Debye-Ang):
   XX=            -15.1697   YY=            -14.6447   ZZ=            -14.9048
   XY=              0.1759   XZ=              0.0053   YZ=             -0.0011

 Normal termination of Gaussian 16 at Fri Sep 22 17:02:16 2023.
