 Gaussian 16, Revision A.03,
 Gaussian 16:  ES64L-G16RevA.03 25-Dec-2016

 ----------------
 # b3lyp/6-31g(d)
 ----------------

 ------------------------
 tmpdir/M2_conf_0_110.gjf
 ------------------------
 Symbolic Z-matrix:
 Charge =  0 Multiplicity = 1

                         Standard orientation:
 ---------------------------------------------------------------------
 Center     Atomic      Atomic             Coordinates (Angstroms)
 Number     Number       Type             X           Y           Z
 ---------------------------------------------------------------------
      1          1           0       -0.042441   -0.311299    1.041448
      2          6           0        0.003667    0.000494   -0.005331
      3          1           0        0.499118    0.983400   -0.064386
      4          1           0       -1.092032    0.052776   -0.384733
      5          1           0        0.613352   -0.727840   -0.560343
 ---------------------------------------------------------------------

 SCF Done:  E(RB3LYP) =  -40.5151766906     A.U. after    9 cycles

 The electronic state is 1-A.
 Alpha  occ. eigenvalues --  -10.17549  -0.68474  -0.39192  -0.38680  -0.37795
 Alpha virt. eigenvalues --    0.11099   0.16161   0.17283   0.17622   0.53152
 Alpha virt. eigenvalues --    0.53370   0.55456   0.85512   0.88891   0.89478
 Alpha virt. eigenvalues --    0.93032   1.09271   1.65968   1.66256   2.16701

 Mulliken charges:
               1
     1  H    0.158922
     2  C   -0.618535
     3  H    0.157727
     4  H    0.143328
     5  H    0.158559
 Sum of Mulliken charges =  -0.00000

 Dipole moment (field-independent basis, Debye):
    X=              0.0469    Y=             -0.0096    Z=              0.0505  Tot=              0.0696
 Quadrupole moment (field-independent basis, Debye-Ang):
   XX=             -8.1553   YY=             -8.3424   ZZ=             -8.4205
   XY=              0.0038   XZ=             -0.0514   YZ=              0.0033

 Normal termination of Gaussian 16 at Fri Sep 22 17:02:52 2023.
