 Gaussian 16, Revision A.03,
 Gaussian 16:  ES64L-G16RevA.03 25-Dec-2016

 ----------------
 # b3lyp/6-31g(d)
 ----------------

 -----------------------
 tmpdir/M2_conf_0_24.gjf
 -----------------------
 Symbolic Z-matrix:
 Charge =  0 Multiplicity = 1

                         Standard orientation:
 ---------------------------------------------------------------------
 Center     Atomic      Atomic             Coordinates (Angstroms)
 Number     Number       Type             X           Y           Z
 ---------------------------------------------------------------------
      1          6           0       -0.774588   -0.001228   -0.015163
      2          6           0        0.776278    0.007674   -0.010022
      3          1           0        1.126263   -0.520280    0.887094
      4          1           0       -1.315893    0.852916   -0.524839
      5          1           0       -1.131455   -0.958108   -0.418985
      6          1           0       -1.085550    0.007025    1.037122
      7          1           0        1.267435   -0.463705   -0.906426
      8          1           0        1.129061    1.043481    0.077144
 ---------------------------------------------------------------------

 SCF Done:  E(RB3LYP) =  -79.8245153672     A.U. after   10 cycles

 The electronic state is 1-A.
 Alpha  occ. eigenvalues --  -10.17757 -10.17738  -0.74265  -0.60917  -0.42772
 Alpha  occ. eigenvalues --   -0.42641  -0.36157  -0.33837  -0.33586
 Alpha virt. eigenvalues --    0.10202   0.13791   0.14348   0.15790   0.20301
 Alpha virt. eigenvalues --    0.21310   0.23555   0.51781   0.54201   0.54435
 Alpha virt. eigenvalues --    0.64902   0.65815   0.66712   0.86569   0.86930

 Mulliken charges:
               1
     1  C   -0.433570
     2  C   -0.433032
     3  H    0.146720
     4  H    0.140622
     5  H    0.146388
     6  H    0.145635
     7  H    0.140502
     8  H    0.146736
 Sum of Mulliken charges =   0.00000

 Dipole moment (field-independent basis, Debye):
    X=              0.0021    Y=             -0.0232    Z=              0.1022  Tot=              0.1048
 Quadrupole moment (field-independent basis, Debye-Ang):
   XX=            -15.2699   YY=            -14.7135   ZZ=            -14.8213
   XY=             -0.1288   XZ=              0.0160   YZ=             -0.0031

 Normal termination of Gaussian 16 at Fri Sep 22 17:02:16 2023.
