 Gaussian 16, Revision A.03,
 Gaussian 16:  ES64L-G16RevA.03 25-Dec-2016

 ----------------
 # b3lyp/6-31g(d)
 ----------------

 -----------------------
 tmpdir/M2_conf_0_55.gjf
 -----------------------
 Symbolic Z-matrix:
 Charge =  0 Multiplicity = 1

                         Standard orientation:
 ---------------------------------------------------------------------
 Center     Atomic      Atomic             Coordinates (Angstroms)
 Number     Number       Type             X           Y           Z
 ---------------------------------------------------------------------
      1          6           0       -0.618892   -0.063036    0.010496
      2          6           0        0.616972   -0.052188   -0.011078
      3          1           0       -1.589148    0.359737   -0.023323
      4          1           0        1.600673    0.331607    0.026813
 ---------------------------------------------------------------------

 SCF Done:  E(RB3LYP) =  -77.3111492132     A.U. after   11 cycles

 The electronic state is 1-A.
 Alpha  occ. eigenvalues --  -10.19824 -10.19615  -0.74025  -0.56694  -0.48755
 Alpha  occ. eigenvalues --   -0.27832  -0.27788
 Alpha virt. eigenvalues --   -0.00586   0.04271   0.14792   0.15363   0.41445
 Alpha virt. eigenvalues --    0.47424   0.53721   0.53843   0.61513   0.64771
 Alpha virt. eigenvalues --    0.73711   0.83194   0.92958   1.12438   1.17538

 Mulliken charges:
               1
     1  C   -0.207867
     2  C   -0.187526
     3  H    0.198281
     4  H    0.197112
 Sum of Mulliken charges =   0.00000

 Dipole moment (field-independent basis, Debye):
    X=              0.0410    Y=              0.7799    Z=              0.0037  Tot=              0.7810
 Quadrupole moment (field-independent basis, Debye-Ang):
   XX=             -7.4558   YY=            -12.7149   ZZ=            -13.1393
   XY=             -0.0632   XZ=              0.1153   YZ=              0.0004

 Normal termination of Gaussian 16 at Fri Sep 22 17:02:33 2023.
