 Gaussian 16, Revision A.03,
 Gaussian 16:  ES64L-G16RevA.03 25-Dec-2016

 ----------------
 # b3lyp/6-31g(d)
 ----------------

 ------------------------
 tmpdir/M2_conf_0_104.gjf
 ------------------------
 Symbolic Z-matrix:
 Charge =  0 Multiplicity = 1

                         Standard orientation:
 ---------------------------------------------------------------------
 Center     Atomic      Atomic             Coordinates (Angstroms)
 Number     Number       Type             X           Y           Z
 ---------------------------------------------------------------------
      1          6           0        0.003648    0.000179   -0.005671
      2          1           0        0.605344   -0.753407   -0.533223
      3          1           0       -1.094495    0.041803   -0.379264
      4          1           0       -0.036285   -0.266815    1.053676
      5          1           0        0.503546    0.977345   -0.107165
 ---------------------------------------------------------------------

 SCF Done:  E(RB3LYP) =  -40.5151788285     A.U. after    9 cycles

 The electronic state is 1-A.
 Alpha  occ. eigenvalues --  -10.17540  -0.68482  -0.39185  -0.38691  -0.37802
 Alpha virt. eigenvalues --    0.11103   0.16166   0.17301   0.17621   0.53142
 Alpha virt. eigenvalues --    0.53360   0.55454   0.85514   0.88927   0.89479
 Alpha virt. eigenvalues --    0.93080   1.09289   1.65969   1.66237   2.16701

 Mulliken charges:
               1
     1  C   -0.618653
     2  H    0.158785
     3  H    0.143337
     4  H    0.158843
     5  H    0.157689
 Sum of Mulliken charges =  -0.00000

 Dipole moment (field-independent basis, Debye):
    X=              0.0475    Y=             -0.0082    Z=              0.0511  Tot=              0.0703
 Quadrupole moment (field-independent basis, Debye-Ang):
   XX=             -8.1547   YY=             -8.3413   ZZ=             -8.4204
   XY=              0.0013   XZ=             -0.0512   YZ=              0.0041

 Normal termination of Gaussian 16 at Fri Sep 22 17:02:51 2023.
