 Gaussian 16, Revision A.03,
 Gaussian 16:  ES64L-G16RevA.03 25-Dec-2016

 ----------------
 # b3lyp/6-31g(d)
 ----------------

 -----------------------
 tmpdir/M2_conf_0_74.gjf
 -----------------------
 Symbolic Z-matrix:
 Charge =  0 Multiplicity = 1

                         Standard orientation:
 ---------------------------------------------------------------------
 Center     Atomic      Atomic             Coordinates (Angstroms)
 Number     Number       Type             X           Y           Z
 ---------------------------------------------------------------------
      1          6           0       -1.725969   -0.513326   -0.001907
      2          6           0       -0.360700    0.138468   -0.010246
      3          6           0        0.801264   -0.645844   -0.008978
      4          1           0       -2.006037   -1.008646    1.024178
      5          1           0       -1.770868   -1.341024   -0.713103
      6          1           0       -2.500446    0.211669   -0.284293
      7          8           0       -0.250879    1.366842    0.007486
      8          8           0        1.910289   -0.117848    0.007158
      9          1           0        0.714494   -1.729747   -0.017145
 ---------------------------------------------------------------------

 SCF Done:  E(RB3LYP) =  -267.123671135     A.U. after   13 cycles

 The electronic state is 1-A.
 Alpha  occ. eigenvalues --  -19.17970 -19.16774 -10.29330 -10.29101 -10.21812
 Alpha  occ. eigenvalues --   -1.07948  -1.04005  -0.78536  -0.69706  -0.55874
 Alpha  occ. eigenvalues --   -0.50838  -0.47147  -0.46670  -0.42814  -0.41767
 Alpha  occ. eigenvalues --   -0.40829  -0.35882  -0.29403  -0.26832
 Alpha virt. eigenvalues --   -0.11810   0.03291   0.08617   0.12874   0.13128
 Alpha virt. eigenvalues --    0.15848   0.21493   0.22331   0.34137   0.38822
 Alpha virt. eigenvalues --    0.48742   0.49137   0.55521   0.57368   0.62851

 Mulliken charges:
               1
     1  C   -0.550472
     2  C    0.429092
     3  C    0.185343
     4  H    0.174642
     5  H    0.172509
     6  H    0.197887
     7  O   -0.396168
     8  O   -0.339850
     9  H    0.127017
 Sum of Mulliken charges =  -0.00000

 Dipole moment (field-independent basis, Debye):
    X=             -2.6209    Y=             -3.1555    Z=             -0.0375  Tot=              4.1022
 Quadrupole moment (field-independent basis, Debye-Ang):
   XX=            -31.3213   YY=            -30.2012   ZZ=            -27.0087
   XY=              0.3463   XZ=             -0.0518   YZ=             -0.1624

 Normal termination of Gaussian 16 at Fri Sep 22 17:02:47 2023.
