 Gaussian 16, Revision A.03,
 Gaussian 16:  ES64L-G16RevA.03 25-Dec-2016

 ----------------
 # b3lyp/6-31g(d)
 ----------------

 -----------------------
 tmpdir/M2_conf_0_81.gjf
 -----------------------
 Symbolic Z-matrix:
 Charge =  0 Multiplicity = 1

                         Standard orientation:
 ---------------------------------------------------------------------
 Center     Atomic      Atomic             Coordinates (Angstroms)
 Number     Number       Type             X           Y           Z
 ---------------------------------------------------------------------
      1          6           0       -0.698011   -0.008201    0.000422
      2          6           0        0.695388   -0.007915   -0.000732
      3          1           0        1.248890    0.928057    0.003437
      4          1           0       -1.205311   -0.883749    0.001553
      5          1           0       -1.238767    0.934397   -0.002528
      6          1           0        1.210928   -0.882013   -0.000602
 ---------------------------------------------------------------------

 SCF Done:  E(RB3LYP) =  -78.5753794468     A.U. after   10 cycles

 The electronic state is 1-A.
 Alpha  occ. eigenvalues --  -10.18368 -10.18309  -0.74725  -0.59128  -0.47214
 Alpha  occ. eigenvalues --   -0.40496  -0.37103  -0.25611
 Alpha virt. eigenvalues --    0.00572   0.12448   0.16174   0.16726   0.24416
 Alpha virt. eigenvalues --    0.31094   0.49254   0.55591   0.55774   0.63302
 Alpha virt. eigenvalues --    0.65283   0.65853   0.87978   0.88185   0.96132

 Mulliken charges:
               1
     1  C   -0.295078
     2  C   -0.296419
     3  H    0.143951
     4  H    0.151774
     5  H    0.144354
     6  H    0.151418
 Sum of Mulliken charges =   0.00000

 Dipole moment (field-independent basis, Debye):
    X=              0.0040    Y=             -0.0450    Z=              0.0017  Tot=              0.0452
 Quadrupole moment (field-independent basis, Debye-Ang):
   XX=            -11.9610   YY=            -11.9746   ZZ=            -15.0443
   XY=              0.0044   XZ=              0.0045   YZ=             -0.0001

 Normal termination of Gaussian 16 at Fri Sep 22 17:02:37 2023.
