 Gaussian 16, Revision A.03,
 Gaussian 16:  ES64L-G16RevA.03 25-Dec-2016

 ----------------
 # b3lyp/6-31g(d)
 ----------------

 -----------------------
 tmpdir/M2_conf_0_30.gjf
 -----------------------
 Symbolic Z-matrix:
 Charge =  0 Multiplicity = 1

                         Standard orientation:
 ---------------------------------------------------------------------
 Center     Atomic      Atomic             Coordinates (Angstroms)
 Number     Number       Type             X           Y           Z
 ---------------------------------------------------------------------
      1          6           0        1.156327    0.034375    0.003691
      2          6           0       -0.301186   -0.171815   -0.029532
      3          1           0        1.339113    1.119655   -0.232406
      4          1           0        1.699812   -0.603999   -0.704244
      5          1           0        1.545932   -0.202048    1.003635
      6          7           0       -1.387958    0.073005    0.012580
 ---------------------------------------------------------------------

 SCF Done:  E(RB3LYP) =  -132.742587662     A.U. after   13 cycles

 The electronic state is 1-A.
 Alpha  occ. eigenvalues --  -14.32361 -10.24211 -10.22066  -0.92064  -0.76828
 Alpha  occ. eigenvalues --   -0.50793  -0.46197  -0.45860  -0.35793  -0.33644
 Alpha  occ. eigenvalues --   -0.33378
 Alpha virt. eigenvalues --    0.02487   0.05109   0.09256   0.14127   0.16155
 Alpha virt. eigenvalues --    0.22551   0.30145   0.52387   0.53247   0.56798
 Alpha virt. eigenvalues --    0.61996   0.62320   0.69026   0.75813   0.80488

 Mulliken charges:
               1
     1  C   -0.522707
     2  C    0.289983
     3  H    0.208634
     4  H    0.197648
     5  H    0.204243
     6  N   -0.377800
 Sum of Mulliken charges =  -0.00000

 Dipole moment (field-independent basis, Debye):
    X=              3.6242    Y=             -0.1102    Z=             -0.0017  Tot=              3.6259
 Quadrupole moment (field-independent basis, Debye-Ang):
   XX=            -20.2957   YY=            -17.0477   ZZ=            -17.2315
   XY=              0.2395   XZ=              0.0806   YZ=             -0.0587

 Normal termination of Gaussian 16 at Fri Sep 22 17:02:16 2023.
