 Gaussian 16, Revision A.03,
 Gaussian 16:  ES64L-G16RevA.03 25-Dec-2016

 ----------------
 # b3lyp/6-31g(d)
 ----------------

 -----------------------
 tmpdir/M2_conf_0_28.gjf
 -----------------------
 Symbolic Z-matrix:
 Charge =  0 Multiplicity = 1

                         Standard orientation:
 ---------------------------------------------------------------------
 Center     Atomic      Atomic             Coordinates (Angstroms)
 Number     Number       Type             X           Y           Z
 ---------------------------------------------------------------------
      1          6           0       -0.001466   -0.001797    0.009670
      2          1           0       -0.697781    0.786343    0.318564
      3          1           0        0.876319    0.446497   -0.533936
      4          1           0       -0.558632   -0.667689   -0.663923
      5          1           0        0.388887   -0.554369    0.821274
 ---------------------------------------------------------------------

 SCF Done:  E(RB3LYP) =  -40.5163165849     A.U. after    9 cycles

 The electronic state is 1-A.
 Alpha  occ. eigenvalues --  -10.16740  -0.69046  -0.40140  -0.38403  -0.38132
 Alpha virt. eigenvalues --    0.11697   0.16930   0.17267   0.18648   0.52511
 Alpha virt. eigenvalues --    0.53249   0.54437   0.87825   0.88908   0.91631
 Alpha virt. eigenvalues --    0.95527   1.09723   1.65584   1.66129   2.21029

 Mulliken charges:
               1
     1  C   -0.627407
     2  H    0.157261
     3  H    0.147943
     4  H    0.155063
     5  H    0.167140
 Sum of Mulliken charges =  -0.00000

 Dipole moment (field-independent basis, Debye):
    X=             -0.0060    Y=             -0.0253    Z=              0.0155  Tot=              0.0303
 Quadrupole moment (field-independent basis, Debye-Ang):
   XX=             -8.1219   YY=             -8.2852   ZZ=             -8.3575
   XY=             -0.0556   XZ=              0.0580   YZ=             -0.0312

 Normal termination of Gaussian 16 at Fri Sep 22 17:02:16 2023.
