 Gaussian 16, Revision A.03,
 Gaussian 16:  ES64L-G16RevA.03 25-Dec-2016

 ----------------
 # b3lyp/6-31g(d)
 ----------------

 -----------------------
 tmpdir/M2_conf_0_76.gjf
 -----------------------
 Symbolic Z-matrix:
 Charge =  0 Multiplicity = 1

                         Standard orientation:
 ---------------------------------------------------------------------
 Center     Atomic      Atomic             Coordinates (Angstroms)
 Number     Number       Type             X           Y           Z
 ---------------------------------------------------------------------
      1          6           0       -0.799938    0.481305   -0.001651
      2          6           0        0.591629    0.651187   -0.003398
      3          6           0        1.414405   -0.480409    0.000761
      4          8           0       -1.290936   -0.644693    0.001057
      5          1           0       -1.445220    1.356542    0.002579
      6          1           0        1.027151    1.655902    0.014636
      7          1           0        1.013504   -1.408635    0.001929
      8          1           0        2.495478   -0.358763   -0.001872
 ---------------------------------------------------------------------

 SCF Done:  E(RB3LYP) =  -191.895816856     A.U. after   14 cycles

 The electronic state is 1-A.
 Alpha  occ. eigenvalues --  -19.13661 -10.26597 -10.21716 -10.20840  -1.03163
 Alpha  occ. eigenvalues --   -0.79115  -0.67214  -0.55021  -0.51648  -0.44603
 Alpha  occ. eigenvalues --   -0.41777  -0.39423  -0.39170  -0.27478  -0.25344
 Alpha virt. eigenvalues --   -0.07944   0.06953   0.10469   0.14012   0.16505
 Alpha virt. eigenvalues --    0.19985   0.25340   0.31112   0.35727   0.51484
 Alpha virt. eigenvalues --    0.52797   0.57575   0.57965   0.59587   0.63221

 Mulliken charges:
               1
     1  C    0.224219
     2  C   -0.143612
     3  C   -0.272119
     4  O   -0.417814
     5  H    0.111569
     6  H    0.141502
     7  H    0.195572
     8  H    0.160682
 Sum of Mulliken charges =  -0.00000

 Dipole moment (field-independent basis, Debye):
    X=              2.1341    Y=              1.6515    Z=              0.0079  Tot=              2.6984
 Quadrupole moment (field-independent basis, Debye-Ang):
   XX=            -23.3625   YY=            -21.9622   ZZ=            -24.2132
   XY=             -2.9925   XZ=              0.0163   YZ=              0.0208

 Normal termination of Gaussian 16 at Fri Sep 22 17:02:45 2023.
