 Gaussian 16, Revision A.03,
 Gaussian 16:  ES64L-G16RevA.03 25-Dec-2016

 ----------------
 # b3lyp/6-31g(d)
 ----------------

 -----------------------
 tmpdir/M2_conf_0_48.gjf
 -----------------------
 Symbolic Z-matrix:
 Charge =  0 Multiplicity = 1

                         Standard orientation:
 ---------------------------------------------------------------------
 Center     Atomic      Atomic             Coordinates (Angstroms)
 Number     Number       Type             X           Y           Z
 ---------------------------------------------------------------------
      1          6           0        0.675137    0.016811   -0.005794
      2          8           0       -0.749843   -0.126816   -0.005304
      3          1           0        1.088203    0.186624    1.027410
      4          1           0        0.948451    0.873920   -0.647425
      5          1           0        1.144977   -0.858457   -0.372424
      6          1           0       -1.233714    0.711575    0.069637
 ---------------------------------------------------------------------

 SCF Done:  E(RB3LYP) =  -115.710226224     A.U. after   11 cycles

 The electronic state is 1-A.
 Alpha  occ. eigenvalues --  -19.13537 -10.22620  -0.99994  -0.68208  -0.49777
 Alpha  occ. eigenvalues --   -0.43150  -0.42620  -0.31877  -0.26072
 Alpha virt. eigenvalues --    0.07218   0.12735   0.17098   0.17811   0.20109
 Alpha virt. eigenvalues --    0.53096   0.55629   0.57995   0.79422   0.84044
 Alpha virt. eigenvalues --    0.87655   0.90180   0.95955   0.97555   1.02245

 Mulliken charges:
               1
     1  C   -0.191892
     2  O   -0.624421
     3  H    0.124407
     4  H    0.128189
     5  H    0.169247
     6  H    0.394470
 Sum of Mulliken charges =  -0.00000

 Dipole moment (field-independent basis, Debye):
    X=              0.6680    Y=              1.4904    Z=              0.0453  Tot=              1.6339
 Quadrupole moment (field-independent basis, Debye-Ang):
   XX=            -12.0334   YY=            -12.2005   ZZ=            -13.5762
   XY=             -2.4160   XZ=             -0.2733   YZ=              0.1109

 Normal termination of Gaussian 16 at Fri Sep 22 17:02:27 2023.
