 Gaussian 16, Revision A.03,
 Gaussian 16:  ES64L-G16RevA.03 25-Dec-2016

 ----------------
 # b3lyp/6-31g(d)
 ----------------

 --------------------
 tmpdir/M2_ref_13.gjf
 --------------------
 Symbolic Z-matrix:
 Charge =  0 Multiplicity = 1

                         Standard orientation:
 ---------------------------------------------------------------------
 Center     Atomic      Atomic             Coordinates (Angstroms)
 Number     Number       Type             X           Y           Z
 ---------------------------------------------------------------------
      1          6           0       -1.340124   -0.247425    0.014357
      2          6           0        0.007028    0.547772    0.013299
      3          6           0        1.335327   -0.252720    0.010708
      4          1           0       -1.948136   -0.270304    0.958161
      5          1           0       -1.160446   -1.275639   -0.328871
      6          1           0       -1.979497    0.205494   -0.753547
      7          1           0        0.014774    1.262410    0.847075
      8          1           0        0.015201    1.159702   -0.897437
      9          1           0        1.726788   -0.546874    1.024202
     10          1           0        1.205488   -1.161595   -0.590909
     11          1           0        2.112442    0.341039   -0.488859
 ---------------------------------------------------------------------

 SCF Done:  E(RB3LYP) =  -119.133420269     A.U. after   11 cycles

 The electronic state is 1-A.
 Alpha  occ. eigenvalues --  -10.18131 -10.17479 -10.17465  -0.76561  -0.67489
 Alpha  occ. eigenvalues --   -0.57920  -0.44524  -0.42728  -0.39026  -0.37792
 Alpha  occ. eigenvalues --   -0.33543  -0.32639  -0.31864
 Alpha virt. eigenvalues --    0.09488   0.12230   0.13746   0.14208   0.17011
 Alpha virt. eigenvalues --    0.18232   0.18646   0.23419   0.24978   0.28303
 Alpha virt. eigenvalues --    0.50765   0.52554   0.53695   0.60226   0.62032

 Mulliken charges:
               1
     1  C   -0.448120
     2  C   -0.241331
     3  C   -0.441609
     4  H    0.142781
     5  H    0.143728
     6  H    0.144928
     7  H    0.137660
     8  H    0.136470
     9  H    0.139717
    10  H    0.142074
    11  H    0.143701
 Sum of Mulliken charges =  -0.00000

 Dipole moment (field-independent basis, Debye):
    X=             -0.0096    Y=              0.1012    Z=             -0.1074  Tot=              0.1478
 Quadrupole moment (field-independent basis, Debye-Ang):
   XX=            -21.7940   YY=            -21.6908   ZZ=            -21.1915
   XY=              0.0301   XZ=             -0.0619   YZ=             -0.0023

 Normal termination of Gaussian 16 at Fri Sep 22 17:01:39 2023.
