 Gaussian 16, Revision A.03,
 Gaussian 16:  ES64L-G16RevA.03 25-Dec-2016

 ----------------
 # b3lyp/6-31g(d)
 ----------------

 --------------------
 tmpdir/M2_ref_91.gjf
 --------------------
 Symbolic Z-matrix:
 Charge =  0 Multiplicity = 1

                         Standard orientation:
 ---------------------------------------------------------------------
 Center     Atomic      Atomic             Coordinates (Angstroms)
 Number     Number       Type             X           Y           Z
 ---------------------------------------------------------------------
      1          6           0        0.699853    0.505859   -0.000147
      2          6           0       -0.697991    0.504615   -0.000547
      3          1           0       -1.243293    1.444616    0.001116
      4          8           0        1.311735   -0.560596    0.000044
      5          1           0        1.243506    1.446716    0.001096
      6          8           0       -1.313158   -0.558676    0.000201
 ---------------------------------------------------------------------

 SCF Done:  E(RB3LYP) =  -227.799101526     A.U. after   13 cycles

 The electronic state is 1-A.
 Alpha  occ. eigenvalues --  -19.18682 -19.18653 -10.29764 -10.29703  -1.08917
 Alpha  occ. eigenvalues --   -1.05063  -0.75347  -0.57653  -0.55469  -0.47075
 Alpha  occ. eigenvalues --   -0.45250  -0.44482  -0.37706  -0.30484  -0.27947
 Alpha virt. eigenvalues --   -0.13128   0.03673   0.10843   0.13691   0.17748
 Alpha virt. eigenvalues --    0.31604   0.38051   0.48323   0.51218   0.56522
 Alpha virt. eigenvalues --    0.58781   0.66011   0.66637   0.74364   0.81920

 Mulliken charges:
               1
     1  C    0.202144
     2  C    0.202607
     3  H    0.131960
     4  O   -0.334992
     5  H    0.133100
     6  O   -0.334819
 Sum of Mulliken charges =  -0.00000

 Dipole moment (field-independent basis, Debye):
    X=              0.0096    Y=              3.4793    Z=             -0.0006  Tot=              3.4793
 Quadrupole moment (field-independent basis, Debye-Ang):
   XX=            -25.3655   YY=            -21.3587   ZZ=            -20.7550
   XY=              0.0146   XZ=              0.0004   YZ=              0.0005

 Normal termination of Gaussian 16 at Fri Sep 22 17:02:03 2023.
