 Gaussian 16, Revision A.03,
 Gaussian 16:  ES64L-G16RevA.03 25-Dec-2016

 ----------------
 # b3lyp/6-31g(d)
 ----------------

 --------------------
 tmpdir/M2_ref_46.gjf
 --------------------
 Symbolic Z-matrix:
 Charge =  0 Multiplicity = 1

                         Standard orientation:
 ---------------------------------------------------------------------
 Center     Atomic      Atomic             Coordinates (Angstroms)
 Number     Number       Type             X           Y           Z
 ---------------------------------------------------------------------
      1          6           0        0.000217    0.000203    0.004319
      2          1           0       -0.090630    1.058813   -0.299019
      3          1           0       -0.720950   -0.617214   -0.600458
      4          1           0       -0.298540   -0.100886    1.015116
      5          1           0        1.108819   -0.341930   -0.141550
 ---------------------------------------------------------------------

 SCF Done:  E(RB3LYP) =  -40.5131697344     A.U. after    9 cycles

 The electronic state is 1-A.
 Alpha  occ. eigenvalues --  -10.17567  -0.68520  -0.39409  -0.38281  -0.37951
 Alpha virt. eigenvalues --    0.10979   0.15957   0.16867   0.18244   0.52398
 Alpha virt. eigenvalues --    0.53851   0.55802   0.85043   0.87641   0.89641
 Alpha virt. eigenvalues --    0.94826   1.09264   1.65932   1.66219   2.15477

 Mulliken charges:
               1
     1  C   -0.617454
     2  H    0.156623
     3  H    0.150750
     4  H    0.168496
     5  H    0.141586
 Sum of Mulliken charges =  -0.00000

 Dipole moment (field-independent basis, Debye):
    X=             -0.0634    Y=              0.0290    Z=              0.0526  Tot=              0.0874
 Quadrupole moment (field-independent basis, Debye-Ang):
   XX=             -8.1587   YY=             -8.3460   ZZ=             -8.4143
   XY=              0.0269   XZ=             -0.0340   YZ=             -0.0336

 Normal termination of Gaussian 16 at Fri Sep 22 17:01:43 2023.
