 Gaussian 16, Revision A.03,
 Gaussian 16:  ES64L-G16RevA.03 25-Dec-2016

 ----------------
 # b3lyp/6-31g(d)
 ----------------

 ---------------------
 tmpdir/M2_ref_102.gjf
 ---------------------
 Symbolic Z-matrix:
 Charge =  0 Multiplicity = 1

                         Standard orientation:
 ---------------------------------------------------------------------
 Center     Atomic      Atomic             Coordinates (Angstroms)
 Number     Number       Type             X           Y           Z
 ---------------------------------------------------------------------
      1          6           0        1.195211    0.183590   -0.005024
      2          8           0       -0.006040   -0.581320   -0.000074
      3          6           0       -1.186836    0.195931    0.004812
      4          1           0        1.445028    0.594005    1.012910
      5          1           0        1.081660    1.023909   -0.713467
      6          1           0        2.022239   -0.410064   -0.296202
      7          1           0       -2.020889   -0.501794   -0.107448
      8          1           0       -1.324478    0.757417    0.940786
      9          1           0       -1.205492    0.909961   -0.834717
 ---------------------------------------------------------------------

 SCF Done:  E(RB3LYP) =  -155.021980911     A.U. after   12 cycles

 The electronic state is 1-A.
 Alpha  occ. eigenvalues --  -19.14315 -10.22445 -10.22440  -1.02062  -0.71868
 Alpha  occ. eigenvalues --   -0.63637  -0.47278  -0.46773  -0.45969  -0.39351
 Alpha  occ. eigenvalues --   -0.38055  -0.31010  -0.24968
 Alpha virt. eigenvalues --    0.09261   0.13370   0.14568   0.15635   0.16717
 Alpha virt. eigenvalues --    0.18359   0.19168   0.24292   0.51652   0.52981
 Alpha virt. eigenvalues --    0.53648   0.57285   0.59383   0.72353   0.82508

 Mulliken charges:
               1
     1  C   -0.189187
     2  O   -0.452427
     3  C   -0.190193
     4  H    0.124599
     5  H    0.125959
     6  H    0.165216
     7  H    0.158492
     8  H    0.130199
     9  H    0.127341
 Sum of Mulliken charges =  -0.00000

 Dipole moment (field-independent basis, Debye):
    X=              0.0466    Y=              1.2772    Z=             -0.0655  Tot=              1.2798
 Quadrupole moment (field-independent basis, Debye-Ang):
   XX=            -16.7757   YY=            -20.9624   ZZ=            -20.0474
   XY=             -0.0295   XZ=             -0.0571   YZ=             -0.0028

 Normal termination of Gaussian 16 at Fri Sep 22 17:02:05 2023.
