 Gaussian 16, Revision A.03,
 Gaussian 16:  ES64L-G16RevA.03 25-Dec-2016

 ----------------
 # b3lyp/6-31g(d)
 ----------------

 --------------------
 tmpdir/M2_ref_21.gjf
 --------------------
 Symbolic Z-matrix:
 Charge =  0 Multiplicity = 1

                         Standard orientation:
 ---------------------------------------------------------------------
 Center     Atomic      Atomic             Coordinates (Angstroms)
 Number     Number       Type             X           Y           Z
 ---------------------------------------------------------------------
      1          6           0       -0.002850   -0.011314   -0.002447
      2          1           0        0.067698    0.515862    0.958351
      3          1           0       -0.977753   -0.566218   -0.046982
      4          1           0        0.921321   -0.643843   -0.115374
      5          1           0        0.005837    0.762085   -0.781314
 ---------------------------------------------------------------------

 SCF Done:  E(RB3LYP) =  -40.5161350746     A.U. after    9 cycles

 The electronic state is 1-A.
 Alpha  occ. eigenvalues --  -10.17428  -0.68547  -0.39279  -0.38382  -0.38119
 Alpha virt. eigenvalues --    0.11236   0.16776   0.17093   0.17399   0.53142
 Alpha virt. eigenvalues --    0.53484   0.55113   0.87133   0.88425   0.88940
 Alpha virt. eigenvalues --    0.93304   1.09584   1.65852   1.66208   2.18090

 Mulliken charges:
               1
     1  C   -0.621155
     2  H    0.156863
     3  H    0.154259
     4  H    0.152778
     5  H    0.157254
 Sum of Mulliken charges =   0.00000

 Dipole moment (field-independent basis, Debye):
    X=              0.0074    Y=              0.0689    Z=              0.0126  Tot=              0.0704
 Quadrupole moment (field-independent basis, Debye-Ang):
   XX=             -8.0890   YY=             -8.3842   ZZ=             -8.4248
   XY=              0.0087   XZ=              0.0028   YZ=             -0.0046

 Normal termination of Gaussian 16 at Fri Sep 22 17:01:30 2023.
