 Gaussian 16, Revision A.03,
 Gaussian 16:  ES64L-G16RevA.03 25-Dec-2016

 ----------------
 # b3lyp/6-31g(d)
 ----------------

 -------------------
 tmpdir/M2_ref_5.gjf
 -------------------
 Symbolic Z-matrix:
 Charge =  0 Multiplicity = 1

                         Standard orientation:
 ---------------------------------------------------------------------
 Center     Atomic      Atomic             Coordinates (Angstroms)
 Number     Number       Type             X           Y           Z
 ---------------------------------------------------------------------
      1          6           0       -0.782257    0.005667   -0.016500
      2          6           0        0.782051   -0.004286   -0.016974
      3          1           0        1.143394   -0.989881   -0.341548
      4          1           0       -1.320896   -0.774090   -0.618317
      5          1           0       -1.145392    1.001524   -0.303471
      6          1           0       -1.101554   -0.134273    1.023899
      7          1           0        1.322856    0.797541   -0.587564
      8          1           0        1.102834    0.090891    1.027846
 ---------------------------------------------------------------------

 SCF Done:  E(RB3LYP) =  -79.8216704342     A.U. after   10 cycles

 The electronic state is 1-A.
 Alpha  occ. eigenvalues --  -10.17750 -10.17733  -0.74015  -0.61156  -0.42665
 Alpha  occ. eigenvalues --   -0.42434  -0.36348  -0.33842  -0.33301
 Alpha virt. eigenvalues --    0.10301   0.13188   0.13380   0.15420   0.21963
 Alpha virt. eigenvalues --    0.22950   0.23469   0.52216   0.53750   0.53904
 Alpha virt. eigenvalues --    0.65024   0.66469   0.70379   0.85714   0.86206

 Mulliken charges:
               1
     1  C   -0.439385
     2  C   -0.439556
     3  H    0.147886
     4  H    0.144306
     5  H    0.148108
     6  H    0.147133
     7  H    0.144334
     8  H    0.147175
 Sum of Mulliken charges =  -0.00000

 Dipole moment (field-independent basis, Debye):
    X=             -0.0002    Y=             -0.0034    Z=              0.1105  Tot=              0.1106
 Quadrupole moment (field-independent basis, Debye-Ang):
   XX=            -15.1422   YY=            -14.6504   ZZ=            -14.9118
   XY=              0.1751   XZ=              0.0055   YZ=             -0.0012

 Normal termination of Gaussian 16 at Fri Sep 22 17:01:43 2023.
