 Gaussian 16, Revision A.03,
 Gaussian 16:  ES64L-G16RevA.03 25-Dec-2016

 ----------------
 # b3lyp/6-31g(d)
 ----------------

 --------------------
 tmpdir/M2_ref_74.gjf
 --------------------
 Symbolic Z-matrix:
 Charge =  0 Multiplicity = 1

                         Standard orientation:
 ---------------------------------------------------------------------
 Center     Atomic      Atomic             Coordinates (Angstroms)
 Number     Number       Type             X           Y           Z
 ---------------------------------------------------------------------
      1          6           0       -1.725179   -0.514246   -0.001905
      2          6           0       -0.360570    0.138968   -0.010231
      3          6           0        0.801179   -0.645609   -0.008964
      4          1           0       -2.004729   -1.009944    1.024084
      5          1           0       -1.769196   -1.342008   -0.713086
      6          1           0       -2.500311    0.209982   -0.284368
      7          8           0       -0.251919    1.367489    0.007503
      8          8           0        1.910354   -0.117885    0.007132
      9          1           0        0.714171   -1.729538   -0.017108
 ---------------------------------------------------------------------

 SCF Done:  E(RB3LYP) =  -267.123692272     A.U. after   13 cycles

 The electronic state is 1-A.
 Alpha  occ. eigenvalues --  -19.17974 -19.16778 -10.29332 -10.29103 -10.21808
 Alpha  occ. eigenvalues --   -1.07946  -1.04008  -0.78544  -0.69702  -0.55878
 Alpha  occ. eigenvalues --   -0.50835  -0.47150  -0.46670  -0.42816  -0.41766
 Alpha  occ. eigenvalues --   -0.40828  -0.35885  -0.29411  -0.26831
 Alpha virt. eigenvalues --   -0.11815   0.03289   0.08615   0.12873   0.13129
 Alpha virt. eigenvalues --    0.15850   0.21500   0.22331   0.34130   0.38824
 Alpha virt. eigenvalues --    0.48749   0.49151   0.55516   0.57363   0.62840

 Mulliken charges:
               1
     1  C   -0.550530
     2  C    0.429178
     3  C    0.185362
     4  H    0.174652
     5  H    0.172503
     6  H    0.197848
     7  O   -0.396259
     8  O   -0.339859
     9  H    0.127106
 Sum of Mulliken charges =   0.00000

 Dipole moment (field-independent basis, Debye):
    X=             -2.6178    Y=             -3.1566    Z=             -0.0374  Tot=              4.1010
 Quadrupole moment (field-independent basis, Debye-Ang):
   XX=            -31.3264   YY=            -30.2021   ZZ=            -27.0090
   XY=              0.3489   XZ=             -0.0516   YZ=             -0.1627

 Normal termination of Gaussian 16 at Fri Sep 22 17:02:05 2023.
