 Gaussian 16, Revision A.03,
 Gaussian 16:  ES64L-G16RevA.03 25-Dec-2016

 ----------------
 # b3lyp/6-31g(d)
 ----------------

 --------------------
 tmpdir/M2_ref_73.gjf
 --------------------
 Symbolic Z-matrix:
 Charge =  0 Multiplicity = 1

                         Standard orientation:
 ---------------------------------------------------------------------
 Center     Atomic      Atomic             Coordinates (Angstroms)
 Number     Number       Type             X           Y           Z
 ---------------------------------------------------------------------
      1          6           0       -0.699690   -0.009315   -0.003058
      2          6           0        0.699373   -0.006973    0.000898
      3          1           0       -1.259203    0.932040    0.011557
      4          1           0       -1.189804   -0.897890    0.001520
      5          1           0        1.215784   -0.876220    0.005194
      6          1           0        1.235126    0.939794   -0.005309
 ---------------------------------------------------------------------

 SCF Done:  E(RB3LYP) =  -78.5743815404     A.U. after   11 cycles

 The electronic state is 1-A.
 Alpha  occ. eigenvalues --  -10.18504 -10.18377  -0.74615  -0.59061  -0.47214
 Alpha  occ. eigenvalues --   -0.40292  -0.37179  -0.25529
 Alpha virt. eigenvalues --    0.00465   0.12297   0.16145   0.16666   0.24341
 Alpha virt. eigenvalues --    0.30818   0.49325   0.55775   0.55825   0.63247
 Alpha virt. eigenvalues --    0.65220   0.65542   0.87578   0.88175   0.95909

 Mulliken charges:
               1
     1  C   -0.296047
     2  C   -0.296016
     3  H    0.144542
     4  H    0.151336
     5  H    0.152378
     6  H    0.143807
 Sum of Mulliken charges =  -0.00000

 Dipole moment (field-independent basis, Debye):
    X=              0.0036    Y=             -0.0481    Z=              0.0118  Tot=              0.0497
 Quadrupole moment (field-independent basis, Debye-Ang):
   XX=            -11.9955   YY=            -11.9485   ZZ=            -15.0694
   XY=             -0.0454   XZ=             -0.0157   YZ=             -0.0003

 Normal termination of Gaussian 16 at Fri Sep 22 17:01:55 2023.
