 Gaussian 16, Revision A.03,
 Gaussian 16:  ES64L-G16RevA.03 25-Dec-2016

 ----------------
 # b3lyp/6-31g(d)
 ----------------

 --------------------
 tmpdir/M2_ref_95.gjf
 --------------------
 Symbolic Z-matrix:
 Charge =  0 Multiplicity = 1

                         Standard orientation:
 ---------------------------------------------------------------------
 Center     Atomic      Atomic             Coordinates (Angstroms)
 Number     Number       Type             X           Y           Z
 ---------------------------------------------------------------------
      1          6           0        0.694256    0.504789   -0.001028
      2          6           0       -0.702486    0.503482    0.000147
      3          1           0       -1.243708    1.445730    0.001369
      4          8           0        1.323468   -0.556094    0.000384
      5          1           0        1.233719    1.449464    0.001429
      6          8           0       -1.316047   -0.562008   -0.000073
 ---------------------------------------------------------------------

 SCF Done:  E(RB3LYP) =  -227.799003873     A.U. after   13 cycles

 The electronic state is 1-A.
 Alpha  occ. eigenvalues --  -19.18745 -19.18715 -10.29823 -10.29766  -1.08791
 Alpha  occ. eigenvalues --   -1.04988  -0.75477  -0.57651  -0.55427  -0.47088
 Alpha  occ. eigenvalues --   -0.45203  -0.44467  -0.37675  -0.30537  -0.27977
 Alpha virt. eigenvalues --   -0.13242   0.03620   0.10751   0.13709   0.17673
 Alpha virt. eigenvalues --    0.31610   0.38004   0.48312   0.51249   0.56569
 Alpha virt. eigenvalues --    0.58528   0.65855   0.66380   0.74289   0.81870

 Mulliken charges:
               1
     1  C    0.202575
     2  C    0.203211
     3  H    0.133468
     4  O   -0.336891
     5  H    0.132353
     6  O   -0.334715
 Sum of Mulliken charges =  -0.00000

 Dipole moment (field-independent basis, Debye):
    X=             -0.0390    Y=              3.4755    Z=             -0.0007  Tot=              3.4757
 Quadrupole moment (field-independent basis, Debye-Ang):
   XX=            -25.4284   YY=            -21.3553   ZZ=            -20.7665
   XY=             -0.0278   XZ=             -0.0011   YZ=              0.0006

 Normal termination of Gaussian 16 at Fri Sep 22 17:02:11 2023.
