 Gaussian 16, Revision A.03,
 Gaussian 16:  ES64L-G16RevA.03 25-Dec-2016

 ----------------
 # b3lyp/6-31g(d)
 ----------------

 --------------------
 tmpdir/M2_ref_87.gjf
 --------------------
 Symbolic Z-matrix:
 Charge =  0 Multiplicity = 1

                         Standard orientation:
 ---------------------------------------------------------------------
 Center     Atomic      Atomic             Coordinates (Angstroms)
 Number     Number       Type             X           Y           Z
 ---------------------------------------------------------------------
      1          6           0       -0.697947    0.484587   -0.000546
      2          6           0        0.699897    0.485684   -0.000134
      3          6           0       -1.395847   -0.721410    0.000252
      4          1           0       -1.243151    1.424645    0.001145
      5          6           0        1.393814   -0.724049    0.000046
      6          1           0        1.243649    1.426483    0.001149
 ---------------------------------------------------------------------

 SCF Done:  E(RB3LYP) =  -153.300517354     A.U. after   14 cycles

 The electronic state is 1-A.
 Alpha  occ. eigenvalues --  -10.27280 -10.27235 -10.22984 -10.22926  -0.84824
 Alpha  occ. eigenvalues --   -0.72064  -0.60718  -0.49746  -0.48955  -0.35923
 Alpha  occ. eigenvalues --   -0.31671  -0.29647  -0.24016
 Alpha virt. eigenvalues --   -0.13148  -0.09885  -0.06184   0.06787   0.10701
 Alpha virt. eigenvalues --    0.14676   0.25660   0.35417   0.37903   0.48168
 Alpha virt. eigenvalues --    0.50282   0.52915   0.55207   0.55915   0.58362

 Mulliken charges:
               1
     1  C   -0.212546
     2  C   -0.211448
     3  C    0.004954
     4  H    0.207025
     5  C    0.005281
     6  H    0.206734
 Sum of Mulliken charges =  -0.00000

 Dipole moment (field-independent basis, Debye):
    X=              0.0120    Y=              3.4911    Z=              0.0022  Tot=              3.4911
 Quadrupole moment (field-independent basis, Debye-Ang):
   XX=            -24.2701   YY=            -23.4022   ZZ=            -25.2798
   XY=             -0.0108   XZ=              0.0007   YZ=              0.0055

 Normal termination of Gaussian 16 at Fri Sep 22 17:02:00 2023.
