 Gaussian 16, Revision A.03,
 Gaussian 16:  ES64L-G16RevA.03 25-Dec-2016

 ----------------
 # b3lyp/6-31g(d)
 ----------------

 --------------------
 tmpdir/M2_ref_82.gjf
 --------------------
 Symbolic Z-matrix:
 Charge =  0 Multiplicity = 1

                         Standard orientation:
 ---------------------------------------------------------------------
 Center     Atomic      Atomic             Coordinates (Angstroms)
 Number     Number       Type             X           Y           Z
 ---------------------------------------------------------------------
      1          6           0        0.693985    0.485184   -0.001038
      2          6           0       -0.702756    0.482848    0.000175
      3          6           0        1.408575   -0.717628    0.000491
      4          1           0        1.232751    1.430257    0.001448
      5          6           0       -1.397816   -0.726229   -0.000111
      6          1           0       -1.244673    1.424697    0.001454
 ---------------------------------------------------------------------

 SCF Done:  E(RB3LYP) =  -153.299957901     A.U. after   13 cycles

 The electronic state is 1-A.
 Alpha  occ. eigenvalues --  -10.27328 -10.27305 -10.23009 -10.22942  -0.84746
 Alpha  occ. eigenvalues --   -0.72014  -0.60731  -0.49720  -0.48911  -0.35880
 Alpha  occ. eigenvalues --   -0.31669  -0.29671  -0.23995
 Alpha virt. eigenvalues --   -0.13124  -0.09985  -0.06248   0.06755   0.10653
 Alpha virt. eigenvalues --    0.14711   0.25589   0.35490   0.37768   0.48209
 Alpha virt. eigenvalues --    0.50287   0.52703   0.55251   0.55902   0.58367

 Mulliken charges:
               1
     1  C   -0.214839
     2  C   -0.210453
     3  C    0.006416
     4  H    0.206561
     5  C    0.005866
     6  H    0.206450
 Sum of Mulliken charges =   0.00000

 Dipole moment (field-independent basis, Debye):
    X=             -0.0361    Y=              3.4727    Z=              0.0028  Tot=              3.4729
 Quadrupole moment (field-independent basis, Debye-Ang):
   XX=            -24.3736   YY=            -23.3627   ZZ=            -25.2952
   XY=              0.0065   XZ=             -0.0021   YZ=              0.0070

 Normal termination of Gaussian 16 at Fri Sep 22 17:01:59 2023.
