 Gaussian 16, Revision A.03,
 Gaussian 16:  ES64L-G16RevA.03 25-Dec-2016

 ----------------
 # b3lyp/6-31g(d)
 ----------------

 --------------------
 tmpdir/M2_ref_84.gjf
 --------------------
 Symbolic Z-matrix:
 Charge =  0 Multiplicity = 1

                         Standard orientation:
 ---------------------------------------------------------------------
 Center     Atomic      Atomic             Coordinates (Angstroms)
 Number     Number       Type             X           Y           Z
 ---------------------------------------------------------------------
      1          6           0       -1.429823   -0.469337   -0.003108
      2          6           0       -0.581868    0.643479   -0.000020
      3          6           0        0.805369    0.480801    0.000350
      4          1           0       -2.517416   -0.342057    0.015870
      5          1           0       -1.021636   -1.398412   -0.002010
      6          1           0       -1.008566    1.644160   -0.002527
      7          8           0        1.291714   -0.648445    0.000632
      8          1           0        1.451836    1.354206    0.000272
 ---------------------------------------------------------------------

 SCF Done:  E(RB3LYP) =  -191.895643292     A.U. after   14 cycles

 The electronic state is 1-A.
 Alpha  occ. eigenvalues --  -19.13670 -10.26593 -10.21827 -10.20706  -1.03139
 Alpha  occ. eigenvalues --   -0.79128  -0.67288  -0.55003  -0.51691  -0.44468
 Alpha  occ. eigenvalues --   -0.42104  -0.39437  -0.38940  -0.27462  -0.25364
 Alpha virt. eigenvalues --   -0.08016   0.07042   0.10441   0.13925   0.16620
 Alpha virt. eigenvalues --    0.19882   0.25197   0.31180   0.36189   0.51427
 Alpha virt. eigenvalues --    0.52700   0.57142   0.57934   0.59705   0.63441

 Mulliken charges:
               1
     1  C   -0.274219
     2  C   -0.139186
     3  C    0.222444
     4  H    0.162458
     5  H    0.194195
     6  H    0.138711
     7  O   -0.418006
     8  H    0.113604
 Sum of Mulliken charges =  -0.00000

 Dipole moment (field-independent basis, Debye):
    X=             -2.1227    Y=              1.6682    Z=              0.0076  Tot=              2.6997
 Quadrupole moment (field-independent basis, Debye-Ang):
   XX=            -23.2387   YY=            -22.0670   ZZ=            -24.2127
   XY=              3.0462   XZ=             -0.0300   YZ=             -0.0041

 Normal termination of Gaussian 16 at Fri Sep 22 17:02:00 2023.
