 Gaussian 16, Revision A.03,
 Gaussian 16:  ES64L-G16RevA.03 25-Dec-2016

 ----------------
 # b3lyp/6-31g(d)
 ----------------

 --------------------
 tmpdir/M2_ref_60.gjf
 --------------------
 Symbolic Z-matrix:
 Charge =  0 Multiplicity = 1

                         Standard orientation:
 ---------------------------------------------------------------------
 Center     Atomic      Atomic             Coordinates (Angstroms)
 Number     Number       Type             X           Y           Z
 ---------------------------------------------------------------------
      1          7           0       -0.720658    0.099334   -0.002013
      2          7           0        0.390893    0.639409   -0.007487
      3          6           0        1.555846   -0.293824   -0.004703
      4          7           0       -1.799439   -0.277241    0.003255
      5          1           0        2.421910    0.368886    0.055752
      6          1           0        1.537484   -0.903109    0.908289
      7          1           0        1.609960   -0.933351   -0.892112
 ---------------------------------------------------------------------

 SCF Done:  E(RB3LYP) =  -204.092624719     A.U. after   14 cycles

 The electronic state is 1-A.
 Alpha  occ. eigenvalues --  -14.51230 -14.40652 -14.38375 -10.24091  -1.13844
 Alpha  occ. eigenvalues --   -0.97827  -0.74855  -0.54066  -0.51515  -0.51367
 Alpha  occ. eigenvalues --   -0.45223  -0.43721  -0.41635  -0.30413  -0.25539
 Alpha virt. eigenvalues --   -0.02782   0.01256   0.10183   0.13658   0.15137
 Alpha virt. eigenvalues --    0.16533   0.26279   0.46292   0.49540   0.52099
 Alpha virt. eigenvalues --    0.54878   0.56205   0.63239   0.65654   0.70159

 Mulliken charges:
               1
     1  N    0.403452
     2  N   -0.360170
     3  C   -0.308316
     4  N   -0.267453
     5  H    0.186726
     6  H    0.171334
     7  H    0.174428
 Sum of Mulliken charges =  -0.00000

 Dipole moment (field-independent basis, Debye):
    X=              2.1494    Y=             -1.0338    Z=              0.0183  Tot=              2.3852
 Quadrupole moment (field-independent basis, Debye-Ang):
   XX=            -24.0772   YY=            -24.1267   ZZ=            -22.9434
   XY=             -1.9064   XZ=              0.0429   YZ=              0.0895

 Normal termination of Gaussian 16 at Fri Sep 22 17:01:50 2023.
