 Gaussian 16, Revision A.03,
 Gaussian 16:  ES64L-G16RevA.03 25-Dec-2016

 ----------------
 # b3lyp/6-31g(d)
 ----------------

 --------------------
 tmpdir/M2_ref_54.gjf
 --------------------
 Symbolic Z-matrix:
 Charge =  0 Multiplicity = 1

                         Standard orientation:
 ---------------------------------------------------------------------
 Center     Atomic      Atomic             Coordinates (Angstroms)
 Number     Number       Type             X           Y           Z
 ---------------------------------------------------------------------
      1          6           0        0.833224   -0.089899   -0.111054
      2          6           0       -0.485218    0.531237    0.013537
      3          8           0       -1.513566   -0.453658    0.037944
      4          7           0        1.933401   -0.180204    0.044374
      5          1           0       -0.456948    1.143441    0.957702
      6          1           0       -0.654368    1.204234   -0.846339
      7          1           0       -2.401992   -0.105016   -0.140431
 ---------------------------------------------------------------------

 SCF Done:  E(RB3LYP) =  -207.933373714     A.U. after   13 cycles

 The electronic state is 1-A.
 Alpha  occ. eigenvalues --  -19.17211 -14.33482 -10.29584 -10.22470  -1.04453
 Alpha  occ. eigenvalues --   -0.92912  -0.75461  -0.55011  -0.52344  -0.49424
 Alpha  occ. eigenvalues --   -0.37750  -0.36250  -0.35079  -0.34667  -0.29704
 Alpha virt. eigenvalues --   -0.00381   0.03157   0.08218   0.10515   0.15425
 Alpha virt. eigenvalues --    0.19511   0.25075   0.31491   0.50637   0.54112
 Alpha virt. eigenvalues --    0.56856   0.57915   0.65945   0.69441   0.71922

 Mulliken charges:
               1
     1  C    0.314816
     2  C   -0.102353
     3  O   -0.611827
     4  N   -0.367974
     5  H    0.183732
     6  H    0.175072
     7  H    0.408535
 Sum of Mulliken charges =  -0.00000

 Dipole moment (field-independent basis, Debye):
    X=             -3.7114    Y=              2.3389    Z=             -0.4553  Tot=              4.4105
 Quadrupole moment (field-independent basis, Debye-Ang):
   XX=            -24.5202   YY=            -22.7836   ZZ=            -22.3379
   XY=             -1.4398   XZ=              0.7356   YZ=              0.1284

 Normal termination of Gaussian 16 at Fri Sep 22 17:01:48 2023.
