 Gaussian 16, Revision A.03,
 Gaussian 16:  ES64L-G16RevA.03 25-Dec-2016

 ----------------
 # b3lyp/6-31g(d)
 ----------------

 --------------------
 tmpdir/M2_ref_80.gjf
 --------------------
 Symbolic Z-matrix:
 Charge =  0 Multiplicity = 1

                         Standard orientation:
 ---------------------------------------------------------------------
 Center     Atomic      Atomic             Coordinates (Angstroms)
 Number     Number       Type             X           Y           Z
 ---------------------------------------------------------------------
      1          6           0        0.705731    0.509077   -0.003448
      2          6           0       -0.696125    0.504728   -0.001728
      3          1           0       -1.233583    1.450065    0.002192
      4          1           0        1.256800    1.455347    0.014261
      5          8           0        1.306587   -0.568114    0.000543
      6          8           0       -1.316694   -0.555416    0.001283
 ---------------------------------------------------------------------

 SCF Done:  E(RB3LYP) =  -227.799641447     A.U. after   13 cycles

 The electronic state is 1-A.
 Alpha  occ. eigenvalues --  -19.18739 -19.18657 -10.29923 -10.29756  -1.08814
 Alpha  occ. eigenvalues --   -1.04963  -0.75235  -0.57592  -0.55316  -0.47049
 Alpha  occ. eigenvalues --   -0.45167  -0.44465  -0.37664  -0.30487  -0.27963
 Alpha virt. eigenvalues --   -0.13140   0.03535   0.10708   0.13524   0.17690
 Alpha virt. eigenvalues --    0.31429   0.37819   0.48360   0.51309   0.56500
 Alpha virt. eigenvalues --    0.58707   0.65675   0.66603   0.74157   0.81720

 Mulliken charges:
               1
     1  C    0.199409
     2  C    0.205007
     3  H    0.130206
     4  H    0.135564
     5  O   -0.334959
     6  O   -0.335227
 Sum of Mulliken charges =  -0.00000

 Dipole moment (field-independent basis, Debye):
    X=              0.0522    Y=              3.4907    Z=             -0.0042  Tot=              3.4911
 Quadrupole moment (field-independent basis, Debye-Ang):
   XX=            -25.3699   YY=            -21.3487   ZZ=            -20.7791
   XY=              0.0817   XZ=              0.0064   YZ=              0.0043

 Normal termination of Gaussian 16 at Fri Sep 22 17:02:05 2023.
