 Gaussian 16, Revision A.03,
 Gaussian 16:  ES64L-G16RevA.03 25-Dec-2016

 ----------------
 # b3lyp/6-31g(d)
 ----------------

 -------------------
 tmpdir/M2_ref_7.gjf
 -------------------
 Symbolic Z-matrix:
 Charge =  0 Multiplicity = 1

                         Standard orientation:
 ---------------------------------------------------------------------
 Center     Atomic      Atomic             Coordinates (Angstroms)
 Number     Number       Type             X           Y           Z
 ---------------------------------------------------------------------
      1          6           0        0.775271    0.008584   -0.005640
      2          6           0       -0.775947    0.004482   -0.014716
      3          1           0       -1.134802   -0.800434   -0.670954
      4          1           0        1.271943   -0.225384   -0.988298
      5          1           0        1.125486   -0.722589    0.734581
      6          1           0        1.148407    0.988614    0.315835
      7          1           0       -1.317428    0.967082   -0.264792
      8          1           0       -1.089549   -0.285688    0.995762
 ---------------------------------------------------------------------

 SCF Done:  E(RB3LYP) =  -79.8243155516     A.U. after   10 cycles

 The electronic state is 1-A.
 Alpha  occ. eigenvalues --  -10.17781 -10.17727  -0.74234  -0.60994  -0.42738
 Alpha  occ. eigenvalues --   -0.42566  -0.36223  -0.33836  -0.33573
 Alpha virt. eigenvalues --    0.10251   0.13689   0.14205   0.15633   0.20543
 Alpha virt. eigenvalues --    0.21613   0.23639   0.51816   0.54158   0.54260
 Alpha virt. eigenvalues --    0.65190   0.65842   0.67227   0.86486   0.86764

 Mulliken charges:
               1
     1  C   -0.434372
     2  C   -0.433941
     3  H    0.146828
     4  H    0.140218
     5  H    0.146975
     6  H    0.147085
     7  H    0.141087
     8  H    0.146119
 Sum of Mulliken charges =  -0.00000

 Dipole moment (field-independent basis, Debye):
    X=              0.0032    Y=             -0.0470    Z=              0.0880  Tot=              0.0998
 Quadrupole moment (field-independent basis, Debye-Ang):
   XX=            -15.2143   YY=            -14.7229   ZZ=            -14.8386
   XY=             -0.1018   XZ=             -0.0218   YZ=             -0.0060

 Normal termination of Gaussian 16 at Fri Sep 22 17:01:37 2023.
