 Gaussian 16, Revision A.03,
 Gaussian 16:  ES64L-G16RevA.03 25-Dec-2016

 ----------------
 # b3lyp/6-31g(d)
 ----------------

 --------------------
 tmpdir/M2_ref_75.gjf
 --------------------
 Symbolic Z-matrix:
 Charge =  0 Multiplicity = 1

                         Standard orientation:
 ---------------------------------------------------------------------
 Center     Atomic      Atomic             Coordinates (Angstroms)
 Number     Number       Type             X           Y           Z
 ---------------------------------------------------------------------
      1          6           0        1.225956   -0.178685   -0.004304
      2          6           0       -0.119704    0.512752   -0.009925
      3          6           0       -1.303828   -0.232180    0.008170
      4          1           0        1.790123   -0.104740    1.021739
      5          1           0        1.911455    0.289338   -0.714200
      6          1           0        1.118109   -1.233093   -0.290162
      7          1           0       -0.176227    1.525957   -0.005693
      8          1           0       -2.202908    0.230148    0.022200
      9          1           0       -1.255093   -1.318932    0.002469
 ---------------------------------------------------------------------

 SCF Done:  E(RB3LYP) =  -117.890576660     A.U. after   12 cycles

 The electronic state is 1-A.
 Alpha  occ. eigenvalues --  -10.18868 -10.18730 -10.17326  -0.77249  -0.67414
 Alpha  occ. eigenvalues --   -0.56518  -0.46796  -0.40934  -0.39526  -0.36448
 Alpha  occ. eigenvalues --   -0.35965  -0.23960
 Alpha virt. eigenvalues --    0.01081   0.11402   0.14322   0.14846   0.17267
 Alpha virt. eigenvalues --    0.18597   0.20446   0.28329   0.34850   0.50594
 Alpha virt. eigenvalues --    0.52814   0.54941   0.59736   0.64145   0.64933

 Mulliken charges:
               1
     1  C   -0.476408
     2  C   -0.055806
     3  C   -0.332661
     4  H    0.139687
     5  H    0.153945
     6  H    0.156258
     7  H    0.135422
     8  H    0.144558
     9  H    0.135006
 Sum of Mulliken charges =  -0.00000

 Dipole moment (field-independent basis, Debye):
    X=              0.2692    Y=              0.1309    Z=             -0.0340  Tot=              0.3013
 Quadrupole moment (field-independent basis, Debye-Ang):
   XX=            -18.9121   YY=            -18.5377   ZZ=            -21.4206
   XY=              0.0671   XZ=             -0.0369   YZ=              0.0713

 Normal termination of Gaussian 16 at Fri Sep 22 17:01:54 2023.
