 Gaussian 16, Revision A.03,
 Gaussian 16:  ES64L-G16RevA.03 25-Dec-2016

 ----------------
 # b3lyp/6-31g(d)
 ----------------

 --------------------
 tmpdir/M2_ref_78.gjf
 --------------------
 Symbolic Z-matrix:
 Charge =  0 Multiplicity = 1

                         Standard orientation:
 ---------------------------------------------------------------------
 Center     Atomic      Atomic             Coordinates (Angstroms)
 Number     Number       Type             X           Y           Z
 ---------------------------------------------------------------------
      1          6           0        0.547844   -0.012955   -0.000700
      2          1           0        1.107132    0.919640    0.001413
      3          1           0        1.049180   -0.895256    0.001522
      4          8           0       -0.680422    0.006668    0.000158
 ---------------------------------------------------------------------

 SCF Done:  E(RB3LYP) =  -114.493437010     A.U. after   11 cycles

 The electronic state is 1-A.
 Alpha  occ. eigenvalues --  -19.16458 -10.27861  -1.04575  -0.65317  -0.50793
 Alpha  occ. eigenvalues --   -0.44186  -0.38925  -0.26680
 Alpha virt. eigenvalues --   -0.04669   0.11687   0.19251   0.21695   0.51079
 Alpha virt. eigenvalues --    0.59825   0.63149   0.67149   0.84633   0.86111
 Alpha virt. eigenvalues --    0.94027   0.96275   1.06147   1.37151   1.50026

 Mulliken charges:
               1
     1  C    0.075332
     2  H    0.125697
     3  H    0.142750
     4  O   -0.343779
 Sum of Mulliken charges =   0.00000

 Dipole moment (field-independent basis, Debye):
    X=              2.3316    Y=             -0.0999    Z=              0.0002  Tot=              2.3337
 Quadrupole moment (field-independent basis, Debye-Ang):
   XX=            -11.8289   YY=            -11.3124   ZZ=            -11.3321
   XY=             -0.0600   XZ=              0.0011   YZ=              0.0001

 Normal termination of Gaussian 16 at Fri Sep 22 17:01:51 2023.
