 Gaussian 16, Revision A.03,
 Gaussian 16:  ES64L-G16RevA.03 25-Dec-2016

 ----------------
 # b3lyp/6-31g(d)
 ----------------

 ---------------------
 tmpdir/M2_ref_100.gjf
 ---------------------
 Symbolic Z-matrix:
 Charge =  0 Multiplicity = 1

                         Standard orientation:
 ---------------------------------------------------------------------
 Center     Atomic      Atomic             Coordinates (Angstroms)
 Number     Number       Type             X           Y           Z
 ---------------------------------------------------------------------
      1          6           0        0.697091   -0.007887   -0.000003
      2          6           0       -0.697533   -0.007757   -0.000144
      3          1           0       -1.242967    0.932069    0.000424
      4          1           0        1.202384   -0.883654    0.000201
      5          1           0        1.243637    0.931285    0.000002
      6          1           0       -1.200403   -0.885837    0.000255
 ---------------------------------------------------------------------

 SCF Done:  E(RB3LYP) =  -78.5747232438     A.U. after   11 cycles

 The electronic state is 1-A.
 Alpha  occ. eigenvalues --  -10.18343 -10.18285  -0.74734  -0.59118  -0.47298
 Alpha  occ. eigenvalues --   -0.40387  -0.37192  -0.25589
 Alpha virt. eigenvalues --    0.00557   0.12426   0.16225   0.16785   0.24429
 Alpha virt. eigenvalues --    0.30990   0.49210   0.55737   0.55794   0.63306
 Alpha virt. eigenvalues --    0.65232   0.65816   0.88013   0.88284   0.96166

 Mulliken charges:
               1
     1  C   -0.295864
     2  C   -0.295750
     3  H    0.144402
     4  H    0.151538
     5  H    0.144211
     6  H    0.151464
 Sum of Mulliken charges =   0.00000

 Dipole moment (field-independent basis, Debye):
    X=              0.0010    Y=             -0.0458    Z=              0.0008  Tot=              0.0459
 Quadrupole moment (field-independent basis, Debye-Ang):
   XX=            -11.9878   YY=            -11.9510   ZZ=            -15.0433
   XY=             -0.0025   XZ=             -0.0006   YZ=             -0.0000

 Normal termination of Gaussian 16 at Fri Sep 22 17:02:06 2023.
