 Gaussian 16, Revision A.03,
 Gaussian 16:  ES64L-G16RevA.03 25-Dec-2016

 ----------------
 # b3lyp/6-31g(d)
 ----------------

 --------------------
 tmpdir/M2_ref_47.gjf
 --------------------
 Symbolic Z-matrix:
 Charge =  0 Multiplicity = 1

                         Standard orientation:
 ---------------------------------------------------------------------
 Center     Atomic      Atomic             Coordinates (Angstroms)
 Number     Number       Type             X           Y           Z
 ---------------------------------------------------------------------
      1          6           0        1.146299    0.046264   -0.003509
      2          6           0       -0.295812   -0.197526    0.018948
      3          1           0        1.294971    1.003418   -0.576913
      4          1           0        1.508871    0.186799    1.030761
      5          1           0        1.716292   -0.853630   -0.485827
      6          7           0       -1.374722    0.081570   -0.008665
 ---------------------------------------------------------------------

 SCF Done:  E(RB3LYP) =  -132.737024628     A.U. after   13 cycles

 The electronic state is 1-A.
 Alpha  occ. eigenvalues --  -14.32367 -10.24791 -10.21951  -0.92152  -0.76474
 Alpha  occ. eigenvalues --   -0.50179  -0.46135  -0.45459  -0.35879  -0.33525
 Alpha  occ. eigenvalues --   -0.33187
 Alpha virt. eigenvalues --    0.01979   0.04875   0.08191   0.13670   0.15847
 Alpha virt. eigenvalues --    0.23336   0.30768   0.52850   0.53566   0.56644
 Alpha virt. eigenvalues --    0.61550   0.62575   0.68798   0.74440   0.79748

 Mulliken charges:
               1
     1  C   -0.518214
     2  C    0.284198
     3  H    0.211012
     4  H    0.205818
     5  H    0.182781
     6  N   -0.365595
 Sum of Mulliken charges =  -0.00000

 Dipole moment (field-independent basis, Debye):
    X=              3.5340    Y=             -0.0796    Z=              0.0485  Tot=              3.5353
 Quadrupole moment (field-independent basis, Debye-Ang):
   XX=            -20.5288   YY=            -17.0191   ZZ=            -17.2070
   XY=              0.3226   XZ=              0.0450   YZ=             -0.0195

 Normal termination of Gaussian 16 at Fri Sep 22 17:01:47 2023.
