 Gaussian 16, Revision A.03,
 Gaussian 16:  ES64L-G16RevA.03 25-Dec-2016

 ----------------
 # b3lyp/6-31g(d)
 ----------------

 --------------------
 tmpdir/M2_ref_70.gjf
 --------------------
 Symbolic Z-matrix:
 Charge =  0 Multiplicity = 1

                         Standard orientation:
 ---------------------------------------------------------------------
 Center     Atomic      Atomic             Coordinates (Angstroms)
 Number     Number       Type             X           Y           Z
 ---------------------------------------------------------------------
      1          1           0        1.803929    0.373782   -0.718152
      2          6           0        1.158518   -0.144534   -0.005621
      3          6           0       -0.236806    0.440252   -0.009273
      4          1           0        1.717619   -0.024743    1.018866
      5          1           0        1.132257   -1.204755   -0.289106
      6          1           0       -0.371870    1.446011   -0.006922
      7          8           0       -1.226526   -0.295575    0.010585
 ---------------------------------------------------------------------

 SCF Done:  E(RB3LYP) =  -153.818634375     A.U. after   13 cycles

 The electronic state is 1-A.
 Alpha  occ. eigenvalues --  -19.14674 -10.27526 -10.20360  -1.03262  -0.74622
 Alpha  occ. eigenvalues --   -0.60238  -0.47856  -0.43193  -0.42874  -0.39688
 Alpha  occ. eigenvalues --   -0.35380  -0.25451
 Alpha virt. eigenvalues --   -0.03152   0.10367   0.13709   0.14968   0.16219
 Alpha virt. eigenvalues --    0.25142   0.27986   0.52680   0.52985   0.58440
 Alpha virt. eigenvalues --    0.62310   0.65036   0.71279   0.73028   0.81508

 Mulliken charges:
               1
     1  H    0.165331
     2  C   -0.518893
     3  C    0.260392
     4  H    0.164381
     5  H    0.187270
     6  H    0.131351
     7  O   -0.389832
 Sum of Mulliken charges =  -0.00000

 Dipole moment (field-independent basis, Debye):
    X=              2.3806    Y=              1.2847    Z=             -0.0237  Tot=              2.7052
 Quadrupole moment (field-independent basis, Debye-Ang):
   XX=            -20.4468   YY=            -17.5021   ZZ=            -17.6411
   XY=             -1.1292   XZ=              0.1448   YZ=              0.0908

 Normal termination of Gaussian 16 at Fri Sep 22 17:01:51 2023.
