 Gaussian 16, Revision A.03,
 Gaussian 16:  ES64L-G16RevA.03 25-Dec-2016

 ----------------
 # b3lyp/6-31g(d)
 ----------------

 --------------------
 tmpdir/M2_ref_76.gjf
 --------------------
 Symbolic Z-matrix:
 Charge =  0 Multiplicity = 1

                         Standard orientation:
 ---------------------------------------------------------------------
 Center     Atomic      Atomic             Coordinates (Angstroms)
 Number     Number       Type             X           Y           Z
 ---------------------------------------------------------------------
      1          6           0       -0.799556    0.481424   -0.001647
      2          6           0        0.591925    0.651718   -0.003386
      3          6           0        1.413332   -0.480833    0.000763
      4          8           0       -1.290243   -0.644737    0.001051
      5          1           0       -1.445159    1.356478    0.002566
      6          1           0        1.027083    1.656573    0.014603
      7          1           0        1.011310   -1.408553    0.001944
      8          1           0        2.494507   -0.360459   -0.001905
 ---------------------------------------------------------------------

 SCF Done:  E(RB3LYP) =  -191.895788002     A.U. after   14 cycles

 The electronic state is 1-A.
 Alpha  occ. eigenvalues --  -19.13656 -10.26594 -10.21714 -10.20839  -1.03161
 Alpha  occ. eigenvalues --   -0.79118  -0.67211  -0.55017  -0.51649  -0.44608
 Alpha  occ. eigenvalues --   -0.41765  -0.39423  -0.39175  -0.27477  -0.25342
 Alpha virt. eigenvalues --   -0.07942   0.06952   0.10474   0.14012   0.16505
 Alpha virt. eigenvalues --    0.19991   0.25346   0.31111   0.35713   0.51486
 Alpha virt. eigenvalues --    0.52802   0.57598   0.57966   0.59586   0.63227

 Mulliken charges:
               1
     1  C    0.224279
     2  C   -0.143722
     3  C   -0.272089
     4  O   -0.417915
     5  H    0.111533
     6  H    0.141591
     7  H    0.195689
     8  H    0.160635
 Sum of Mulliken charges =  -0.00000

 Dipole moment (field-independent basis, Debye):
    X=              2.1332    Y=              1.6516    Z=              0.0079  Tot=              2.6978
 Quadrupole moment (field-independent basis, Debye-Ang):
   XX=            -23.3662   YY=            -21.9587   ZZ=            -24.2128
   XY=             -2.9912   XZ=              0.0162   YZ=              0.0208

 Normal termination of Gaussian 16 at Fri Sep 22 17:02:02 2023.
