 Gaussian 16, Revision A.03,
 Gaussian 16:  ES64L-G16RevA.03 25-Dec-2016

 ----------------
 # b3lyp/6-31g(d)
 ----------------

 --------------------
 tmpdir/M2_ref_68.gjf
 --------------------
 Symbolic Z-matrix:
 Charge = -1 Multiplicity = 1

                         Standard orientation:
 ---------------------------------------------------------------------
 Center     Atomic      Atomic             Coordinates (Angstroms)
 Number     Number       Type             X           Y           Z
 ---------------------------------------------------------------------
      1          7           0        1.700848   -0.393836    0.126565
      2          6           0        0.586371    0.527569   -0.243574
      3          6           0       -0.732003    0.182508    0.413495
      4          1           0        1.583507   -1.296896   -0.131617
      5          1           0        0.940817    1.509371    0.077889
      6          1           0        0.477070    0.553337   -1.335595
      7          1           0       -0.870240    0.348219    1.405074
      8          8           0       -1.645412   -0.327206   -0.240154
 ---------------------------------------------------------------------

 SCF Done:  E(RB3LYP) =  -208.495078312     A.U. after   18 cycles

 The electronic state is 1-A.
 Alpha  occ. eigenvalues --  -18.92301 -13.99667 -10.04532  -9.98126  -0.81607
 Alpha  occ. eigenvalues --   -0.57453  -0.44816  -0.37387  -0.26222  -0.21358
 Alpha  occ. eigenvalues --   -0.19008  -0.18044  -0.13237  -0.04919   0.02928
 Alpha  occ. eigenvalues --    0.08110
 Alpha virt. eigenvalues --    0.19028   0.32924   0.33394   0.36312   0.38059
 Alpha virt. eigenvalues --    0.44680   0.49761   0.52488   0.74761   0.80147
 Alpha virt. eigenvalues --    0.81196   0.83657   0.86515   0.92502   0.96855

 Mulliken charges:
               1
     1  N   -0.858246
     2  C   -0.107162
     3  C    0.190068
     4  H    0.191542
     5  H    0.038792
     6  H    0.027769
     7  H    0.036690
     8  O   -0.519455
 Sum of Mulliken charges =  -1.00000

 Dipole moment (field-independent basis, Debye):
    X=             -2.7976    Y=              1.1644    Z=              0.1605  Tot=              3.0345
 Quadrupole moment (field-independent basis, Debye-Ang):
   XX=            -44.7028   YY=            -25.7311   ZZ=            -27.5387
   XY=             -0.6783   XZ=             -3.2661   YZ=              0.7794

 Normal termination of Gaussian 16 at Fri Sep 22 17:01:59 2023.
