 Gaussian 16, Revision A.03,
 Gaussian 16:  ES64L-G16RevA.03 25-Dec-2016

 ----------------
 # b3lyp/6-31g(d)
 ----------------

 --------------------
 tmpdir/M2_ref_28.gjf
 --------------------
 Symbolic Z-matrix:
 Charge =  0 Multiplicity = 1

                         Standard orientation:
 ---------------------------------------------------------------------
 Center     Atomic      Atomic             Coordinates (Angstroms)
 Number     Number       Type             X           Y           Z
 ---------------------------------------------------------------------
      1          6           0       -0.001389   -0.001807    0.009655
      2          1           0       -0.705813    0.784209    0.309882
      3          1           0        0.873723    0.448664   -0.536413
      4          1           0       -0.551475   -0.678836   -0.658699
      5          1           0        0.391901   -0.543197    0.827299
 ---------------------------------------------------------------------

 SCF Done:  E(RB3LYP) =  -40.5163082483     A.U. after    9 cycles

 The electronic state is 1-A.
 Alpha  occ. eigenvalues --  -10.16752  -0.69037  -0.40132  -0.38400  -0.38127
 Alpha virt. eigenvalues --    0.11689   0.16923   0.17252   0.18641   0.52508
 Alpha virt. eigenvalues --    0.53272   0.54444   0.87822   0.88868   0.91580
 Alpha virt. eigenvalues --    0.95508   1.09714   1.65591   1.66134   2.21000

 Mulliken charges:
               1
     1  C   -0.627272
     2  H    0.156987
     3  H    0.147990
     4  H    0.155104
     5  H    0.167191
 Sum of Mulliken charges =  -0.00000

 Dipole moment (field-independent basis, Debye):
    X=             -0.0053    Y=             -0.0258    Z=              0.0155  Tot=              0.0306
 Quadrupole moment (field-independent basis, Debye-Ang):
   XX=             -8.1219   YY=             -8.2875   ZZ=             -8.3576
   XY=             -0.0539   XZ=              0.0592   YZ=             -0.0313

 Normal termination of Gaussian 16 at Fri Sep 22 17:01:32 2023.
