 Gaussian 16, Revision A.03,
 Gaussian 16:  ES64L-G16RevA.03 25-Dec-2016

 ----------------
 # b3lyp/6-31g(d)
 ----------------

 --------------------
 tmpdir/M2_ref_22.gjf
 --------------------
 Symbolic Z-matrix:
 Charge =  0 Multiplicity = 1

                         Standard orientation:
 ---------------------------------------------------------------------
 Center     Atomic      Atomic             Coordinates (Angstroms)
 Number     Number       Type             X           Y           Z
 ---------------------------------------------------------------------
      1          6           0        1.309352   -0.252211    0.004393
      2          6           0       -0.008076    0.566051    0.006611
      3          6           0       -1.317886   -0.271859    0.015215
      4          1           0        1.744793   -0.573740    0.999052
      5          1           0        1.192475   -1.127803   -0.648010
      6          1           0        2.062340    0.378958   -0.484073
      7          1           0       -0.014594    1.233465    0.878030
      8          1           0       -0.030950    1.213848   -0.879876
      9          1           0       -2.182987    0.379428    0.192962
     10          1           0       -1.471132   -0.737158   -0.968488
     11          1           0       -1.200285   -1.018878    0.753088
 ---------------------------------------------------------------------

 SCF Done:  E(RB3LYP) =  -119.136301480     A.U. after   11 cycles

 The electronic state is 1-A.
 Alpha  occ. eigenvalues --  -10.17929 -10.17501 -10.16710  -0.76869  -0.67598
 Alpha  occ. eigenvalues --   -0.57826  -0.44926  -0.43018  -0.39314  -0.37895
 Alpha  occ. eigenvalues --   -0.33855  -0.32493  -0.31847
 Alpha virt. eigenvalues --    0.09496   0.13548   0.15031   0.15684   0.16793
 Alpha virt. eigenvalues --    0.17534   0.18174   0.22499   0.23978   0.26044
 Alpha virt. eigenvalues --    0.51389   0.52555   0.54248   0.57723   0.59667

 Mulliken charges:
               1
     1  C   -0.442980
     2  C   -0.244967
     3  C   -0.439047
     4  H    0.138836
     5  H    0.143043
     6  H    0.143750
     7  H    0.134297
     8  H    0.133438
     9  H    0.140979
    10  H    0.139393
    11  H    0.153258
 Sum of Mulliken charges =  -0.00000

 Dipole moment (field-independent basis, Debye):
    X=              0.0230    Y=              0.0772    Z=             -0.0451  Tot=              0.0923
 Quadrupole moment (field-independent basis, Debye-Ang):
   XX=            -21.9290   YY=            -21.6483   ZZ=            -21.1295
   XY=             -0.1855   XZ=              0.1691   YZ=             -0.0823

 Normal termination of Gaussian 16 at Fri Sep 22 17:01:39 2023.
