 Gaussian 16, Revision A.03,
 Gaussian 16:  ES64L-G16RevA.03 25-Dec-2016

 ----------------
 # b3lyp/6-31g(d)
 ----------------

 --------------------
 tmpdir/M2_ref_79.gjf
 --------------------
 Symbolic Z-matrix:
 Charge =  0 Multiplicity = 1

                         Standard orientation:
 ---------------------------------------------------------------------
 Center     Atomic      Atomic             Coordinates (Angstroms)
 Number     Number       Type             X           Y           Z
 ---------------------------------------------------------------------
      1          6           0        0.809564    0.485036   -0.003286
      2          6           0       -0.583251    0.644049   -0.001659
      3          6           0       -1.422462   -0.468251    0.001253
      4          1           0        1.467130    1.360649    0.014820
      5          8           0        1.280822   -0.654826    0.000336
      6          1           0       -1.006906    1.645566    0.002585
      7          1           0       -1.029307   -1.400630    0.002319
      8          1           0       -2.500602   -0.331981   -0.000259
 ---------------------------------------------------------------------

 SCF Done:  E(RB3LYP) =  -191.895951646     A.U. after   14 cycles

 The electronic state is 1-A.
 Alpha  occ. eigenvalues --  -19.13705 -10.26768 -10.21589 -10.20671  -1.02971
 Alpha  occ. eigenvalues --   -0.79110  -0.67230  -0.55011  -0.51642  -0.44551
 Alpha  occ. eigenvalues --   -0.42022  -0.39343  -0.38947  -0.27463  -0.25369
 Alpha virt. eigenvalues --   -0.07958   0.06928   0.10530   0.13959   0.16460
 Alpha virt. eigenvalues --    0.20062   0.25191   0.31228   0.35883   0.51458
 Alpha virt. eigenvalues --    0.52638   0.57328   0.57937   0.59835   0.63381

 Mulliken charges:
               1
     1  C    0.221933
     2  C   -0.139941
     3  C   -0.272361
     4  H    0.115173
     5  O   -0.418241
     6  H    0.138085
     7  H    0.193995
     8  H    0.161358
 Sum of Mulliken charges =  -0.00000

 Dipole moment (field-independent basis, Debye):
    X=             -2.0719    Y=              1.6902    Z=              0.0028  Tot=              2.6739
 Quadrupole moment (field-independent basis, Debye-Ang):
   XX=            -23.2378   YY=            -22.0374   ZZ=            -24.2118
   XY=              3.0814   XZ=             -0.0017   YZ=              0.0051

 Normal termination of Gaussian 16 at Fri Sep 22 17:01:59 2023.
