 Gaussian 16, Revision A.03,
 Gaussian 16:  ES64L-G16RevA.03 25-Dec-2016

 ----------------
 # b3lyp/6-31g(d)
 ----------------

 --------------------
 tmpdir/M2_ref_67.gjf
 --------------------
 Symbolic Z-matrix:
 Charge = -1 Multiplicity = 1

                         Standard orientation:
 ---------------------------------------------------------------------
 Center     Atomic      Atomic             Coordinates (Angstroms)
 Number     Number       Type             X           Y           Z
 ---------------------------------------------------------------------
      1          7           0       -0.820525    0.127907   -0.011465
      2          6           0        0.664363   -0.024111   -0.004714
      3          1           0        0.982257   -0.493612    0.935303
      4          1           0       -1.311389   -0.679777    0.039947
      5          1           0        1.032693    1.004110   -0.003466
      6          1           0        1.053937   -0.581408   -0.863242
 ---------------------------------------------------------------------

 SCF Done:  E(RB3LYP) =  -95.1450800540     A.U. after   13 cycles

 The electronic state is 1-A.
 Alpha  occ. eigenvalues --  -13.92051  -9.94165  -0.50767  -0.36233  -0.16909
 Alpha  occ. eigenvalues --   -0.15693  -0.09580   0.08847   0.14827
 Alpha virt. eigenvalues --    0.33310   0.39259   0.40186   0.40569   0.50451
 Alpha virt. eigenvalues --    0.81217   0.81760   0.84910   1.05044   1.07154
 Alpha virt. eigenvalues --    1.08291   1.12737   1.14015   1.19121   1.25325

 Mulliken charges:
               1
     1  N   -0.920546
     2  C   -0.242129
     3  H   -0.008350
     4  H    0.140398
     5  H    0.043969
     6  H   -0.013343
 Sum of Mulliken charges =  -1.00000

 Dipole moment (field-independent basis, Debye):
    X=              2.3488    Y=             -1.2504    Z=              0.1245  Tot=              2.6638
 Quadrupole moment (field-independent basis, Debye-Ang):
   XX=            -20.6726   YY=            -16.6361   ZZ=            -17.7113
   XY=              2.4432   XZ=             -0.1702   YZ=             -0.0224

 Normal termination of Gaussian 16 at Fri Sep 22 17:01:50 2023.
