 Gaussian 16, Revision A.03,
 Gaussian 16:  ES64L-G16RevA.03 25-Dec-2016

 ----------------
 # b3lyp/6-31g(d)
 ----------------

 --------------------
 tmpdir/M2_ref_93.gjf
 --------------------
 Symbolic Z-matrix:
 Charge =  0 Multiplicity = 1

                         Standard orientation:
 ---------------------------------------------------------------------
 Center     Atomic      Atomic             Coordinates (Angstroms)
 Number     Number       Type             X           Y           Z
 ---------------------------------------------------------------------
      1          6           0        0.548874   -0.013346   -0.000015
      2          1           0        1.111296    0.916405    0.000031
      3          1           0        1.039216   -0.897571    0.000033
      4          8           0       -0.680469    0.007655    0.000003
 ---------------------------------------------------------------------

 SCF Done:  E(RB3LYP) =  -114.492779371     A.U. after   11 cycles

 The electronic state is 1-A.
 Alpha  occ. eigenvalues --  -19.16431 -10.27817  -1.04504  -0.65359  -0.50870
 Alpha  occ. eigenvalues --   -0.44138  -0.38876  -0.26668
 Alpha virt. eigenvalues --   -0.04688   0.11728   0.19276   0.21695   0.51098
 Alpha virt. eigenvalues --    0.59713   0.63225   0.67010   0.84665   0.86306
 Alpha virt. eigenvalues --    0.94299   0.96288   1.06168   1.37117   1.49997

 Mulliken charges:
               1
     1  C    0.075231
     2  H    0.126323
     3  H    0.143238
     4  O   -0.344792
 Sum of Mulliken charges =   0.00000

 Dipole moment (field-independent basis, Debye):
    X=              2.3370    Y=             -0.1030    Z=              0.0000  Tot=              2.3393
 Quadrupole moment (field-independent basis, Debye-Ang):
   XX=            -11.8286   YY=            -11.2996   ZZ=            -11.3302
   XY=             -0.0496   XZ=              0.0000   YZ=              0.0000

 Normal termination of Gaussian 16 at Fri Sep 22 17:01:58 2023.
