 Gaussian 16, Revision A.03,
 Gaussian 16:  ES64L-G16RevA.03 25-Dec-2016

 ----------------
 # b3lyp/6-31g(d)
 ----------------

 --------------------
 tmpdir/M2_ref_88.gjf
 --------------------
 Symbolic Z-matrix:
 Charge =  0 Multiplicity = 1

                         Standard orientation:
 ---------------------------------------------------------------------
 Center     Atomic      Atomic             Coordinates (Angstroms)
 Number     Number       Type             X           Y           Z
 ---------------------------------------------------------------------
      1          6           0        0.548561   -0.013329   -0.000350
      2          1           0        1.104723    0.920288    0.000709
      3          8           0       -0.679692    0.007092    0.000078
      4          1           0        1.041446   -0.897051    0.000763
 ---------------------------------------------------------------------

 SCF Done:  E(RB3LYP) =  -114.492901051     A.U. after   11 cycles

 The electronic state is 1-A.
 Alpha  occ. eigenvalues --  -19.16412 -10.27806  -1.04558  -0.65311  -0.50903
 Alpha  occ. eigenvalues --   -0.44133  -0.38905  -0.26653
 Alpha virt. eigenvalues --   -0.04653   0.11712   0.19275   0.21720   0.51091
 Alpha virt. eigenvalues --    0.59711   0.63345   0.67054   0.84731   0.86267
 Alpha virt. eigenvalues --    0.94219   0.96297   1.06201   1.37158   1.50047

 Mulliken charges:
               1
     1  C    0.075324
     2  H    0.126016
     3  O   -0.344375
     4  H    0.143036
 Sum of Mulliken charges =  -0.00000

 Dipole moment (field-independent basis, Debye):
    X=              2.3325    Y=             -0.1019    Z=              0.0001  Tot=              2.3347
 Quadrupole moment (field-independent basis, Debye-Ang):
   XX=            -11.8370   YY=            -11.2938   ZZ=            -11.3291
   XY=             -0.0566   XZ=              0.0005   YZ=              0.0000

 Normal termination of Gaussian 16 at Fri Sep 22 17:02:02 2023.
