 Gaussian 16, Revision A.03,
 Gaussian 16:  ES64L-G16RevA.03 25-Dec-2016

 ----------------
 # b3lyp/6-31g(d)
 ----------------

 --------------------
 tmpdir/M2_ref_98.gjf
 --------------------
 Symbolic Z-matrix:
 Charge =  0 Multiplicity = 1

                         Standard orientation:
 ---------------------------------------------------------------------
 Center     Atomic      Atomic             Coordinates (Angstroms)
 Number     Number       Type             X           Y           Z
 ---------------------------------------------------------------------
      1          6           0       -0.801168    0.481552   -0.000534
      2          6           0        0.586890    0.646672   -0.000196
      3          6           0        1.417970   -0.473275   -0.000005
      4          8           0       -1.287432   -0.646529    0.000245
      5          1           0       -1.452916    1.351138    0.001149
      6          1           0        1.016487    1.644779    0.001021
      7          1           0        1.015887   -1.400970   -0.000405
      8          1           0        2.497853   -0.352408    0.000689
 ---------------------------------------------------------------------

 SCF Done:  E(RB3LYP) =  -191.895763724     A.U. after   14 cycles

 The electronic state is 1-A.
 Alpha  occ. eigenvalues --  -19.13626 -10.26555 -10.21630 -10.20660  -1.03176
 Alpha  occ. eigenvalues --   -0.79222  -0.67279  -0.55064  -0.51769  -0.44572
 Alpha  occ. eigenvalues --   -0.41987  -0.39455  -0.39066  -0.27506  -0.25330
 Alpha virt. eigenvalues --   -0.07930   0.07070   0.10582   0.14083   0.16630
 Alpha virt. eigenvalues --    0.20033   0.25370   0.31237   0.36005   0.51439
 Alpha virt. eigenvalues --    0.52709   0.57524   0.57955   0.59668   0.63457

 Mulliken charges:
               1
     1  C    0.222756
     2  C   -0.140911
     3  C   -0.272827
     4  O   -0.417640
     5  H    0.112619
     6  H    0.139998
     7  H    0.194542
     8  H    0.161464
 Sum of Mulliken charges =  -0.00000

 Dipole moment (field-independent basis, Debye):
    X=              2.1184    Y=              1.6630    Z=              0.0001  Tot=              2.6932
 Quadrupole moment (field-independent basis, Debye-Ang):
   XX=            -23.2870   YY=            -22.0144   ZZ=            -24.1850
   XY=             -3.0229   XZ=              0.0026   YZ=              0.0022

 Normal termination of Gaussian 16 at Fri Sep 22 17:02:10 2023.
