 Gaussian 16, Revision A.03,
 Gaussian 16:  ES64L-G16RevA.03 25-Dec-2016

 ----------------
 # b3lyp/6-31g(d)
 ----------------

 --------------------
 tmpdir/M2_ref_77.gjf
 --------------------
 Symbolic Z-matrix:
 Charge =  0 Multiplicity = 1

                         Standard orientation:
 ---------------------------------------------------------------------
 Center     Atomic      Atomic             Coordinates (Angstroms)
 Number     Number       Type             X           Y           Z
 ---------------------------------------------------------------------
      1          6           0        0.695965   -0.008114   -0.000737
      2          6           0       -0.697410   -0.008704    0.000421
      3          1           0        1.211700   -0.882080   -0.000568
      4          1           0        1.239889    0.933517    0.003440
      5          1           0       -1.204545   -0.884326    0.001547
      6          1           0       -1.238376    0.933796   -0.002524
 ---------------------------------------------------------------------

 SCF Done:  E(RB3LYP) =  -78.5753424669     A.U. after   10 cycles

 The electronic state is 1-A.
 Alpha  occ. eigenvalues --  -10.18360 -10.18298  -0.74732  -0.59097  -0.47263
 Alpha  occ. eigenvalues --   -0.40434  -0.37129  -0.25610
 Alpha virt. eigenvalues --    0.00578   0.12405   0.16191   0.16756   0.24409
 Alpha virt. eigenvalues --    0.31053   0.49228   0.55686   0.55775   0.63309
 Alpha virt. eigenvalues --    0.65254   0.65880   0.87985   0.88175   0.96086

 Mulliken charges:
               1
     1  C   -0.296050
     2  C   -0.295174
     3  H    0.151498
     4  H    0.143834
     5  H    0.151616
     6  H    0.144275
 Sum of Mulliken charges =  -0.00000

 Dipole moment (field-independent basis, Debye):
    X=              0.0016    Y=             -0.0439    Z=              0.0017  Tot=              0.0440
 Quadrupole moment (field-independent basis, Debye-Ang):
   XX=            -11.9818   YY=            -11.9601   ZZ=            -15.0449
   XY=             -0.0045   XZ=              0.0045   YZ=             -0.0001

 Normal termination of Gaussian 16 at Fri Sep 22 17:02:04 2023.
