 Gaussian 16, Revision A.03,
 Gaussian 16:  ES64L-G16RevA.03 25-Dec-2016

 ----------------
 # b3lyp/6-31g(d)
 ----------------

 --------------------
 tmpdir/M2_ref_72.gjf
 --------------------
 Symbolic Z-matrix:
 Charge =  0 Multiplicity = 1

                         Standard orientation:
 ---------------------------------------------------------------------
 Center     Atomic      Atomic             Coordinates (Angstroms)
 Number     Number       Type             X           Y           Z
 ---------------------------------------------------------------------
      1          6           0        0.705985    0.488276   -0.003452
      2          6           0       -0.695874    0.485133   -0.001618
      3          1           0        1.257869    1.434067    0.014466
      4          6           0        1.386472   -0.734147    0.000692
      5          6           0       -1.400808   -0.716763    0.001533
      6          1           0       -1.232519    1.430932    0.002600
 ---------------------------------------------------------------------

 SCF Done:  E(RB3LYP) =  -153.300160148     A.U. after   16 cycles

 The electronic state is 1-A.
 Alpha  occ. eigenvalues --  -10.27393 -10.27208 -10.23142 -10.22957  -0.84701
 Alpha  occ. eigenvalues --   -0.71955  -0.60646  -0.49579  -0.48907  -0.35843
 Alpha  occ. eigenvalues --   -0.31684  -0.29662  -0.23995
 Alpha virt. eigenvalues --   -0.13191  -0.09886  -0.06208   0.06676   0.10603
 Alpha virt. eigenvalues --    0.14541   0.25566   0.35156   0.37790   0.48229
 Alpha virt. eigenvalues --    0.50316   0.52979   0.55097   0.55904   0.58376

 Mulliken charges:
               1
     1  C   -0.210211
     2  C   -0.214476
     3  H    0.206181
     4  C    0.006313
     5  C    0.004651
     6  H    0.207543
 Sum of Mulliken charges =  -0.00000

 Dipole moment (field-independent basis, Debye):
    X=              0.0724    Y=              3.4966    Z=              0.0168  Tot=              3.4974
 Quadrupole moment (field-independent basis, Debye-Ang):
   XX=            -24.2262   YY=            -23.4105   ZZ=            -25.3072
   XY=             -0.0322   XZ=              0.0312   YZ=              0.0406

 Normal termination of Gaussian 16 at Fri Sep 22 17:01:52 2023.
