 Gaussian 16, Revision A.03,
 Gaussian 16:  ES64L-G16RevA.03 25-Dec-2016

 ----------------
 # b3lyp/6-31g(d)
 ----------------

 --------------------
 tmpdir/M2_ref_89.gjf
 --------------------
 Symbolic Z-matrix:
 Charge =  0 Multiplicity = 1

                         Standard orientation:
 ---------------------------------------------------------------------
 Center     Atomic      Atomic             Coordinates (Angstroms)
 Number     Number       Type             X           Y           Z
 ---------------------------------------------------------------------
      1          6           0        1.419118   -0.470717   -0.000819
      2          6           0        0.584692    0.645180    0.000241
      3          6           0       -0.803648    0.482450    0.000234
      4          1           0        1.027646   -1.406958   -0.001707
      5          1           0        2.499012   -0.342887    0.004575
      6          1           0        1.015969    1.642655   -0.001563
      7          8           0       -1.286211   -0.648416    0.000201
      8          1           0       -1.453910    1.353042   -0.000846
 ---------------------------------------------------------------------

 SCF Done:  E(RB3LYP) =  -191.896190733     A.U. after   14 cycles

 The electronic state is 1-A.
 Alpha  occ. eigenvalues --  -19.13637 -10.26578 -10.21649 -10.20643  -1.03126
 Alpha  occ. eigenvalues --   -0.79198  -0.67271  -0.55082  -0.51728  -0.44564
 Alpha  occ. eigenvalues --   -0.41963  -0.39434  -0.39017  -0.27502  -0.25337
 Alpha virt. eigenvalues --   -0.07931   0.07065   0.10560   0.14036   0.16610
 Alpha virt. eigenvalues --    0.19974   0.25329   0.31269   0.36060   0.51435
 Alpha virt. eigenvalues --    0.52718   0.57474   0.57948   0.59732   0.63406

 Mulliken charges:
               1
     1  C   -0.272910
     2  C   -0.140195
     3  C    0.222683
     4  H    0.194331
     5  H    0.160920
     6  H    0.139600
     7  O   -0.417769
     8  H    0.113339
 Sum of Mulliken charges =  -0.00000

 Dipole moment (field-independent basis, Debye):
    X=              2.1085    Y=              1.6695    Z=              0.0006  Tot=              2.6894
 Quadrupole moment (field-independent basis, Debye-Ang):
   XX=            -23.2804   YY=            -22.0082   ZZ=            -24.1897
   XY=             -3.0442   XZ=              0.0069   YZ=             -0.0012

 Normal termination of Gaussian 16 at Fri Sep 22 17:02:10 2023.
