 Gaussian 16, Revision A.03,
 Gaussian 16:  ES64L-G16RevA.03 25-Dec-2016

 ----------------
 # b3lyp/6-31g(d)
 ----------------

 --------------------
 tmpdir/M2_ref_97.gjf
 --------------------
 Symbolic Z-matrix:
 Charge =  0 Multiplicity = 1

                         Standard orientation:
 ---------------------------------------------------------------------
 Center     Atomic      Atomic             Coordinates (Angstroms)
 Number     Number       Type             X           Y           Z
 ---------------------------------------------------------------------
      1          6           0       -0.549097   -0.013207   -0.000147
      2          1           0       -1.110544    0.917142    0.000298
      3          1           0       -1.036857   -0.899768    0.000319
      4          8           0        0.680248    0.007733    0.000033
 ---------------------------------------------------------------------

 SCF Done:  E(RB3LYP) =  -114.492844222     A.U. after   11 cycles

 The electronic state is 1-A.
 Alpha  occ. eigenvalues --  -19.16418 -10.27819  -1.04500  -0.65321  -0.50893
 Alpha  occ. eigenvalues --   -0.44118  -0.38871  -0.26659
 Alpha virt. eigenvalues --   -0.04682   0.11706   0.19258   0.21705   0.51099
 Alpha virt. eigenvalues --    0.59685   0.63319   0.66964   0.84678   0.86337
 Alpha virt. eigenvalues --    0.94217   0.96293   1.06191   1.37119   1.50012

 Mulliken charges:
               1
     1  C    0.075176
     2  H    0.126559
     3  H    0.143117
     4  O   -0.344852
 Sum of Mulliken charges =  -0.00000

 Dipole moment (field-independent basis, Debye):
    X=             -2.3365    Y=             -0.1019    Z=              0.0001  Tot=              2.3387
 Quadrupole moment (field-independent basis, Debye-Ang):
   XX=            -11.8340   YY=            -11.2932   ZZ=            -11.3316
   XY=              0.0465   XZ=             -0.0002   YZ=              0.0000

 Normal termination of Gaussian 16 at Fri Sep 22 17:02:02 2023.
