 Gaussian 16, Revision A.03,
 Gaussian 16:  ES64L-G16RevA.03 25-Dec-2016

 ----------------
 # b3lyp/6-31g(d)
 ----------------

 --------------------
 tmpdir/M2_ref_39.gjf
 --------------------
 Symbolic Z-matrix:
 Charge =  0 Multiplicity = 1

                         Standard orientation:
 ---------------------------------------------------------------------
 Center     Atomic      Atomic             Coordinates (Angstroms)
 Number     Number       Type             X           Y           Z
 ---------------------------------------------------------------------
      1          6           0        0.005403   -0.010911   -0.000055
      2          1           0       -0.166762    0.551858    0.925518
      3          1           0        1.005631   -0.519940    0.037384
      4          1           0       -0.883470   -0.686473   -0.143444
      5          1           0        0.012183    0.720023   -0.819129
 ---------------------------------------------------------------------

 SCF Done:  E(RB3LYP) =  -40.5160087959     A.U. after    9 cycles

 The electronic state is 1-A.
 Alpha  occ. eigenvalues --  -10.17420  -0.68556  -0.39382  -0.38413  -0.37992
 Alpha virt. eigenvalues --    0.11235   0.16716   0.17093   0.17474   0.53152
 Alpha virt. eigenvalues --    0.53410   0.55186   0.87047   0.88383   0.89105
 Alpha virt. eigenvalues --    0.93345   1.09549   1.65834   1.66289   2.17956

 Mulliken charges:
               1
     1  C   -0.621333
     2  H    0.157437
     3  H    0.154532
     4  H    0.152329
     5  H    0.157035
 Sum of Mulliken charges =   0.00000

 Dipole moment (field-independent basis, Debye):
    X=             -0.0169    Y=              0.0685    Z=              0.0042  Tot=              0.0707
 Quadrupole moment (field-independent basis, Debye-Ang):
   XX=             -8.0724   YY=             -8.4109   ZZ=             -8.4135
   XY=             -0.0143   XZ=             -0.0066   YZ=             -0.0016

 Normal termination of Gaussian 16 at Fri Sep 22 17:01:38 2023.
