 Gaussian 16, Revision A.03,
 Gaussian 16:  ES64L-G16RevA.03 25-Dec-2016

 ----------------
 # b3lyp/6-31g(d)
 ----------------

 --------------------
 tmpdir/M2_ref_58.gjf
 --------------------
 Symbolic Z-matrix:
 Charge =  0 Multiplicity = 1

                         Standard orientation:
 ---------------------------------------------------------------------
 Center     Atomic      Atomic             Coordinates (Angstroms)
 Number     Number       Type             X           Y           Z
 ---------------------------------------------------------------------
      1          7           0       -1.118734   -0.137627    0.000112
      2          7           0        0.107933    0.012522   -0.000288
      3          1           0       -1.678225    0.745154    0.000152
      4          7           0        1.250547    0.018654    0.000154
 ---------------------------------------------------------------------

 SCF Done:  E(RB3LYP) =  -164.780945058     A.U. after   13 cycles

 The electronic state is 1-A.
 Alpha  occ. eigenvalues --  -14.52625 -14.41556 -14.39025  -1.14594  -0.97996
 Alpha  occ. eigenvalues --   -0.62962  -0.51194  -0.51111  -0.45573  -0.31995
 Alpha  occ. eigenvalues --   -0.27502
 Alpha virt. eigenvalues --   -0.03554   0.00944   0.07832   0.23153   0.44169
 Alpha virt. eigenvalues --    0.50789   0.60638   0.60740   0.65230   0.70740
 Alpha virt. eigenvalues --    0.71217   0.74769   0.81904   0.86164   0.92257

 Mulliken charges:
               1
     1  N   -0.497426
     2  N    0.387612
     3  H    0.359358
     4  N   -0.249544
 Sum of Mulliken charges =  -0.00000

 Dipole moment (field-independent basis, Debye):
    X=             -1.2801    Y=              1.6228    Z=             -0.0005  Tot=              2.0669
 Quadrupole moment (field-independent basis, Debye-Ang):
   XX=            -17.9059   YY=            -15.5751   ZZ=            -16.9008
   XY=             -2.9535   XZ=             -0.0004   YZ=              0.0002

 Normal termination of Gaussian 16 at Fri Sep 22 17:01:54 2023.
