 Gaussian 16, Revision A.03,
 Gaussian 16:  ES64L-G16RevA.03 25-Dec-2016

 ----------------
 # b3lyp/6-31g(d)
 ----------------

 --------------------
 tmpdir/M2_ref_83.gjf
 --------------------
 Symbolic Z-matrix:
 Charge =  0 Multiplicity = 1

                         Standard orientation:
 ---------------------------------------------------------------------
 Center     Atomic      Atomic             Coordinates (Angstroms)
 Number     Number       Type             X           Y           Z
 ---------------------------------------------------------------------
      1          6           0       -0.550802   -0.013765   -0.000612
      2          1           0       -1.103550    0.923200    0.001234
      3          8           0        0.682475    0.006449    0.000137
      4          1           0       -1.051439   -0.892200    0.001342
 ---------------------------------------------------------------------

 SCF Done:  E(RB3LYP) =  -114.492610298     A.U. after   11 cycles

 The electronic state is 1-A.
 Alpha  occ. eigenvalues --  -19.16460 -10.27884  -1.04301  -0.65418  -0.50803
 Alpha  occ. eigenvalues --   -0.44090  -0.38761  -0.26683
 Alpha virt. eigenvalues --   -0.04799   0.11687   0.19227   0.21615   0.51120
 Alpha virt. eigenvalues --    0.59542   0.63217   0.66693   0.84735   0.86189
 Alpha virt. eigenvalues --    0.94263   0.96271   1.06145   1.36998   1.49817

 Mulliken charges:
               1
     1  C    0.074504
     2  H    0.126824
     3  O   -0.346099
     4  H    0.144771
 Sum of Mulliken charges =  -0.00000

 Dipole moment (field-independent basis, Debye):
    X=             -2.3506    Y=             -0.1032    Z=              0.0002  Tot=              2.3528
 Quadrupole moment (field-independent basis, Debye-Ang):
   XX=            -11.8197   YY=            -11.2995   ZZ=            -11.3410
   XY=              0.0689   XZ=             -0.0009   YZ=              0.0001

 Normal termination of Gaussian 16 at Fri Sep 22 17:02:01 2023.
