 Gaussian 16, Revision A.03,
 Gaussian 16:  ES64L-G16RevA.03 25-Dec-2016

 ----------------
 # b3lyp/6-31g(d)
 ----------------

 ---------------------
 tmpdir/M2_ref_106.gjf
 ---------------------
 Symbolic Z-matrix:
 Charge =  0 Multiplicity = 1

                         Standard orientation:
 ---------------------------------------------------------------------
 Center     Atomic      Atomic             Coordinates (Angstroms)
 Number     Number       Type             X           Y           Z
 ---------------------------------------------------------------------
      1          8           0       -0.739441    0.123072    0.000815
      2          6           0        0.666675   -0.022730    0.000630
      3          1           0        1.084925    0.979583   -0.123883
      4          1           0       -1.229643   -0.723284    0.008395
      5          1           0        1.051906   -0.448035    0.939231
      6          1           0        1.008292   -0.656464   -0.834041
 ---------------------------------------------------------------------

 SCF Done:  E(RB3LYP) =  -115.713023273     A.U. after   11 cycles

 The electronic state is 1-A.
 Alpha  occ. eigenvalues --  -19.13668 -10.22470  -1.00461  -0.67937  -0.50237
 Alpha  occ. eigenvalues --   -0.43277  -0.42192  -0.31993  -0.26164
 Alpha virt. eigenvalues --    0.07361   0.12942   0.16863   0.17619   0.20911
 Alpha virt. eigenvalues --    0.53726   0.56282   0.57797   0.78398   0.84996
 Alpha virt. eigenvalues --    0.86954   0.90242   0.95765   0.97677   1.01571

 Mulliken charges:
               1
     1  O   -0.616265
     2  C   -0.192095
     3  H    0.161423
     4  H    0.390961
     5  H    0.128901
     6  H    0.127074
 Sum of Mulliken charges =   0.00000

 Dipole moment (field-independent basis, Debye):
    X=              0.5946    Y=             -1.4913    Z=             -0.0070  Tot=              1.6055
 Quadrupole moment (field-independent basis, Debye-Ang):
   XX=            -12.1369   YY=            -12.1406   ZZ=            -13.5868
   XY=              2.3274   XZ=             -0.0290   YZ=             -0.0282

 Normal termination of Gaussian 16 at Fri Sep 22 17:02:05 2023.
