 Gaussian 16, Revision A.03,
 Gaussian 16:  ES64L-G16RevA.03 25-Dec-2016

 ----------------
 # b3lyp/6-31g(d)
 ----------------

 --------------------
 tmpdir/M2_ref_55.gjf
 --------------------
 Symbolic Z-matrix:
 Charge =  0 Multiplicity = 1

                         Standard orientation:
 ---------------------------------------------------------------------
 Center     Atomic      Atomic             Coordinates (Angstroms)
 Number     Number       Type             X           Y           Z
 ---------------------------------------------------------------------
      1          6           0       -0.606048   -0.063019    0.010493
      2          6           0        0.604149   -0.052188   -0.011066
      3          1           0       -1.576379    0.359500   -0.023010
      4          1           0        1.587771    0.331742    0.026450
 ---------------------------------------------------------------------

 SCF Done:  E(RB3LYP) =  -77.3124687008     A.U. after   11 cycles

 The electronic state is 1-A.
 Alpha  occ. eigenvalues --  -10.19223 -10.18974  -0.74501  -0.56388  -0.48823
 Alpha  occ. eigenvalues --   -0.28204  -0.28130
 Alpha virt. eigenvalues --    0.00072   0.05037   0.15109   0.15515   0.42406
 Alpha virt. eigenvalues --    0.47070   0.53363   0.53501   0.62263   0.65310
 Alpha virt. eigenvalues --    0.73706   0.83493   0.93289   1.13691   1.20536

 Mulliken charges:
               1
     1  C   -0.205930
     2  C   -0.183094
     3  H    0.195186
     4  H    0.193838
 Sum of Mulliken charges =  -0.00000

 Dipole moment (field-independent basis, Debye):
    X=              0.0399    Y=              0.7734    Z=              0.0035  Tot=              0.7744
 Quadrupole moment (field-independent basis, Debye-Ang):
   XX=             -7.5268   YY=            -12.6298   ZZ=            -13.0483
   XY=             -0.0612   XZ=              0.1110   YZ=              0.0004

 Normal termination of Gaussian 16 at Fri Sep 22 17:01:50 2023.
