 Gaussian 16, Revision A.03,
 Gaussian 16:  ES64L-G16RevA.03 25-Dec-2016

 ----------------
 # b3lyp/6-31g(d)
 ----------------

 -----------------------
 tmpdir/M3_conf_0_10.gjf
 -----------------------
 Symbolic Z-matrix:
 Charge =  0 Multiplicity = 1

                         Standard orientation:
 ---------------------------------------------------------------------
 Center     Atomic      Atomic             Coordinates (Angstroms)
 Number     Number       Type             X           Y           Z
 ---------------------------------------------------------------------
      1          6           0       -0.772298   -0.002125   -0.014582
      2          6           0        0.772867    0.007414   -0.010500
      3          1           0       -1.314107    0.831691   -0.556373
      4          1           0       -1.129028   -0.973888   -0.381282
      5          1           0       -1.082801    0.046348    1.036751
      6          1           0        1.263786   -0.497817   -0.888410
      7          1           0        1.125349    1.045912    0.036747
      8          1           0        1.133386   -0.483983    0.903059
 ---------------------------------------------------------------------

 SCF Done:  E(RB3LYP) =  -79.8246045723     A.U. after   10 cycles

 The electronic state is 1-A.
 Alpha  occ. eigenvalues --  -10.17726 -10.17700  -0.74363  -0.60899  -0.42822
 Alpha  occ. eigenvalues --   -0.42652  -0.36291  -0.33796  -0.33517
 Alpha virt. eigenvalues --    0.10212   0.13751   0.14347   0.15799   0.20322
 Alpha virt. eigenvalues --    0.21331   0.23768   0.51651   0.54172   0.54526
 Alpha virt. eigenvalues --    0.64892   0.66068   0.66785   0.86504   0.86855

 Mulliken charges:
               1
     1  C   -0.432959
     2  C   -0.433066
     3  H    0.140702
     4  H    0.146296
     5  H    0.145644
     6  H    0.140238
     7  H    0.146510
     8  H    0.146635
 Sum of Mulliken charges =  -0.00000

 Dipole moment (field-independent basis, Debye):
    X=              0.0022    Y=             -0.0185    Z=              0.1031  Tot=              0.1048
 Quadrupole moment (field-independent basis, Debye-Ang):
   XX=            -15.2684   YY=            -14.7128   ZZ=            -14.8250
   XY=             -0.1352   XZ=              0.0326   YZ=             -0.0038

 Normal termination of Gaussian 16 at Fri Sep 22 17:01:06 2023.
