 Gaussian 16, Revision A.03,
 Gaussian 16:  ES64L-G16RevA.03 25-Dec-2016

 ----------------
 # b3lyp/6-31g(d)
 ----------------

 -----------------------
 tmpdir/M3_conf_0_70.gjf
 -----------------------
 Symbolic Z-matrix:
 Charge =  0 Multiplicity = 1

                         Standard orientation:
 ---------------------------------------------------------------------
 Center     Atomic      Atomic             Coordinates (Angstroms)
 Number     Number       Type             X           Y           Z
 ---------------------------------------------------------------------
      1          1           0       -2.815412   -0.720638   -0.702290
      2          6           0       -2.418735    0.011469    0.004511
      3          6           0       -0.905942    0.006799   -0.012923
      4          6           0       -0.200391   -1.204607   -0.009412
      5          6           0       -0.189450    1.208475   -0.003562
      6          6           0        1.192952   -1.211966    0.000545
      7          1           0       -0.749716   -2.143052   -0.009236
      8          6           0        1.207215    1.203939    0.004882
      9          1           0       -0.726681    2.154464   -0.007493
     10          6           0        1.900370   -0.006205    0.006980
     11          1           0        1.728537   -2.157518    0.000372
     12          1           0        1.750598    2.144901    0.009637
     13          1           0        2.986940   -0.012391    0.012735
     14          1           0       -2.883067   -0.310408    1.032824
     15          1           0       -2.807317    0.997213   -0.282677
 ---------------------------------------------------------------------

 SCF Done:  E(RB3LYP) =  -271.563094261     A.U. after   13 cycles

 The electronic state is 1-A.
 Alpha  occ. eigenvalues --  -10.19320 -10.18803 -10.18519 -10.18492 -10.18329
 Alpha  occ. eigenvalues --  -10.18269 -10.18238  -0.84827  -0.76339  -0.73804
 Alpha  occ. eigenvalues --   -0.67622  -0.59911  -0.57695  -0.50500  -0.45222
 Alpha  occ. eigenvalues --   -0.45080  -0.41518  -0.40515  -0.40164  -0.38167
 Alpha  occ. eigenvalues --   -0.34600  -0.33566  -0.33489  -0.24455  -0.23514
 Alpha virt. eigenvalues --    0.00294   0.00650   0.09518   0.11621   0.13593
 Alpha virt. eigenvalues --    0.14061   0.16276   0.17459   0.18835   0.19232
 Alpha virt. eigenvalues --    0.20362   0.24072   0.31058   0.32052   0.32949

 Mulliken charges:
               1
     1  H    0.160591
     2  C   -0.525018
     3  C    0.181722
     4  C   -0.173659
     5  C   -0.179030
     6  C   -0.128766
     7  H    0.121627
     8  C   -0.127080
     9  H    0.121433
    10  C   -0.132283
    11  H    0.127092
    12  H    0.127136
    13  H    0.126007
    14  H    0.145446
    15  H    0.154781
 Sum of Mulliken charges =  -0.00000

 Dipole moment (field-independent basis, Debye):
    X=             -0.2501    Y=             -0.0421    Z=             -0.0301  Tot=              0.2554
 Quadrupole moment (field-independent basis, Debye-Ang):
   XX=            -38.0542   YY=            -38.1743   ZZ=            -44.9384
   XY=              0.1321   XZ=              0.1006   YZ=             -0.0801

 Normal termination of Gaussian 16 at Fri Sep 22 17:02:04 2023.
