 Gaussian 16, Revision A.03,
 Gaussian 16:  ES64L-G16RevA.03 25-Dec-2016

 ----------------
 # b3lyp/6-31g(d)
 ----------------

 -----------------------
 tmpdir/M3_conf_0_50.gjf
 -----------------------
 Symbolic Z-matrix:
 Charge =  0 Multiplicity = 1

                         Standard orientation:
 ---------------------------------------------------------------------
 Center     Atomic      Atomic             Coordinates (Angstroms)
 Number     Number       Type             X           Y           Z
 ---------------------------------------------------------------------
      1          6           0        1.415628   -0.526765    0.009182
      2          6           0        0.484346    0.717475   -0.041847
      3          6           0       -0.905408    0.275906    0.072543
      4          1           0        1.140581   -1.371993   -0.676992
      5          1           0        2.435640   -0.197462   -0.228106
      6          1           0        1.428688   -0.873947    1.049501
      7          1           0        0.604830    1.216907   -1.020154
      8          1           0        0.721988    1.485389    0.807328
      9          7           0       -1.757018   -0.436941   -0.024407
 ---------------------------------------------------------------------

 SCF Done:  E(RB3LYP) =  -172.049727598     A.U. after   13 cycles

 The electronic state is 1-A.
 Alpha  occ. eigenvalues --  -14.32007 -10.24690 -10.21327 -10.20795  -0.91905
 Alpha  occ. eigenvalues --   -0.79675  -0.66627  -0.50738  -0.47898  -0.42603
 Alpha  occ. eigenvalues --   -0.39487  -0.38703  -0.35260  -0.32957  -0.32687
 Alpha virt. eigenvalues --    0.02736   0.05120   0.07547   0.11759   0.13607
 Alpha virt. eigenvalues --    0.15716   0.17732   0.21580   0.25018   0.33839
 Alpha virt. eigenvalues --    0.51337   0.52958   0.53835   0.56908   0.58579

 Mulliken charges:
               1
     1  C   -0.431801
     2  C   -0.344962
     3  C    0.289206
     4  H    0.176990
     5  H    0.157396
     6  H    0.170358
     7  H    0.192825
     8  H    0.170439
     9  N   -0.380450
 Sum of Mulliken charges =  -0.00000

 Dipole moment (field-independent basis, Debye):
    X=              3.2981    Y=              1.4632    Z=             -0.0082  Tot=              3.6081
 Quadrupole moment (field-independent basis, Debye-Ang):
   XX=            -29.4292   YY=            -23.7087   ZZ=            -23.4259
   XY=             -1.7950   XZ=             -0.1588   YZ=              0.1398

 Normal termination of Gaussian 16 at Fri Sep 22 17:01:26 2023.
