 Gaussian 16, Revision A.03,
 Gaussian 16:  ES64L-G16RevA.03 25-Dec-2016

 ----------------
 # b3lyp/6-31g(d)
 ----------------

 -----------------------
 tmpdir/M3_conf_0_17.gjf
 -----------------------
 Symbolic Z-matrix:
 Charge =  0 Multiplicity = 1

                         Standard orientation:
 ---------------------------------------------------------------------
 Center     Atomic      Atomic             Coordinates (Angstroms)
 Number     Number       Type             X           Y           Z
 ---------------------------------------------------------------------
      1          6           0        0.775831    0.007390   -0.010367
      2          6           0       -0.775034   -0.002073   -0.014646
      3          1           0       -1.087680    0.045442    1.036096
      4          1           0        1.266814   -0.497088   -0.888671
      5          1           0        1.128380    1.045820    0.037848
      6          1           0        1.136214   -0.484853    0.902800
      7          1           0       -1.316724    0.832258   -0.555745
      8          1           0       -1.131790   -0.973477   -0.382252
 ---------------------------------------------------------------------

 SCF Done:  E(RB3LYP) =  -79.8245675401     A.U. after   10 cycles

 The electronic state is 1-A.
 Alpha  occ. eigenvalues --  -10.17765 -10.17741  -0.74253  -0.60947  -0.42768
 Alpha  occ. eigenvalues --   -0.42588  -0.36227  -0.33833  -0.33564
 Alpha virt. eigenvalues --    0.10223   0.13761   0.14355   0.15783   0.20302
 Alpha virt. eigenvalues --    0.21306   0.23580   0.51804   0.54119   0.54437
 Alpha virt. eigenvalues --    0.64943   0.65816   0.66800   0.86581   0.86924

 Mulliken charges:
               1
     1  C   -0.433429
     2  C   -0.433481
     3  H    0.145773
     4  H    0.140435
     5  H    0.146677
     6  H    0.146771
     7  H    0.140811
     8  H    0.146444
 Sum of Mulliken charges =   0.00000

 Dipole moment (field-independent basis, Debye):
    X=              0.0022    Y=             -0.0188    Z=              0.1032  Tot=              0.1049
 Quadrupole moment (field-independent basis, Debye-Ang):
   XX=            -15.2477   YY=            -14.7165   ZZ=            -14.8308
   XY=             -0.1349   XZ=              0.0294   YZ=             -0.0036

 Normal termination of Gaussian 16 at Fri Sep 22 17:01:05 2023.
