 Gaussian 16, Revision A.03,
 Gaussian 16:  ES64L-G16RevA.03 25-Dec-2016

 ----------------
 # b3lyp/6-31g(d)
 ----------------

 -----------------------
 tmpdir/M3_conf_0_31.gjf
 -----------------------
 Symbolic Z-matrix:
 Charge =  0 Multiplicity = 1

                         Standard orientation:
 ---------------------------------------------------------------------
 Center     Atomic      Atomic             Coordinates (Angstroms)
 Number     Number       Type             X           Y           Z
 ---------------------------------------------------------------------
      1          6           0        0.771127    0.001100    0.004255
      2          6           0       -0.783637    0.014159   -0.011663
      3          1           0       -1.160709   -0.966076   -0.329512
      4          1           0        1.262280    1.000382    0.147223
      5          1           0        1.126449   -0.442313   -0.934937
      6          1           0        1.092049   -0.675769    0.807309
      7          1           0       -1.166997    0.188403    1.003347
      8          1           0       -1.078016    0.803817   -0.648983
 ---------------------------------------------------------------------

 SCF Done:  E(RB3LYP) =  -79.8259195913     A.U. after   10 cycles

 The electronic state is 1-A.
 Alpha  occ. eigenvalues --  -10.17491 -10.17028  -0.74497  -0.60984  -0.43709
 Alpha  occ. eigenvalues --   -0.42705  -0.35676  -0.34170  -0.33793
 Alpha virt. eigenvalues --    0.10244   0.15034   0.15752   0.16883   0.19137
 Alpha virt. eigenvalues --    0.20121   0.23053   0.51677   0.54261   0.54976
 Alpha virt. eigenvalues --    0.61821   0.65210   0.65833   0.87907   0.88599

 Mulliken charges:
               1
     1  C   -0.436911
     2  C   -0.433184
     3  H    0.145202
     4  H    0.139833
     5  H    0.144040
     6  H    0.142811
     7  H    0.142947
     8  H    0.155262
 Sum of Mulliken charges =   0.00000

 Dipole moment (field-independent basis, Debye):
    X=             -0.0230    Y=             -0.0274    Z=             -0.0127  Tot=              0.0379
 Quadrupole moment (field-independent basis, Debye-Ang):
   XX=            -15.4707   YY=            -14.5083   ZZ=            -14.7678
   XY=              0.1547   XZ=             -0.0596   YZ=             -0.0483

 Normal termination of Gaussian 16 at Fri Sep 22 17:01:16 2023.
