 Gaussian 16, Revision A.03,
 Gaussian 16:  ES64L-G16RevA.03 25-Dec-2016

 ----------------
 # b3lyp/6-31g(d)
 ----------------

 -----------------------
 tmpdir/M3_conf_0_68.gjf
 -----------------------
 Symbolic Z-matrix:
 Charge = -1 Multiplicity = 1

                         Standard orientation:
 ---------------------------------------------------------------------
 Center     Atomic      Atomic             Coordinates (Angstroms)
 Number     Number       Type             X           Y           Z
 ---------------------------------------------------------------------
      1          7           0       -2.822683   -0.229766    0.678534
      2          6           0       -1.987979    0.169449   -0.492812
      3          6           0       -0.494090    0.080636   -0.270877
      4          6           0        0.138782   -1.168045   -0.196018
      5          6           0        0.272409    1.239786   -0.108618
      6          6           0        1.510416   -1.253535    0.033951
      7          1           0       -0.450908   -2.074028   -0.313895
      8          6           0        1.647694    1.156967    0.120493
      9          1           0       -0.208045    2.214149   -0.166240
     10          6           0        2.268601   -0.089726    0.192243
     11          1           0        1.989947   -2.227257    0.087120
     12          1           0        2.230900    2.065682    0.242211
     13          1           0        3.338539   -0.156787    0.369586
     14          1           0       -2.718558    0.305335    1.452286
     15          1           0       -2.299839   -0.517504   -1.282589
     16          1           0       -2.258258    1.185584   -0.808388
 ---------------------------------------------------------------------

 SCF Done:  E(RB3LYP) =  -326.228479712     A.U. after   21 cycles

 The electronic state is 1-A.
 Alpha  occ. eigenvalues --  -13.99445 -10.03748 -10.03393 -10.03269 -10.02261
 Alpha  occ. eigenvalues --  -10.02083 -10.01621  -9.99387  -0.69099  -0.60600
 Alpha  occ. eigenvalues --   -0.58485  -0.54852  -0.45162  -0.44403  -0.40106
 Alpha  occ. eigenvalues --   -0.34850  -0.29848  -0.28984  -0.26532  -0.24041
 Alpha  occ. eigenvalues --   -0.20928  -0.20512  -0.17867  -0.17243  -0.15920
 Alpha  occ. eigenvalues --   -0.09363  -0.07733   0.02608   0.08229
 Alpha virt. eigenvalues --    0.15756   0.16633   0.23147   0.27525   0.29139
 Alpha virt. eigenvalues --    0.30167   0.31612   0.32885   0.34708   0.35600
 Alpha virt. eigenvalues --    0.37419   0.42218   0.45354   0.47925   0.48575

 Mulliken charges:
               1
     1  N   -0.843436
     2  C   -0.164743
     3  C    0.186980
     4  C   -0.164798
     5  C   -0.201392
     6  C   -0.142919
     7  H    0.095255
     8  C   -0.130209
     9  H    0.073563
    10  C   -0.151000
    11  H    0.065004
    12  H    0.063242
    13  H    0.058437
    14  H    0.183451
    15  H    0.057074
    16  H    0.015491
 Sum of Mulliken charges =  -1.00000

 Dipole moment (field-independent basis, Debye):
    X=              7.7007    Y=              1.1731    Z=             -1.4348  Tot=              7.9206
 Quadrupole moment (field-independent basis, Debye-Ang):
   XX=            -83.4492   YY=            -51.2452   ZZ=            -54.0041
   XY=             -4.0329   XZ=              5.1589   YZ=              2.2672

 Normal termination of Gaussian 16 at Fri Sep 22 17:01:49 2023.
