 Gaussian 16, Revision A.03,
 Gaussian 16:  ES64L-G16RevA.03 25-Dec-2016

 ----------------
 # b3lyp/6-31g(d)
 ----------------

 -----------------------
 tmpdir/M3_conf_0_63.gjf
 -----------------------
 Symbolic Z-matrix:
 Charge =  0 Multiplicity = 1

                         Standard orientation:
 ---------------------------------------------------------------------
 Center     Atomic      Atomic             Coordinates (Angstroms)
 Number     Number       Type             X           Y           Z
 ---------------------------------------------------------------------
      1          6           0       -0.015250   -0.005839   -0.004669
      2          1           0        0.182937    0.170231    1.054148
      3          1           0        1.029527   -0.317600   -0.438121
      4          1           0       -0.328500    0.948023   -0.448725
      5          1           0       -0.792466   -0.765620   -0.139288
 ---------------------------------------------------------------------

 SCF Done:  E(RB3LYP) =  -40.5138679687     A.U. after    9 cycles

 The electronic state is 1-A.
 Alpha  occ. eigenvalues --  -10.17567  -0.68495  -0.39669  -0.38795  -0.37199
 Alpha virt. eigenvalues --    0.11026   0.15798   0.17459   0.17768   0.53050
 Alpha virt. eigenvalues --    0.53403   0.55552   0.84738   0.89242   0.89872
 Alpha virt. eigenvalues --    0.93099   1.09386   1.66107   1.66221   2.16231

 Mulliken charges:
               1
     1  C   -0.618469
     2  H    0.159510
     3  H    0.138251
     4  H    0.158890
     5  H    0.161819
 Sum of Mulliken charges =  -0.00000

 Dipole moment (field-independent basis, Debye):
    X=             -0.0241    Y=              0.0429    Z=              0.0609  Tot=              0.0783
 Quadrupole moment (field-independent basis, Debye-Ang):
   XX=             -8.1458   YY=             -8.3065   ZZ=             -8.4739
   XY=              0.0699   XZ=              0.0787   YZ=             -0.0195

 Normal termination of Gaussian 16 at Fri Sep 22 17:01:29 2023.
