 Gaussian 16, Revision A.03,
 Gaussian 16:  ES64L-G16RevA.03 25-Dec-2016

 ----------------
 # b3lyp/6-31g(d)
 ----------------

 -----------------------
 tmpdir/M3_conf_0_62.gjf
 -----------------------
 Symbolic Z-matrix:
 Charge =  0 Multiplicity = 1

                         Standard orientation:
 ---------------------------------------------------------------------
 Center     Atomic      Atomic             Coordinates (Angstroms)
 Number     Number       Type             X           Y           Z
 ---------------------------------------------------------------------
      1          7           0       -1.046258   -0.211679   -0.000172
      2          7           0        0.105585    0.236047   -0.000856
      3          7           0        1.198673   -0.096650    0.000588
      4          1           0       -1.805996    0.505978    0.003080
 ---------------------------------------------------------------------

 SCF Done:  E(RB3LYP) =  -164.758980153     A.U. after   14 cycles

 The electronic state is 1-A.
 Alpha  occ. eigenvalues --  -14.51691 -14.41346 -14.38472  -1.15252  -0.96067
 Alpha  occ. eigenvalues --   -0.61474  -0.52876  -0.50956  -0.44822  -0.31318
 Alpha  occ. eigenvalues --   -0.26838
 Alpha virt. eigenvalues --   -0.08309   0.00616   0.07856   0.31053   0.45377
 Alpha virt. eigenvalues --    0.51867   0.60895   0.61284   0.64932   0.68302
 Alpha virt. eigenvalues --    0.71569   0.76830   0.78900   0.79200   0.88322

 Mulliken charges:
               1
     1  N   -0.438468
     2  N    0.240596
     3  N   -0.134072
     4  H    0.331944
 Sum of Mulliken charges =  -0.00000

 Dipole moment (field-independent basis, Debye):
    X=             -1.4674    Y=              1.6292    Z=              0.0041  Tot=              2.1926
 Quadrupole moment (field-independent basis, Debye-Ang):
   XX=            -16.5909   YY=            -16.0904   ZZ=            -16.9147
   XY=             -2.0553   XZ=             -0.0119   YZ=              0.0026

 Normal termination of Gaussian 16 at Fri Sep 22 17:01:28 2023.
