 Gaussian 16, Revision A.03,
 Gaussian 16:  ES64L-G16RevA.03 25-Dec-2016

 ----------------
 # b3lyp/6-31g(d)
 ----------------

 -----------------------
 tmpdir/M3_conf_0_53.gjf
 -----------------------
 Symbolic Z-matrix:
 Charge =  0 Multiplicity = 1

                         Standard orientation:
 ---------------------------------------------------------------------
 Center     Atomic      Atomic             Coordinates (Angstroms)
 Number     Number       Type             X           Y           Z
 ---------------------------------------------------------------------
      1          1           0        0.929055    0.874298   -0.652663
      2          6           0        0.671185    0.016527   -0.005549
      3          8           0       -0.745562   -0.127976   -0.004138
      4          1           0        1.090786    0.194924    1.023564
      5          1           0        1.147950   -0.854647   -0.373002
      6          1           0       -1.230406    0.710066    0.068494
 ---------------------------------------------------------------------

 SCF Done:  E(RB3LYP) =  -115.710081827     A.U. after   11 cycles

 The electronic state is 1-A.
 Alpha  occ. eigenvalues --  -19.13534 -10.22563  -1.00245  -0.68176  -0.49910
 Alpha  occ. eigenvalues --   -0.43288  -0.42688  -0.31804  -0.26050
 Alpha virt. eigenvalues --    0.07188   0.12808   0.17169   0.17893   0.20337
 Alpha virt. eigenvalues --    0.53332   0.55722   0.58021   0.79295   0.84044
 Alpha virt. eigenvalues --    0.87684   0.90224   0.95842   0.97594   1.02223

 Mulliken charges:
               1
     1  H    0.126701
     2  C   -0.190474
     3  O   -0.622675
     4  H    0.123063
     5  H    0.168542
     6  H    0.394843
 Sum of Mulliken charges =  -0.00000

 Dipole moment (field-independent basis, Debye):
    X=              0.6404    Y=              1.4900    Z=              0.0378  Tot=              1.6223
 Quadrupole moment (field-independent basis, Debye-Ang):
   XX=            -12.0497   YY=            -12.2089   ZZ=            -13.5777
   XY=             -2.4280   XZ=             -0.2602   YZ=              0.1118

 Normal termination of Gaussian 16 at Fri Sep 22 17:01:21 2023.
