 Gaussian 16, Revision A.03,
 Gaussian 16:  ES64L-G16RevA.03 25-Dec-2016

 ----------------
 # b3lyp/6-31g(d)
 ----------------

 -----------------------
 tmpdir/M3_conf_0_32.gjf
 -----------------------
 Symbolic Z-matrix:
 Charge =  0 Multiplicity = 1

                         Standard orientation:
 ---------------------------------------------------------------------
 Center     Atomic      Atomic             Coordinates (Angstroms)
 Number     Number       Type             X           Y           Z
 ---------------------------------------------------------------------
      1          6           0        0.771278    0.000686    0.003921
      2          6           0       -0.783486    0.014336   -0.011483
      3          1           0       -1.162545    0.183401    1.006017
      4          1           0        1.262797    0.999016    0.152154
      5          1           0        1.126189   -0.437749   -0.937755
      6          1           0        1.092207   -0.680765    0.803095
      7          1           0       -1.167614   -0.961677   -0.333840
      8          1           0       -1.077788    0.807642   -0.644304
 ---------------------------------------------------------------------

 SCF Done:  E(RB3LYP) =  -79.8259270239     A.U. after   10 cycles

 The electronic state is 1-A.
 Alpha  occ. eigenvalues --  -10.17494 -10.17026  -0.74493  -0.60990  -0.43699
 Alpha  occ. eigenvalues --   -0.42700  -0.35708  -0.34148  -0.33792
 Alpha virt. eigenvalues --    0.10249   0.15004   0.15772   0.16882   0.19133
 Alpha virt. eigenvalues --    0.20133   0.23060   0.51685   0.54233   0.54974
 Alpha virt. eigenvalues --    0.61782   0.65278   0.65855   0.87914   0.88600

 Mulliken charges:
               1
     1  C   -0.436856
     2  C   -0.433315
     3  H    0.142905
     4  H    0.139950
     5  H    0.144023
     6  H    0.142819
     7  H    0.145240
     8  H    0.155233
 Sum of Mulliken charges =   0.00000

 Dipole moment (field-independent basis, Debye):
    X=             -0.0232    Y=             -0.0267    Z=             -0.0126  Tot=              0.0375
 Quadrupole moment (field-independent basis, Debye-Ang):
   XX=            -15.4653   YY=            -14.5128   ZZ=            -14.7663
   XY=              0.1643   XZ=             -0.0514   YZ=             -0.0484

 Normal termination of Gaussian 16 at Fri Sep 22 17:01:11 2023.
