 Gaussian 16, Revision A.03,
 Gaussian 16:  ES64L-G16RevA.03 25-Dec-2016

 ----------------
 # b3lyp/6-31g(d)
 ----------------

 -----------------------
 tmpdir/M3_conf_0_82.gjf
 -----------------------
 Symbolic Z-matrix:
 Charge =  0 Multiplicity = 1

                         Standard orientation:
 ---------------------------------------------------------------------
 Center     Atomic      Atomic             Coordinates (Angstroms)
 Number     Number       Type             X           Y           Z
 ---------------------------------------------------------------------
      1          1           0        0.611667   -0.767148   -0.507909
      2          6           0        0.003747   -0.000019   -0.005746
      3          1           0        0.494054    0.978004   -0.140422
      4          1           0       -1.094973    0.019733   -0.379441
      5          1           0       -0.033233   -0.230474    1.062247
 ---------------------------------------------------------------------

 SCF Done:  E(RB3LYP) =  -40.5151809145     A.U. after    9 cycles

 The electronic state is 1-A.
 Alpha  occ. eigenvalues --  -10.17549  -0.68475  -0.39164  -0.38700  -0.37802
 Alpha virt. eigenvalues --    0.11099   0.16164   0.17294   0.17608   0.53146
 Alpha virt. eigenvalues --    0.53378   0.55449   0.85514   0.88917   0.89442
 Alpha virt. eigenvalues --    0.93046   1.09290   1.65971   1.66235   2.16703

 Mulliken charges:
               1
     1  H    0.158625
     2  C   -0.618550
     3  H    0.157726
     4  H    0.143336
     5  H    0.158863
 Sum of Mulliken charges =  -0.00000

 Dipole moment (field-independent basis, Debye):
    X=              0.0469    Y=             -0.0053    Z=              0.0521  Tot=              0.0702
 Quadrupole moment (field-independent basis, Debye-Ang):
   XX=             -8.1578   YY=             -8.3387   ZZ=             -8.4217
   XY=             -0.0008   XZ=             -0.0507   YZ=              0.0027

 Normal termination of Gaussian 16 at Fri Sep 22 17:01:34 2023.
