 Gaussian 16, Revision A.03,
 Gaussian 16:  ES64L-G16RevA.03 25-Dec-2016

 ----------------
 # b3lyp/6-31g(d)
 ----------------

 -----------------------
 tmpdir/M3_conf_0_34.gjf
 -----------------------
 Symbolic Z-matrix:
 Charge =  0 Multiplicity = 1

                         Standard orientation:
 ---------------------------------------------------------------------
 Center     Atomic      Atomic             Coordinates (Angstroms)
 Number     Number       Type             X           Y           Z
 ---------------------------------------------------------------------
      1          1           0       -0.682706    0.760706    0.402018
      2          6           0       -0.000139   -0.003422    0.009237
      3          1           0       -0.589467   -0.598168   -0.702486
      4          1           0        0.868113    0.484078   -0.515612
      5          1           0        0.404894   -0.626085    0.760657
 ---------------------------------------------------------------------

 SCF Done:  E(RB3LYP) =  -40.5162037987     A.U. after    9 cycles

 The electronic state is 1-A.
 Alpha  occ. eigenvalues --  -10.16753  -0.69038  -0.40211  -0.38375  -0.38072
 Alpha virt. eigenvalues --    0.11687   0.16926   0.17218   0.18664   0.52526
 Alpha virt. eigenvalues --    0.53213   0.54513   0.87825   0.88779   0.91708
 Alpha virt. eigenvalues --    0.95447   1.09640   1.65640   1.66186   2.20916

 Mulliken charges:
               1
     1  H    0.156780
     2  C   -0.627295
     3  H    0.155139
     4  H    0.148112
     5  H    0.167265
 Sum of Mulliken charges =   0.00000

 Dipole moment (field-independent basis, Debye):
    X=             -0.0090    Y=             -0.0246    Z=              0.0137  Tot=              0.0295
 Quadrupole moment (field-independent basis, Debye-Ang):
   XX=             -8.1033   YY=             -8.2938   ZZ=             -8.3703
   XY=             -0.0582   XZ=              0.0558   YZ=             -0.0344

 Normal termination of Gaussian 16 at Fri Sep 22 17:01:18 2023.
