 Gaussian 16, Revision A.03,
 Gaussian 16:  ES64L-G16RevA.03 25-Dec-2016

 ----------------
 # b3lyp/6-31g(d)
 ----------------

 -----------------------
 tmpdir/M3_conf_0_77.gjf
 -----------------------
 Symbolic Z-matrix:
 Charge =  0 Multiplicity = 1

                         Standard orientation:
 ---------------------------------------------------------------------
 Center     Atomic      Atomic             Coordinates (Angstroms)
 Number     Number       Type             X           Y           Z
 ---------------------------------------------------------------------
      1          8           0       -0.739450    0.123063    0.000812
      2          6           0        0.666713   -0.022717    0.000633
      3          1           0        1.084792    0.979675   -0.123868
      4          1           0       -1.229658   -0.723295    0.008390
      5          1           0        1.051863   -0.448077    0.939225
      6          1           0        1.008323   -0.656507   -0.834037
 ---------------------------------------------------------------------

 SCF Done:  E(RB3LYP) =  -115.713022330     A.U. after   11 cycles

 The electronic state is 1-A.
 Alpha  occ. eigenvalues --  -19.13668 -10.22470  -1.00459  -0.67937  -0.50237
 Alpha  occ. eigenvalues --   -0.43276  -0.42191  -0.31993  -0.26164
 Alpha virt. eigenvalues --    0.07361   0.12942   0.16862   0.17619   0.20910
 Alpha virt. eigenvalues --    0.53725   0.56284   0.57796   0.78398   0.84996
 Alpha virt. eigenvalues --    0.86954   0.90239   0.95767   0.97676   1.01569

 Mulliken charges:
               1
     1  O   -0.616288
     2  C   -0.192086
     3  H    0.161432
     4  H    0.390953
     5  H    0.128914
     6  H    0.127075
 Sum of Mulliken charges =  -0.00000

 Dipole moment (field-independent basis, Debye):
    X=              0.5948    Y=             -1.4913    Z=             -0.0070  Tot=              1.6055
 Quadrupole moment (field-independent basis, Debye-Ang):
   XX=            -12.1372   YY=            -12.1402   ZZ=            -13.5868
   XY=              2.3272   XZ=             -0.0289   YZ=             -0.0283

 Normal termination of Gaussian 16 at Fri Sep 22 17:01:31 2023.
