 Gaussian 16, Revision A.03,
 Gaussian 16:  ES64L-G16RevA.03 25-Dec-2016

 ----------------
 # b3lyp/6-31g(d)
 ----------------

 ----------------------
 tmpdir/M3_conf_0_6.gjf
 ----------------------
 Symbolic Z-matrix:
 Charge =  0 Multiplicity = 1

                         Standard orientation:
 ---------------------------------------------------------------------
 Center     Atomic      Atomic             Coordinates (Angstroms)
 Number     Number       Type             X           Y           Z
 ---------------------------------------------------------------------
      1          6           0       -0.781956    0.005618   -0.016806
      2          6           0        0.782312   -0.004287   -0.016831
      3          1           0        1.098028    0.092469    1.029394
      4          1           0       -1.320340   -0.774983   -0.617673
      5          1           0       -1.145145    1.001091   -0.305194
      6          1           0       -1.101624   -0.133005    1.023700
      7          1           0        1.323186    0.796766   -0.588375
      8          1           0        1.143761   -0.990320   -0.340034
 ---------------------------------------------------------------------

 SCF Done:  E(RB3LYP) =  -79.8216391204     A.U. after   10 cycles

 The electronic state is 1-A.
 Alpha  occ. eigenvalues --  -10.17748 -10.17729  -0.74021  -0.61143  -0.42665
 Alpha  occ. eigenvalues --   -0.42458  -0.36328  -0.33840  -0.33305
 Alpha virt. eigenvalues --    0.10292   0.13189   0.13383   0.15425   0.21963
 Alpha virt. eigenvalues --    0.22948   0.23473   0.52208   0.53749   0.53931
 Alpha virt. eigenvalues --    0.65015   0.66435   0.70381   0.85714   0.86207

 Mulliken charges:
               1
     1  C   -0.439489
     2  C   -0.439327
     3  H    0.147181
     4  H    0.144240
     5  H    0.148060
     6  H    0.147045
     7  H    0.144386
     8  H    0.147904
 Sum of Mulliken charges =  -0.00000

 Dipole moment (field-independent basis, Debye):
    X=             -0.0003    Y=             -0.0030    Z=              0.1103  Tot=              0.1104
 Quadrupole moment (field-independent basis, Debye-Ang):
   XX=            -15.1509   YY=            -14.6501   ZZ=            -14.9073
   XY=              0.1745   XZ=             -0.0010   YZ=             -0.0013

 Normal termination of Gaussian 16 at Fri Sep 22 17:01:09 2023.
