 Gaussian 16, Revision A.03,
 Gaussian 16:  ES64L-G16RevA.03 25-Dec-2016

 ----------------
 # b3lyp/6-31g(d)
 ----------------

 -----------------------
 tmpdir/M3_conf_0_78.gjf
 -----------------------
 Symbolic Z-matrix:
 Charge =  0 Multiplicity = 1

                         Standard orientation:
 ---------------------------------------------------------------------
 Center     Atomic      Atomic             Coordinates (Angstroms)
 Number     Number       Type             X           Y           Z
 ---------------------------------------------------------------------
      1          8           0       -0.739447    0.123082    0.000810
      2          6           0        0.666712   -0.022742    0.000648
      3          1           0        1.051645   -0.448219    0.939270
      4          1           0       -1.229682   -0.723261    0.008284
      5          1           0        1.084999    0.979576   -0.123731
      6          1           0        1.008337   -0.656306   -0.834191
 ---------------------------------------------------------------------

 SCF Done:  E(RB3LYP) =  -115.713022379     A.U. after   11 cycles

 The electronic state is 1-A.
 Alpha  occ. eigenvalues --  -19.13667 -10.22470  -1.00459  -0.67937  -0.50235
 Alpha  occ. eigenvalues --   -0.43278  -0.42192  -0.31991  -0.26163
 Alpha virt. eigenvalues --    0.07361   0.12942   0.16863   0.17619   0.20909
 Alpha virt. eigenvalues --    0.53725   0.56282   0.57799   0.78398   0.84997
 Alpha virt. eigenvalues --    0.86954   0.90239   0.95764   0.97676   1.01572

 Mulliken charges:
               1
     1  O   -0.616295
     2  C   -0.192087
     3  H    0.128922
     4  H    0.390957
     5  H    0.161428
     6  H    0.127075
 Sum of Mulliken charges =   0.00000

 Dipole moment (field-independent basis, Debye):
    X=              0.5948    Y=             -1.4913    Z=             -0.0071  Tot=              1.6055
 Quadrupole moment (field-independent basis, Debye-Ang):
   XX=            -12.1369   YY=            -12.1408   ZZ=            -13.5864
   XY=              2.3275   XZ=             -0.0288   YZ=             -0.0282

 Normal termination of Gaussian 16 at Fri Sep 22 17:01:34 2023.
