 Gaussian 16, Revision A.03,
 Gaussian 16:  ES64L-G16RevA.03 25-Dec-2016

 ----------------
 # b3lyp/6-31g(d)
 ----------------

 -----------------------
 tmpdir/M3_conf_0_76.gjf
 -----------------------
 Symbolic Z-matrix:
 Charge =  0 Multiplicity = 1

                         Standard orientation:
 ---------------------------------------------------------------------
 Center     Atomic      Atomic             Coordinates (Angstroms)
 Number     Number       Type             X           Y           Z
 ---------------------------------------------------------------------
      1          6           0        0.003664    0.000216   -0.005635
      2          1           0        0.496794    0.977614   -0.126453
      3          1           0       -1.093921    0.026570   -0.382265
      4          1           0       -0.036926   -0.244700    1.059000
      5          1           0        0.612068   -0.760778   -0.516475
 ---------------------------------------------------------------------

 SCF Done:  E(RB3LYP) =  -40.5151799670     A.U. after    9 cycles

 The electronic state is 1-A.
 Alpha  occ. eigenvalues --  -10.17540  -0.68482  -0.39183  -0.38694  -0.37801
 Alpha virt. eigenvalues --    0.11103   0.16167   0.17300   0.17621   0.53150
 Alpha virt. eigenvalues --    0.53351   0.55455   0.85513   0.88935   0.89474
 Alpha virt. eigenvalues --    0.93077   1.09289   1.65971   1.66237   2.16699

 Mulliken charges:
               1
     1  C   -0.618654
     2  H    0.157925
     3  H    0.143330
     4  H    0.158847
     5  H    0.158552
 Sum of Mulliken charges =  -0.00000

 Dipole moment (field-independent basis, Debye):
    X=              0.0474    Y=             -0.0057    Z=              0.0516  Tot=              0.0703
 Quadrupole moment (field-independent basis, Debye-Ang):
   XX=             -8.1545   YY=             -8.3414   ZZ=             -8.4206
   XY=              0.0012   XZ=             -0.0510   YZ=              0.0025

 Normal termination of Gaussian 16 at Fri Sep 22 17:01:29 2023.
