 Gaussian 16, Revision A.03,
 Gaussian 16:  ES64L-G16RevA.03 25-Dec-2016

 ----------------
 # b3lyp/6-31g(d)
 ----------------

 ----------------------
 tmpdir/M3_conf_0_8.gjf
 ----------------------
 Symbolic Z-matrix:
 Charge =  0 Multiplicity = 1

                         Standard orientation:
 ---------------------------------------------------------------------
 Center     Atomic      Atomic             Coordinates (Angstroms)
 Number     Number       Type             X           Y           Z
 ---------------------------------------------------------------------
      1          6           0        0.775226    0.008622   -0.005689
      2          6           0       -0.776042    0.004532   -0.014664
      3          1           0       -1.088297   -0.289113    0.995238
      4          1           0        1.271784   -0.222091   -0.989140
      5          1           0        1.125409   -0.724999    0.732106
      6          1           0        1.148415    0.987538    0.319004
      7          1           0       -1.317495    0.967966   -0.261531
      8          1           0       -1.134922   -0.798223   -0.673560
 ---------------------------------------------------------------------

 SCF Done:  E(RB3LYP) =  -79.8243047336     A.U. after   10 cycles

 The electronic state is 1-A.
 Alpha  occ. eigenvalues --  -10.17781 -10.17725  -0.74235  -0.60991  -0.42742
 Alpha  occ. eigenvalues --   -0.42569  -0.36217  -0.33835  -0.33575
 Alpha virt. eigenvalues --    0.10249   0.13689   0.14209   0.15635   0.20542
 Alpha virt. eigenvalues --    0.21614   0.23634   0.51815   0.54156   0.54269
 Alpha virt. eigenvalues --    0.65176   0.65838   0.67229   0.86489   0.86764

 Mulliken charges:
               1
     1  C   -0.434408
     2  C   -0.433888
     3  H    0.146117
     4  H    0.140201
     5  H    0.146960
     6  H    0.147085
     7  H    0.141101
     8  H    0.146832
 Sum of Mulliken charges =   0.00000

 Dipole moment (field-independent basis, Debye):
    X=              0.0033    Y=             -0.0472    Z=              0.0879  Tot=              0.0998
 Quadrupole moment (field-independent basis, Debye-Ang):
   XX=            -15.2167   YY=            -14.7226   ZZ=            -14.8375
   XY=             -0.1020   XZ=             -0.0205   YZ=             -0.0060

 Normal termination of Gaussian 16 at Fri Sep 22 17:01:02 2023.
