 Gaussian 16, Revision A.03,
 Gaussian 16:  ES64L-G16RevA.03 25-Dec-2016

 ----------------
 # b3lyp/6-31g(d)
 ----------------

 -----------------------
 tmpdir/M3_conf_0_21.gjf
 -----------------------
 Symbolic Z-matrix:
 Charge =  0 Multiplicity = 1

                         Standard orientation:
 ---------------------------------------------------------------------
 Center     Atomic      Atomic             Coordinates (Angstroms)
 Number     Number       Type             X           Y           Z
 ---------------------------------------------------------------------
      1          6           0       -0.002840   -0.011356   -0.002396
      2          1           0        0.067285    0.522542    0.955068
      3          1           0       -0.977414   -0.567031   -0.043245
      4          1           0        0.921690   -0.644168   -0.110950
      5          1           0        0.005479    0.756795   -0.786499
 ---------------------------------------------------------------------

 SCF Done:  E(RB3LYP) =  -40.5161343069     A.U. after    9 cycles

 The electronic state is 1-A.
 Alpha  occ. eigenvalues --  -10.17432  -0.68544  -0.39279  -0.38379  -0.38117
 Alpha virt. eigenvalues --    0.11234   0.16773   0.17094   0.17394   0.53148
 Alpha virt. eigenvalues --    0.53486   0.55112   0.87131   0.88426   0.88928
 Alpha virt. eigenvalues --    0.93287   1.09581   1.65854   1.66209   2.18091

 Mulliken charges:
               1
     1  C   -0.621118
     2  H    0.156791
     3  H    0.154281
     4  H    0.152789
     5  H    0.157257
 Sum of Mulliken charges =  -0.00000

 Dipole moment (field-independent basis, Debye):
    X=              0.0073    Y=              0.0688    Z=              0.0120  Tot=              0.0703
 Quadrupole moment (field-independent basis, Debye-Ang):
   XX=             -8.0893   YY=             -8.3844   ZZ=             -8.4250
   XY=              0.0088   XZ=              0.0027   YZ=             -0.0048

 Normal termination of Gaussian 16 at Fri Sep 22 17:01:02 2023.
