 Gaussian 16, Revision A.03,
 Gaussian 16:  ES64L-G16RevA.03 25-Dec-2016

 ----------------
 # b3lyp/6-31g(d)
 ----------------

 ----------------------
 tmpdir/M3_conf_0_5.gjf
 ----------------------
 Symbolic Z-matrix:
 Charge =  0 Multiplicity = 1

                         Standard orientation:
 ---------------------------------------------------------------------
 Center     Atomic      Atomic             Coordinates (Angstroms)
 Number     Number       Type             X           Y           Z
 ---------------------------------------------------------------------
      1          6           0       -0.782196    0.005669   -0.016491
      2          6           0        0.782072   -0.004291   -0.016964
      3          1           0        1.142853   -0.990301   -0.340991
      4          1           0       -1.320776   -0.774404   -0.617866
      5          1           0       -1.145430    1.001351   -0.304110
      6          1           0       -1.101575   -0.133635    1.024017
      7          1           0        1.322814    0.797129   -0.588125
      8          1           0        1.102855    0.091592    1.027807
 ---------------------------------------------------------------------

 SCF Done:  E(RB3LYP) =  -79.8216735367     A.U. after   10 cycles

 The electronic state is 1-A.
 Alpha  occ. eigenvalues --  -10.17749 -10.17732  -0.74016  -0.61154  -0.42667
 Alpha  occ. eigenvalues --   -0.42435  -0.36349  -0.33840  -0.33301
 Alpha virt. eigenvalues --    0.10300   0.13187   0.13381   0.15421   0.21963
 Alpha virt. eigenvalues --    0.22950   0.23469   0.52215   0.53754   0.53904
 Alpha virt. eigenvalues --    0.65025   0.66470   0.70373   0.85714   0.86206

 Mulliken charges:
               1
     1  C   -0.439396
     2  C   -0.439521
     3  H    0.147881
     4  H    0.144311
     5  H    0.148086
     6  H    0.147116
     7  H    0.144348
     8  H    0.147176
 Sum of Mulliken charges =  -0.00000

 Dipole moment (field-independent basis, Debye):
    X=             -0.0002    Y=             -0.0033    Z=              0.1104  Tot=              0.1104
 Quadrupole moment (field-independent basis, Debye-Ang):
   XX=            -15.1434   YY=            -14.6501   ZZ=            -14.9115
   XY=              0.1757   XZ=              0.0056   YZ=             -0.0012

 Normal termination of Gaussian 16 at Fri Sep 22 17:01:07 2023.
