 Gaussian 16, Revision A.03,
 Gaussian 16:  ES64L-G16RevA.03 25-Dec-2016

 ----------------
 # b3lyp/6-31g(d)
 ----------------

 -----------------------
 tmpdir/M3_conf_0_47.gjf
 -----------------------
 Symbolic Z-matrix:
 Charge =  0 Multiplicity = 1

                         Standard orientation:
 ---------------------------------------------------------------------
 Center     Atomic      Atomic             Coordinates (Angstroms)
 Number     Number       Type             X           Y           Z
 ---------------------------------------------------------------------
      1          6           0        1.150202    0.046195   -0.003503
      2          6           0       -0.298620   -0.197832    0.018941
      3          1           0        1.299564    1.003333   -0.576697
      4          1           0        1.512842    0.186355    1.030845
      5          1           0        1.719708   -0.853888   -0.485962
      6          7           0       -1.377372    0.082003   -0.008688
 ---------------------------------------------------------------------

 SCF Done:  E(RB3LYP) =  -132.737094671     A.U. after   13 cycles

 The electronic state is 1-A.
 Alpha  occ. eigenvalues --  -14.32385 -10.24856 -10.21989  -0.92139  -0.76363
 Alpha  occ. eigenvalues --   -0.50118  -0.46082  -0.45409  -0.35885  -0.33558
 Alpha  occ. eigenvalues --   -0.33220
 Alpha virt. eigenvalues --    0.01953   0.04892   0.08188   0.13617   0.15798
 Alpha virt. eigenvalues --    0.23077   0.30810   0.52818   0.53520   0.56570
 Alpha virt. eigenvalues --    0.61556   0.62587   0.68825   0.74312   0.79713

 Mulliken charges:
               1
     1  C   -0.517259
     2  C    0.282700
     3  H    0.210924
     4  H    0.205784
     5  H    0.182910
     6  N   -0.365059
 Sum of Mulliken charges =  -0.00000

 Dipole moment (field-independent basis, Debye):
    X=              3.5398    Y=             -0.0801    Z=              0.0483  Tot=              3.5410
 Quadrupole moment (field-independent basis, Debye-Ang):
   XX=            -20.5160   YY=            -17.0278   ZZ=            -17.2155
   XY=              0.3269   XZ=              0.0441   YZ=             -0.0190

 Normal termination of Gaussian 16 at Fri Sep 22 17:01:20 2023.
