 Gaussian 16, Revision A.03,
 Gaussian 16:  ES64L-G16RevA.03 25-Dec-2016

 ----------------
 # b3lyp/6-31g(d)
 ----------------

 -----------------------
 tmpdir/M3_conf_0_33.gjf
 -----------------------
 Symbolic Z-matrix:
 Charge =  0 Multiplicity = 1

                         Standard orientation:
 ---------------------------------------------------------------------
 Center     Atomic      Atomic             Coordinates (Angstroms)
 Number     Number       Type             X           Y           Z
 ---------------------------------------------------------------------
      1          6           0        1.455192   -0.505202    0.001197
      2          6           0        0.473346    0.700253   -0.022717
      3          6           0       -0.913549    0.252780    0.059248
      4          1           0        1.192215   -1.357459   -0.680520
      5          1           0        1.525561   -0.878140    1.031206
      6          1           0        2.453232   -0.129349   -0.260898
      7          1           0        0.709307    1.397100    0.791408
      8          1           0        0.591157    1.260537   -0.960679
      9          7           0       -1.794487   -0.425668   -0.020984
 ---------------------------------------------------------------------

 SCF Done:  E(RB3LYP) =  -172.055440795     A.U. after   13 cycles

 The electronic state is 1-A.
 Alpha  occ. eigenvalues --  -14.31984 -10.23974 -10.21361 -10.20831  -0.91827
 Alpha  occ. eigenvalues --   -0.80007  -0.66972  -0.51344  -0.48209  -0.42650
 Alpha  occ. eigenvalues --   -0.39726  -0.38781  -0.35226  -0.33023  -0.32804
 Alpha virt. eigenvalues --    0.03207   0.05317   0.08253   0.12446   0.13428
 Alpha virt. eigenvalues --    0.15888   0.18145   0.21763   0.24694   0.33234
 Alpha virt. eigenvalues --    0.50817   0.52728   0.54164   0.57252   0.58692

 Mulliken charges:
               1
     1  C   -0.435447
     2  C   -0.345068
     3  C    0.292954
     4  H    0.175330
     5  H    0.169649
     6  H    0.158051
     7  H    0.185076
     8  H    0.191862
     9  N   -0.392408
 Sum of Mulliken charges =  -0.00000

 Dipole moment (field-independent basis, Debye):
    X=              3.3898    Y=              1.4818    Z=              0.0307  Tot=              3.6997
 Quadrupole moment (field-independent basis, Debye-Ang):
   XX=            -29.5144   YY=            -23.5626   ZZ=            -23.4949
   XY=             -1.7238   XZ=             -0.0638   YZ=              0.0756

 Normal termination of Gaussian 16 at Fri Sep 22 17:01:16 2023.
