 Gaussian 16, Revision A.03,
 Gaussian 16:  ES64L-G16RevA.03 25-Dec-2016

 ----------------
 # b3lyp/6-31g(d)
 ----------------

 ----------------------
 tmpdir/M3_conf_0_2.gjf
 ----------------------
 Symbolic Z-matrix:
 Charge =  0 Multiplicity = 1

                         Standard orientation:
 ---------------------------------------------------------------------
 Center     Atomic      Atomic             Coordinates (Angstroms)
 Number     Number       Type             X           Y           Z
 ---------------------------------------------------------------------
      1          6           0        0.000870   -0.010467   -0.016237
      2          1           0       -0.025693    1.051145   -0.301148
      3          1           0        0.998646   -0.457205   -0.311532
      4          1           0       -0.937872   -0.514994   -0.369969
      5          1           0       -0.040299   -0.016143    1.080073
 ---------------------------------------------------------------------

 SCF Done:  E(RB3LYP) =  -40.5145269716     A.U. after    9 cycles

 The electronic state is 1-A.
 Alpha  occ. eigenvalues --  -10.17508  -0.68535  -0.39613  -0.38361  -0.37643
 Alpha virt. eigenvalues --    0.11085   0.16482   0.17186   0.17363   0.52974
 Alpha virt. eigenvalues --    0.53418   0.55729   0.86281   0.88571   0.88808
 Alpha virt. eigenvalues --    0.93613   1.09707   1.65809   1.66438   2.16179

 Mulliken charges:
               1
     1  C   -0.621697
     2  H    0.157321
     3  H    0.153103
     4  H    0.155098
     5  H    0.156174
 Sum of Mulliken charges =  -0.00000

 Dipole moment (field-independent basis, Debye):
    X=             -0.0118    Y=              0.0582    Z=              0.0808  Tot=              0.1002
 Quadrupole moment (field-independent basis, Debye-Ang):
   XX=             -8.0022   YY=             -8.3888   ZZ=             -8.5276
   XY=              0.0066   XZ=              0.0044   YZ=             -0.0048

 Normal termination of Gaussian 16 at Fri Sep 22 17:01:06 2023.
