 Gaussian 16, Revision A.03,
 Gaussian 16:  ES64L-G16RevA.03 25-Dec-2016

 ----------------
 # b3lyp/6-31g(d)
 ----------------

 -----------------------
 tmpdir/M3_conf_0_65.gjf
 -----------------------
 Symbolic Z-matrix:
 Charge =  0 Multiplicity = 1

                         Standard orientation:
 ---------------------------------------------------------------------
 Center     Atomic      Atomic             Coordinates (Angstroms)
 Number     Number       Type             X           Y           Z
 ---------------------------------------------------------------------
      1          6           0       -2.421519    0.010945    0.004199
      2          6           0       -0.905324    0.006520   -0.013136
      3          6           0       -0.199569   -1.204769   -0.009548
      4          6           0       -0.189039    1.208320   -0.003717
      5          6           0        1.193772   -1.211894    0.000535
      6          1           0       -0.748735   -2.143313   -0.009418
      7          6           0        1.207624    1.204011    0.004859
      8          1           0       -0.726431    2.154219   -0.007707
      9          6           0        1.900985   -0.006006    0.007027
     10          1           0        1.729519   -2.157348    0.000428
     11          1           0        1.750853    2.145070    0.009654
     12          1           0        2.987560   -0.012011    0.012874
     13          1           0       -2.882491   -0.308529    1.034767
     14          1           0       -2.824927   -0.719307   -0.700708
     15          1           0       -2.806926    0.998457   -0.281205
 ---------------------------------------------------------------------

 SCF Done:  E(RB3LYP) =  -271.563114759     A.U. after   13 cycles

 The electronic state is 1-A.
 Alpha  occ. eigenvalues --  -10.19344 -10.18827 -10.18520 -10.18496 -10.18332
 Alpha  occ. eigenvalues --  -10.18277 -10.18241  -0.84818  -0.76299  -0.73806
 Alpha  occ. eigenvalues --   -0.67617  -0.59907  -0.57703  -0.50503  -0.45205
 Alpha  occ. eigenvalues --   -0.45073  -0.41520  -0.40491  -0.40149  -0.38171
 Alpha  occ. eigenvalues --   -0.34610  -0.33552  -0.33492  -0.24457  -0.23525
 Alpha virt. eigenvalues --    0.00298   0.00649   0.09511   0.11615   0.13598
 Alpha virt. eigenvalues --    0.14075   0.16254   0.17463   0.18833   0.19232
 Alpha virt. eigenvalues --    0.20342   0.23989   0.31057   0.32049   0.32928

 Mulliken charges:
               1
     1  C   -0.524624
     2  C    0.181060
     3  C   -0.173711
     4  C   -0.179056
     5  C   -0.128720
     6  H    0.121715
     7  C   -0.127028
     8  H    0.121479
     9  C   -0.132281
    10  H    0.127107
    11  H    0.127181
    12  H    0.126035
    13  H    0.145370
    14  H    0.160720
    15  H    0.154755
 Sum of Mulliken charges =  -0.00000

 Dipole moment (field-independent basis, Debye):
    X=             -0.2489    Y=             -0.0416    Z=             -0.0291  Tot=              0.2540
 Quadrupole moment (field-independent basis, Debye-Ang):
   XX=            -38.0450   YY=            -38.1739   ZZ=            -44.9416
   XY=              0.1370   XZ=              0.1040   YZ=             -0.0792

 Normal termination of Gaussian 16 at Fri Sep 22 17:01:37 2023.
