 Gaussian 16, Revision A.03,
 Gaussian 16:  ES64L-G16RevA.03 25-Dec-2016

 ----------------
 # b3lyp/6-31g(d)
 ----------------

 -----------------------
 tmpdir/M3_conf_0_61.gjf
 -----------------------
 Symbolic Z-matrix:
 Charge =  1 Multiplicity = 1

                         Standard orientation:
 ---------------------------------------------------------------------
 Center     Atomic      Atomic             Coordinates (Angstroms)
 Number     Number       Type             X           Y           Z
 ---------------------------------------------------------------------
      1          7           0        0.007329    0.481787    0.000000
      2          7           0        0.007329   -0.684913    0.000000
      3          1           0       -0.102611    1.421877    0.000000
 ---------------------------------------------------------------------

 SCF Done:  E(RB3LYP) =  -109.698132693     A.U. after   11 cycles

 The electronic state is 1-A'.
 Alpha  occ. eigenvalues --  -14.86991 -14.85671  -1.47026  -1.13274  -0.82795
 Alpha  occ. eigenvalues --   -0.81437  -0.81373
 Alpha virt. eigenvalues --   -0.42658  -0.42499  -0.21635   0.02135   0.24170
 Alpha virt. eigenvalues --    0.28769   0.28771   0.36612   0.41771   0.41900
 Alpha virt. eigenvalues --    0.59785   0.75762   1.02446   1.09393   1.10415

 Mulliken charges:
               1
     1  N    0.160678
     2  N    0.331405
     3  H    0.507916
 Sum of Mulliken charges =   1.00000

 Dipole moment (field-independent basis, Debye):
    X=             -0.2089    Y=              2.6606    Z=             -0.0000  Tot=              2.6688
 Quadrupole moment (field-independent basis, Debye-Ang):
   XX=             -9.2458   YY=             -3.8543   ZZ=             -9.2749
   XY=             -0.3258   XZ=             -0.0000   YZ=              0.0000

 Normal termination of Gaussian 16 at Fri Sep 22 17:01:26 2023.
