 Gaussian 16, Revision A.03,
 Gaussian 16:  ES64L-G16RevA.03 25-Dec-2016

 ----------------
 # b3lyp/6-31g(d)
 ----------------

 -----------------------
 tmpdir/M3_conf_0_59.gjf
 -----------------------
 Symbolic Z-matrix:
 Charge = -1 Multiplicity = 1

                         Standard orientation:
 ---------------------------------------------------------------------
 Center     Atomic      Atomic             Coordinates (Angstroms)
 Number     Number       Type             X           Y           Z
 ---------------------------------------------------------------------
      1          7           0       -0.811001    0.128294   -0.011528
      2          6           0        0.656065   -0.024338   -0.004663
      3          1           0       -1.303217   -0.678523    0.039839
      4          1           0        1.026028    1.003292   -0.003459
      5          1           0        0.973011   -0.494420    0.935411
      6          1           0        1.044796   -0.582375   -0.863121
 ---------------------------------------------------------------------

 SCF Done:  E(RB3LYP) =  -95.1457885751     A.U. after   13 cycles

 The electronic state is 1-A.
 Alpha  occ. eigenvalues --  -13.91924  -9.94042  -0.51162  -0.36062  -0.16989
 Alpha  occ. eigenvalues --   -0.15689  -0.09741   0.08880   0.14817
 Alpha virt. eigenvalues --    0.33373   0.39292   0.40335   0.40679   0.50864
 Alpha virt. eigenvalues --    0.81618   0.82082   0.85076   1.04863   1.07186
 Alpha virt. eigenvalues --    1.08384   1.12646   1.14312   1.19166   1.25346

 Mulliken charges:
               1
     1  N   -0.918877
     2  C   -0.234234
     3  H    0.139866
     4  H    0.042400
     5  H   -0.012125
     6  H   -0.017030
 Sum of Mulliken charges =  -1.00000

 Dipole moment (field-independent basis, Debye):
    X=              2.2878    Y=             -1.2457    Z=              0.1235  Tot=              2.6079
 Quadrupole moment (field-independent basis, Debye-Ang):
   XX=            -20.6537   YY=            -16.6440   ZZ=            -17.7231
   XY=              2.4521   XZ=             -0.1710   YZ=             -0.0222

 Normal termination of Gaussian 16 at Fri Sep 22 17:01:28 2023.
