 Gaussian 16, Revision A.03,
 Gaussian 16:  ES64L-G16RevA.03 25-Dec-2016

 ----------------
 # b3lyp/6-31g(d)
 ----------------

 ----------------------
 tmpdir/M3_conf_0_1.gjf
 ----------------------
 Symbolic Z-matrix:
 Charge =  0 Multiplicity = 1

                         Standard orientation:
 ---------------------------------------------------------------------
 Center     Atomic      Atomic             Coordinates (Angstroms)
 Number     Number       Type             X           Y           Z
 ---------------------------------------------------------------------
      1          6           0       -0.773719    0.004477   -0.014717
      2          6           0        0.773048    0.008611   -0.005628
      3          1           0       -1.315167    0.967226   -0.264252
      4          1           0       -1.132518   -0.800076   -0.671469
      5          1           0       -1.087355   -0.286328    0.995571
      6          1           0        1.269707   -0.224760   -0.988400
      7          1           0        1.123174   -0.723000    0.734183
      8          1           0        1.146185    0.988412    0.316440
 ---------------------------------------------------------------------

 SCF Done:  E(RB3LYP) =  -79.8243664472     A.U. after   10 cycles

 The electronic state is 1-A.
 Alpha  occ. eigenvalues --  -10.17750 -10.17696  -0.74318  -0.60960  -0.42781
 Alpha  occ. eigenvalues --   -0.42609  -0.36281  -0.33807  -0.33536
 Alpha virt. eigenvalues --    0.10245   0.13683   0.14191   0.15649   0.20562
 Alpha virt. eigenvalues --    0.21635   0.23788   0.51702   0.54220   0.54295
 Alpha virt. eigenvalues --    0.65164   0.66055   0.67200   0.86427   0.86711

 Mulliken charges:
               1
     1  C   -0.433618
     2  C   -0.434063
     3  H    0.140989
     4  H    0.146705
     5  H    0.146017
     6  H    0.140109
     7  H    0.146884
     8  H    0.146976
 Sum of Mulliken charges =  -0.00000

 Dipole moment (field-independent basis, Debye):
    X=              0.0032    Y=             -0.0469    Z=              0.0879  Tot=              0.0997
 Quadrupole moment (field-independent basis, Debye-Ang):
   XX=            -15.2281   YY=            -14.7199   ZZ=            -14.8353
   XY=             -0.1020   XZ=             -0.0218   YZ=             -0.0061

 Normal termination of Gaussian 16 at Fri Sep 22 17:01:05 2023.
