 Gaussian 16, Revision A.03,
 Gaussian 16:  ES64L-G16RevA.03 25-Dec-2016

 ----------------
 # b3lyp/6-31g(d)
 ----------------

 -----------------------
 tmpdir/M3_conf_0_71.gjf
 -----------------------
 Symbolic Z-matrix:
 Charge =  0 Multiplicity = 1

                         Standard orientation:
 ---------------------------------------------------------------------
 Center     Atomic      Atomic             Coordinates (Angstroms)
 Number     Number       Type             X           Y           Z
 ---------------------------------------------------------------------
      1          1           0       -2.799057    0.999813   -0.281728
      2          6           0       -2.418727    0.010513    0.004277
      3          6           0       -0.905934    0.006291   -0.013064
      4          6           0       -0.200024   -1.204915   -0.009488
      5          6           0       -0.189799    1.208177   -0.003675
      6          6           0        1.193322   -1.211855    0.000547
      7          1           0       -0.749072   -2.143527   -0.009332
      8          6           0        1.206872    1.204055    0.004855
      9          1           0       -0.727305    2.154012   -0.007658
     10          6           0        1.900382   -0.005878    0.007022
     11          1           0        1.729185   -2.157244    0.000427
     12          1           0        1.749981    2.145173    0.009633
     13          1           0        2.986949   -0.011757    0.012831
     14          1           0       -2.882714   -0.306891    1.034133
     15          1           0       -2.824519   -0.717907   -0.701148
 ---------------------------------------------------------------------

 SCF Done:  E(RB3LYP) =  -271.563095831     A.U. after   13 cycles

 The electronic state is 1-A.
 Alpha  occ. eigenvalues --  -10.19319 -10.18801 -10.18518 -10.18495 -10.18331
 Alpha  occ. eigenvalues --  -10.18276 -10.18235  -0.84828  -0.76339  -0.73806
 Alpha  occ. eigenvalues --   -0.67621  -0.59913  -0.57696  -0.50502  -0.45223
 Alpha  occ. eigenvalues --   -0.45083  -0.41520  -0.40511  -0.40173  -0.38148
 Alpha  occ. eigenvalues --   -0.34603  -0.33572  -0.33484  -0.24456  -0.23519
 Alpha virt. eigenvalues --    0.00294   0.00645   0.09513   0.11624   0.13586
 Alpha virt. eigenvalues --    0.14070   0.16253   0.17468   0.18838   0.19251
 Alpha virt. eigenvalues --    0.20370   0.24080   0.31057   0.32050   0.32953

 Mulliken charges:
               1
     1  H    0.154554
     2  C   -0.525004
     3  C    0.181653
     4  C   -0.173564
     5  C   -0.178977
     6  C   -0.128807
     7  H    0.121678
     8  C   -0.127095
     9  H    0.121423
    10  C   -0.132244
    11  H    0.127069
    12  H    0.127174
    13  H    0.126023
    14  H    0.145398
    15  H    0.160720
 Sum of Mulliken charges =  -0.00000

 Dipole moment (field-independent basis, Debye):
    X=             -0.2482    Y=             -0.0418    Z=             -0.0292  Tot=              0.2534
 Quadrupole moment (field-independent basis, Debye-Ang):
   XX=            -38.0551   YY=            -38.1753   ZZ=            -44.9378
   XY=              0.1445   XZ=              0.1018   YZ=             -0.0785

 Normal termination of Gaussian 16 at Fri Sep 22 17:02:18 2023.
