 Gaussian 16, Revision A.03,
 Gaussian 16:  ES64L-G16RevA.03 25-Dec-2016

 ----------------
 # b3lyp/6-31g(d)
 ----------------

 -----------------------
 tmpdir/M3_conf_0_49.gjf
 -----------------------
 Symbolic Z-matrix:
 Charge =  0 Multiplicity = 1

                         Standard orientation:
 ---------------------------------------------------------------------
 Center     Atomic      Atomic             Coordinates (Angstroms)
 Number     Number       Type             X           Y           Z
 ---------------------------------------------------------------------
      1          6           0       -0.774866    0.004002    0.001733
      2          6           0        0.779938   -0.018365   -0.008720
      3          1           0        1.137287   -0.605904    0.856229
      4          1           0       -1.279515   -0.977194   -0.206790
      5          1           0       -1.102676    0.367243    0.984468
      6          1           0       -1.088827    0.754027   -0.734384
      7          1           0        1.063232   -0.507160   -0.904316
      8          1           0        1.240070    1.055167    0.046714
 ---------------------------------------------------------------------

 SCF Done:  E(RB3LYP) =  -79.8227073262     A.U. after   10 cycles

 The electronic state is 1-A.
 Alpha  occ. eigenvalues --  -10.17821 -10.17589  -0.74310  -0.60648  -0.43322
 Alpha  occ. eigenvalues --   -0.42639  -0.35570  -0.34052  -0.33621
 Alpha virt. eigenvalues --    0.09914   0.13752   0.15991   0.17017   0.18586
 Alpha virt. eigenvalues --    0.19466   0.22951   0.51693   0.54855   0.55182
 Alpha virt. eigenvalues --    0.61191   0.65579   0.66440   0.85099   0.87932

 Mulliken charges:
               1
     1  C   -0.433124
     2  C   -0.426438
     3  H    0.143517
     4  H    0.141127
     5  H    0.144096
     6  H    0.145328
     7  H    0.156446
     8  H    0.129049
 Sum of Mulliken charges =   0.00000

 Dipole moment (field-independent basis, Debye):
    X=             -0.0145    Y=             -0.0267    Z=             -0.0241  Tot=              0.0388
 Quadrupole moment (field-independent basis, Debye-Ang):
   XX=            -15.5450   YY=            -14.5982   ZZ=            -14.7830
   XY=              0.1779   XZ=              0.0414   YZ=              0.0324

 Normal termination of Gaussian 16 at Fri Sep 22 17:01:21 2023.
