 Gaussian 16, Revision A.03,
 Gaussian 16:  ES64L-G16RevA.03 25-Dec-2016

 ----------------
 # b3lyp/6-31g(d)
 ----------------

 -----------------------
 tmpdir/M3_conf_0_37.gjf
 -----------------------
 Symbolic Z-matrix:
 Charge =  0 Multiplicity = 1

                         Standard orientation:
 ---------------------------------------------------------------------
 Center     Atomic      Atomic             Coordinates (Angstroms)
 Number     Number       Type             X           Y           Z
 ---------------------------------------------------------------------
      1          6           0       -0.770995    0.004083    0.001751
      2          6           0        0.776105   -0.018459   -0.008741
      3          1           0       -1.275837   -0.977034   -0.206694
      4          1           0       -1.098679    0.367602    0.984418
      5          1           0       -1.084860    0.754128   -0.734387
      6          1           0        1.133026   -0.606082    0.856317
      7          1           0        1.059256   -0.507350   -0.904329
      8          1           0        1.236438    1.054989    0.046613
 ---------------------------------------------------------------------

 SCF Done:  E(RB3LYP) =  -79.8227660181     A.U. after    9 cycles

 The electronic state is 1-A.
 Alpha  occ. eigenvalues --  -10.17770 -10.17539  -0.74460  -0.60589  -0.43399
 Alpha  occ. eigenvalues --   -0.42713  -0.35644  -0.33998  -0.33585
 Alpha virt. eigenvalues --    0.09901   0.13763   0.15985   0.17013   0.18595
 Alpha virt. eigenvalues --    0.19479   0.23203   0.51473   0.54972   0.55303
 Alpha virt. eigenvalues --    0.61132   0.65903   0.66416   0.85073   0.87909

 Mulliken charges:
               1
     1  C   -0.432449
     2  C   -0.425749
     3  H    0.140957
     4  H    0.143846
     5  H    0.145093
     6  H    0.143258
     7  H    0.156181
     8  H    0.128862
 Sum of Mulliken charges =  -0.00000

 Dipole moment (field-independent basis, Debye):
    X=             -0.0149    Y=             -0.0268    Z=             -0.0243  Tot=              0.0392
 Quadrupole moment (field-independent basis, Debye-Ang):
   XX=            -15.5674   YY=            -14.5938   ZZ=            -14.7786
   XY=              0.1802   XZ=              0.0416   YZ=              0.0325

 Normal termination of Gaussian 16 at Fri Sep 22 17:01:15 2023.
