 Gaussian 16, Revision A.03,
 Gaussian 16:  ES64L-G16RevA.03 25-Dec-2016

 ----------------
 # b3lyp/6-31g(d)
 ----------------

 -----------------------
 tmpdir/M3_conf_0_52.gjf
 -----------------------
 Symbolic Z-matrix:
 Charge =  0 Multiplicity = 1

                         Standard orientation:
 ---------------------------------------------------------------------
 Center     Atomic      Atomic             Coordinates (Angstroms)
 Number     Number       Type             X           Y           Z
 ---------------------------------------------------------------------
      1          1           0        1.502261    0.182169    1.033542
      2          6           0        1.146281    0.046274   -0.003683
      3          6           0       -0.295773   -0.197649    0.017922
      4          1           0        1.297986    1.006121   -0.571708
      5          1           0        1.719677   -0.851087   -0.486616
      6          7           0       -1.374711    0.081577   -0.008665
 ---------------------------------------------------------------------

 SCF Done:  E(RB3LYP) =  -132.737034544     A.U. after   13 cycles

 The electronic state is 1-A.
 Alpha  occ. eigenvalues --  -14.32368 -10.24791 -10.21951  -0.92151  -0.76477
 Alpha  occ. eigenvalues --   -0.50166  -0.46138  -0.45467  -0.35879  -0.33520
 Alpha  occ. eigenvalues --   -0.33190
 Alpha virt. eigenvalues --    0.01966   0.04896   0.08192   0.13679   0.15823
 Alpha virt. eigenvalues --    0.23333   0.30770   0.52855   0.53555   0.56646
 Alpha virt. eigenvalues --    0.61548   0.62557   0.68837   0.74426   0.79799

 Mulliken charges:
               1
     1  H    0.205755
     2  C   -0.518238
     3  C    0.284259
     4  H    0.211018
     5  H    0.182875
     6  N   -0.365668
 Sum of Mulliken charges =  -0.00000

 Dipole moment (field-independent basis, Debye):
    X=              3.5340    Y=             -0.0799    Z=              0.0499  Tot=              3.5352
 Quadrupole moment (field-independent basis, Debye-Ang):
   XX=            -20.5295   YY=            -17.0191   ZZ=            -17.2066
   XY=              0.3213   XZ=              0.0383   YZ=             -0.0209

 Normal termination of Gaussian 16 at Fri Sep 22 17:01:19 2023.
