 Gaussian 16, Revision A.03,
 Gaussian 16:  ES64L-G16RevA.03 25-Dec-2016

 ----------------
 # b3lyp/6-31g(d)
 ----------------

 -----------------------
 tmpdir/M3_conf_0_44.gjf
 -----------------------
 Symbolic Z-matrix:
 Charge =  0 Multiplicity = 1

                         Standard orientation:
 ---------------------------------------------------------------------
 Center     Atomic      Atomic             Coordinates (Angstroms)
 Number     Number       Type             X           Y           Z
 ---------------------------------------------------------------------
      1          6           0        0.780563   -0.017977   -0.008974
      2          6           0       -0.774247    0.003768    0.001878
      3          1           0       -1.099676    0.742662   -0.740487
      4          1           0        1.138191   -0.595112    0.862832
      5          1           0        1.063716   -0.517224   -0.898827
      6          1           0        1.240199    1.056352    0.033529
      7          1           0       -1.278509   -0.980073   -0.194776
      8          1           0       -1.101816    0.378652    0.980305
 ---------------------------------------------------------------------

 SCF Done:  E(RB3LYP) =  -79.8228434786     A.U. after   10 cycles

 The electronic state is 1-A.
 Alpha  occ. eigenvalues --  -10.17833 -10.17586  -0.74300  -0.60674  -0.43313
 Alpha  occ. eigenvalues --   -0.42599  -0.35591  -0.34032  -0.33659
 Alpha virt. eigenvalues --    0.09932   0.13752   0.15951   0.17017   0.18615
 Alpha virt. eigenvalues --    0.19467   0.22973   0.51715   0.54856   0.55091
 Alpha virt. eigenvalues --    0.61258   0.65576   0.66463   0.85129   0.87923

 Mulliken charges:
               1
     1  C   -0.426166
     2  C   -0.433512
     3  H    0.145263
     4  H    0.143731
     5  H    0.156506
     6  H    0.129147
     7  H    0.141008
     8  H    0.144022
 Sum of Mulliken charges =  -0.00000

 Dipole moment (field-independent basis, Debye):
    X=             -0.0151    Y=             -0.0268    Z=             -0.0231  Tot=              0.0385
 Quadrupole moment (field-independent basis, Debye-Ang):
   XX=            -15.5269   YY=            -14.6019   ZZ=            -14.7887
   XY=              0.1673   XZ=              0.0496   YZ=              0.0343

 Normal termination of Gaussian 16 at Fri Sep 22 17:01:15 2023.
