 Gaussian 16, Revision A.03,
 Gaussian 16:  ES64L-G16RevA.03 25-Dec-2016

 ----------------
 # b3lyp/6-31g(d)
 ----------------

 -----------------------
 tmpdir/M3_conf_0_58.gjf
 -----------------------
 Symbolic Z-matrix:
 Charge =  0 Multiplicity = 1

                         Standard orientation:
 ---------------------------------------------------------------------
 Center     Atomic      Atomic             Coordinates (Angstroms)
 Number     Number       Type             X           Y           Z
 ---------------------------------------------------------------------
      1          7           0       -1.131901   -0.137761    0.000111
      2          7           0        0.115387    0.013278   -0.000288
      3          1           0       -1.690272    0.745671    0.000153
      4          7           0        1.257981    0.017959    0.000156
 ---------------------------------------------------------------------

 SCF Done:  E(RB3LYP) =  -164.780302755     A.U. after   13 cycles

 The electronic state is 1-A.
 Alpha  occ. eigenvalues --  -14.52752 -14.42008 -14.39059  -1.14285  -0.97241
 Alpha  occ. eigenvalues --   -0.62753  -0.50949  -0.50906  -0.45833  -0.32075
 Alpha  occ. eigenvalues --   -0.27461
 Alpha virt. eigenvalues --   -0.03788   0.00436   0.07641   0.21669   0.44226
 Alpha virt. eigenvalues --    0.51037   0.60614   0.60694   0.65093   0.70767
 Alpha virt. eigenvalues --    0.71028   0.74463   0.81740   0.86230   0.92004

 Mulliken charges:
               1
     1  N   -0.494608
     2  N    0.375516
     3  H    0.358697
     4  N   -0.239605
 Sum of Mulliken charges =   0.00000

 Dipole moment (field-independent basis, Debye):
    X=             -1.1750    Y=              1.6269    Z=             -0.0005  Tot=              2.0068
 Quadrupole moment (field-independent basis, Debye-Ang):
   XX=            -17.8485   YY=            -15.6187   ZZ=            -16.9504
   XY=             -2.9640   XZ=             -0.0005   YZ=              0.0002

 Normal termination of Gaussian 16 at Fri Sep 22 17:01:26 2023.
