 Gaussian 16, Revision A.03,
 Gaussian 16:  ES64L-G16RevA.03 25-Dec-2016

 ----------------
 # b3lyp/6-31g(d)
 ----------------

 -----------------------
 tmpdir/M3_conf_0_25.gjf
 -----------------------
 Symbolic Z-matrix:
 Charge =  0 Multiplicity = 1

                         Standard orientation:
 ---------------------------------------------------------------------
 Center     Atomic      Atomic             Coordinates (Angstroms)
 Number     Number       Type             X           Y           Z
 ---------------------------------------------------------------------
      1          6           0       -0.783604    0.014287   -0.011727
      2          6           0        0.771154    0.000748    0.004274
      3          1           0        1.132749   -0.426140   -0.940164
      4          1           0       -1.167393   -0.958087   -0.345293
      5          1           0       -1.167143    0.171586    1.005984
      6          1           0       -1.077751    0.814643   -0.635676
      7          1           0        1.262413    0.997429    0.164024
      8          1           0        1.091826   -0.689636    0.795845
 ---------------------------------------------------------------------

 SCF Done:  E(RB3LYP) =  -79.8259894224     A.U. after   10 cycles

 The electronic state is 1-A.
 Alpha  occ. eigenvalues --  -10.17498 -10.17033  -0.74485  -0.61015  -0.43697
 Alpha  occ. eigenvalues --   -0.42660  -0.35736  -0.34165  -0.33780
 Alpha virt. eigenvalues --    0.10265   0.15003   0.15739   0.16882   0.19150
 Alpha virt. eigenvalues --    0.20132   0.23083   0.51704   0.54176   0.54959
 Alpha virt. eigenvalues --    0.61859   0.65297   0.65847   0.87910   0.88605

 Mulliken charges:
               1
     1  C   -0.433318
     2  C   -0.437003
     3  H    0.144090
     4  H    0.145263
     5  H    0.143006
     6  H    0.155244
     7  H    0.139903
     8  H    0.142816
 Sum of Mulliken charges =   0.00000

 Dipole moment (field-independent basis, Debye):
    X=             -0.0232    Y=             -0.0269    Z=             -0.0128  Tot=              0.0378
 Quadrupole moment (field-independent basis, Debye-Ang):
   XX=            -15.4464   YY=            -14.5136   ZZ=            -14.7760
   XY=              0.1602   XZ=             -0.0620   YZ=             -0.0479

 Normal termination of Gaussian 16 at Fri Sep 22 17:01:13 2023.
