 Gaussian 16, Revision A.03,
 Gaussian 16:  ES64L-G16RevA.03 25-Dec-2016

 ----------------
 # b3lyp/6-31g(d)
 ----------------

 ------------------------
 tmpdir/M3_frag_ref_0.gjf
 ------------------------
 Symbolic Z-matrix:
 Charge =  0 Multiplicity = 1

                         Standard orientation:
 ---------------------------------------------------------------------
 Center     Atomic      Atomic             Coordinates (Angstroms)
 Number     Number       Type             X           Y           Z
 ---------------------------------------------------------------------
      1          6           0        1.401360   -0.119083   -0.003009
      2          6           0        0.794235    1.144491   -0.001412
      3          6           0        0.591669   -1.260043    0.000021
      4          6           0       -0.594135    1.262476    0.000413
      5          1           0        1.416318    2.036413    0.003666
      6          6           0       -0.800291   -1.144549    0.000412
      7          1           0        1.052090   -2.245661   -0.002549
      8          6           0       -1.395105    0.116868    0.000813
      9          1           0       -1.052934    2.247595   -0.001110
     10          1           0       -1.416736   -2.039396    0.000288
     11          1           0       -2.477785    0.209465    0.000331
     12          1           0        2.492647   -0.209371    0.015951
 ---------------------------------------------------------------------

 SCF Done:  E(RB3LYP) =  -232.248467247     A.U. after   12 cycles

 The electronic state is 1-A.
 Alpha  occ. eigenvalues --  -10.18905 -10.18773 -10.18758 -10.18735 -10.18693
 Alpha  occ. eigenvalues --  -10.18674  -0.84606  -0.73975  -0.73950  -0.59772
 Alpha  occ. eigenvalues --   -0.59682  -0.51818  -0.45905  -0.43801  -0.41764
 Alpha  occ. eigenvalues --   -0.41646  -0.35926  -0.34152  -0.33883  -0.24635
 Alpha  occ. eigenvalues --   -0.24617
 Alpha virt. eigenvalues --    0.00267   0.00421   0.09028   0.14387   0.14467
 Alpha virt. eigenvalues --    0.16358   0.18102   0.18188   0.18978   0.30189
 Alpha virt. eigenvalues --    0.30244   0.31769   0.32015   0.47496   0.52734

 Mulliken charges:
               1
     1  C   -0.127236
     2  C   -0.130975
     3  C   -0.131321
     4  C   -0.126271
     5  H    0.127757
     6  C   -0.126072
     7  H    0.127586
     8  C   -0.130140
     9  H    0.128659
    10  H    0.128862
    11  H    0.128936
    12  H    0.130214
 Sum of Mulliken charges =  -0.00000

 Dipole moment (field-independent basis, Debye):
    X=             -0.0036    Y=              0.0006    Z=              0.0104  Tot=              0.0110
 Quadrupole moment (field-independent basis, Debye-Ang):
   XX=            -31.3474   YY=            -31.4616   ZZ=            -38.6174
   XY=              0.0041   XZ=              0.0365   YZ=              0.0058

 Normal termination of Gaussian 16 at Fri Sep 22 17:00:59 2023.
