 Gaussian 16, Revision A.03,
 Gaussian 16:  ES64L-G16RevA.03 25-Dec-2016

 ----------------
 # b3lyp/6-31g(d)
 ----------------

 ---------------------------
 tmpdir/M3_frag_conf_0_0.gjf
 ---------------------------
 Symbolic Z-matrix:
 Charge =  0 Multiplicity = 1

                         Standard orientation:
 ---------------------------------------------------------------------
 Center     Atomic      Atomic             Coordinates (Angstroms)
 Number     Number       Type             X           Y           Z
 ---------------------------------------------------------------------
      1          6           0        1.375637   -0.289920   -0.001447
      2          6           0        0.930720    1.040086   -0.000819
      3          6           0        0.431664   -1.322095    0.000531
      4          6           0       -0.433969    1.324300    0.000697
      5          1           0        1.663116    1.842741    0.002167
      6          6           0       -0.935959   -1.037700   -0.000605
      7          1           0        0.768156   -2.356908    0.002203
      8          6           0       -1.371344    0.287221    0.000092
      9          1           0       -0.769040    2.358537    0.000287
     10          1           0       -1.657460   -1.850663    0.000085
     11          1           0       -2.434709    0.512353    0.000368
     12          1           0        2.449442   -0.517407    0.004195
 ---------------------------------------------------------------------

 SCF Done:  E(RB3LYP) =  -232.248438752     A.U. after   11 cycles

 The electronic state is 1-A.
 Alpha  occ. eigenvalues --  -10.18921 -10.18786 -10.18767 -10.18741 -10.18706
 Alpha  occ. eigenvalues --  -10.18686  -0.84598  -0.73980  -0.73932  -0.59744
 Alpha  occ. eigenvalues --   -0.59696  -0.51805  -0.45896  -0.43802  -0.41769
 Alpha  occ. eigenvalues --   -0.41625  -0.35921  -0.34173  -0.33858  -0.24638
 Alpha  occ. eigenvalues --   -0.24612
 Alpha virt. eigenvalues --    0.00268   0.00413   0.09011   0.14352   0.14473
 Alpha virt. eigenvalues --    0.16350   0.18103   0.18162   0.18957   0.30161
 Alpha virt. eigenvalues --    0.30254   0.31730   0.32029   0.47503   0.52735

 Mulliken charges:
               1
     1  C   -0.127689
     2  C   -0.130360
     3  C   -0.130689
     4  C   -0.127435
     5  H    0.128293
     6  C   -0.126527
     7  H    0.127428
     8  C   -0.129516
     9  H    0.128363
    10  H    0.128927
    11  H    0.129224
    12  H    0.129982
 Sum of Mulliken charges =  -0.00000

 Dipole moment (field-independent basis, Debye):
    X=             -0.0025    Y=             -0.0007    Z=              0.0058  Tot=              0.0064
 Quadrupole moment (field-independent basis, Debye-Ang):
   XX=            -31.3246   YY=            -31.4852   ZZ=            -38.6232
   XY=              0.0065   XZ=              0.0124   YZ=             -0.0023

 Normal termination of Gaussian 16 at Fri Sep 22 17:02:26 2023.
