 Gaussian 16, Revision A.03,
 Gaussian 16:  ES64L-G16RevA.03 25-Dec-2016

 ----------------
 # b3lyp/6-31g(d)
 ----------------

 --------------------
 tmpdir/M3_ref_70.gjf
 --------------------
 Symbolic Z-matrix:
 Charge =  0 Multiplicity = 1

                         Standard orientation:
 ---------------------------------------------------------------------
 Center     Atomic      Atomic             Coordinates (Angstroms)
 Number     Number       Type             X           Y           Z
 ---------------------------------------------------------------------
      1          1           0       -2.822132   -0.719373   -0.700638
      2          6           0       -2.418748    0.010934    0.004230
      3          6           0       -0.905936    0.006591   -0.013109
      4          6           0       -0.200213   -1.204674   -0.009545
      5          6           0       -0.189631    1.208347   -0.003735
      6          6           0        1.193109   -1.211828    0.000429
      7          1           0       -0.749372   -2.143271   -0.009362
      8          6           0        1.207079    1.203965    0.004830
      9          1           0       -0.726995    2.154212   -0.007761
     10          6           0        1.900366   -0.006128    0.007127
     11          1           0        1.728840   -2.157318    0.000353
     12          1           0        1.750357    2.145019    0.009571
     13          1           0        2.986965   -0.012291    0.012999
     14          1           0       -2.879701   -0.308631    1.034724
     15          1           0       -2.804114    0.998413   -0.281250
 ---------------------------------------------------------------------

 SCF Done:  E(RB3LYP) =  -271.563132692     A.U. after   13 cycles

 The electronic state is 1-A.
 Alpha  occ. eigenvalues --  -10.19319 -10.18803 -10.18516 -10.18494 -10.18328
 Alpha  occ. eigenvalues --  -10.18272 -10.18235  -0.84828  -0.76339  -0.73804
 Alpha  occ. eigenvalues --   -0.67622  -0.59912  -0.57695  -0.50501  -0.45222
 Alpha  occ. eigenvalues --   -0.45081  -0.41517  -0.40518  -0.40167  -0.38160
 Alpha  occ. eigenvalues --   -0.34602  -0.33568  -0.33487  -0.24455  -0.23516
 Alpha virt. eigenvalues --    0.00295   0.00651   0.09516   0.11621   0.13591
 Alpha virt. eigenvalues --    0.14068   0.16263   0.17463   0.18839   0.19240
 Alpha virt. eigenvalues --    0.20359   0.24075   0.31059   0.32053   0.32952

 Mulliken charges:
               1
     1  H    0.160701
     2  C   -0.525059
     3  C    0.181785
     4  C   -0.173664
     5  C   -0.179044
     6  C   -0.128750
     7  H    0.121646
     8  C   -0.127108
     9  H    0.121428
    10  C   -0.132255
    11  H    0.127066
    12  H    0.127151
    13  H    0.126008
    14  H    0.145400
    15  H    0.154697
 Sum of Mulliken charges =  -0.00000

 Dipole moment (field-independent basis, Debye):
    X=             -0.2501    Y=             -0.0419    Z=             -0.0289  Tot=              0.2552
 Quadrupole moment (field-independent basis, Debye-Ang):
   XX=            -38.0533   YY=            -38.1755   ZZ=            -44.9376
   XY=              0.1375   XZ=              0.1035   YZ=             -0.0795

 Normal termination of Gaussian 16 at Fri Sep 22 17:00:37 2023.
