 Gaussian 16, Revision A.03,
 Gaussian 16:  ES64L-G16RevA.03 25-Dec-2016

 ----------------
 # b3lyp/6-31g(d)
 ----------------

 --------------------
 tmpdir/M3_ref_40.gjf
 --------------------
 Symbolic Z-matrix:
 Charge =  0 Multiplicity = 1

                         Standard orientation:
 ---------------------------------------------------------------------
 Center     Atomic      Atomic             Coordinates (Angstroms)
 Number     Number       Type             X           Y           Z
 ---------------------------------------------------------------------
      1          6           0        1.314469   -0.246386    0.011262
      2          6           0       -0.007627    0.564985    0.000435
      3          6           0       -1.317060   -0.273630    0.009195
      4          1           0        1.765590   -0.531132    1.010134
      5          1           0        1.195504   -1.145988   -0.608318
      6          1           0        2.057727    0.368021   -0.511883
      7          1           0       -0.020691    1.205947   -0.890738
      8          1           0       -0.048884    1.231301    0.870697
      9          1           0       -1.409836   -0.805388   -0.954935
     10          1           0       -1.210612   -0.980950    0.789933
     11          1           0       -2.267484    0.388372    0.169758
 ---------------------------------------------------------------------

 SCF Done:  E(RB3LYP) =  -119.133190186     A.U. after   11 cycles

 The electronic state is 1-A.
 Alpha  occ. eigenvalues --  -10.18006 -10.17642 -10.17507  -0.76827  -0.67324
 Alpha  occ. eigenvalues --   -0.57741  -0.45017  -0.42450  -0.39165  -0.37930
 Alpha  occ. eigenvalues --   -0.33607  -0.32333  -0.32107
 Alpha virt. eigenvalues --    0.09112   0.13556   0.14514   0.15400   0.16080
 Alpha virt. eigenvalues --    0.17448   0.17807   0.22390   0.23885   0.26173
 Alpha virt. eigenvalues --    0.51634   0.52498   0.54557   0.57744   0.59460

 Mulliken charges:
               1
     1  C   -0.444405
     2  C   -0.241897
     3  C   -0.431846
     4  H    0.139988
     5  H    0.143439
     6  H    0.145302
     7  H    0.134643
     8  H    0.135659
     9  H    0.139687
    10  H    0.154453
    11  H    0.124978
 Sum of Mulliken charges =  -0.00000

 Dipole moment (field-independent basis, Debye):
    X=              0.0992    Y=              0.0434    Z=             -0.0344  Tot=              0.1136
 Quadrupole moment (field-independent basis, Debye-Ang):
   XX=            -22.0447   YY=            -21.7422   ZZ=            -21.1621
   XY=             -0.1859   XZ=              0.0518   YZ=             -0.0381

 Normal termination of Gaussian 16 at Fri Sep 22 16:59:49 2023.
