 Gaussian 16, Revision A.03,
 Gaussian 16:  ES64L-G16RevA.03 25-Dec-2016

 ----------------
 # b3lyp/6-31g(d)
 ----------------

 --------------------
 tmpdir/M3_ref_61.gjf
 --------------------
 Symbolic Z-matrix:
 Charge =  1 Multiplicity = 1

                         Standard orientation:
 ---------------------------------------------------------------------
 Center     Atomic      Atomic             Coordinates (Angstroms)
 Number     Number       Type             X           Y           Z
 ---------------------------------------------------------------------
      1          7           0        0.007331    0.470552    0.000000
      2          7           0        0.007331   -0.672079    0.000000
      3          1           0       -0.102630    1.410687   -0.000000
 ---------------------------------------------------------------------

 SCF Done:  E(RB3LYP) =  -109.704677923     A.U. after   10 cycles

 The electronic state is 1-A'.
 Alpha  occ. eigenvalues --  -14.86373 -14.85490  -1.48536  -1.13340  -0.82704
 Alpha  occ. eigenvalues --   -0.82292  -0.82044
 Alpha virt. eigenvalues --   -0.41723  -0.41555  -0.21364   0.03582   0.23950
 Alpha virt. eigenvalues --    0.28312   0.28322   0.37578   0.42002   0.42137
 Alpha virt. eigenvalues --    0.60184   0.77900   1.03532   1.09379   1.09500

 Mulliken charges:
               1
     1  N    0.176889
     2  N    0.316545
     3  H    0.506566
 Sum of Mulliken charges =   1.00000

 Dipole moment (field-independent basis, Debye):
    X=             -0.2071    Y=              2.7038    Z=              0.0000  Tot=              2.7117
 Quadrupole moment (field-independent basis, Debye-Ang):
   XX=             -9.1801   YY=             -3.9712   ZZ=             -9.2091
   XY=             -0.3242   XZ=              0.0000   YZ=              0.0000

 Normal termination of Gaussian 16 at Fri Sep 22 16:59:59 2023.
