 Gaussian 16, Revision A.03,
 Gaussian 16:  ES64L-G16RevA.03 25-Dec-2016

 ----------------
 # b3lyp/6-31g(d)
 ----------------

 -------------------
 tmpdir/M3_ref_4.gjf
 -------------------
 Symbolic Z-matrix:
 Charge =  0 Multiplicity = 1

                         Standard orientation:
 ---------------------------------------------------------------------
 Center     Atomic      Atomic             Coordinates (Angstroms)
 Number     Number       Type             X           Y           Z
 ---------------------------------------------------------------------
      1          6           0       -1.341042   -0.248960    0.012483
      2          6           0        0.005733    0.546871    0.015232
      3          6           0        1.336562   -0.250140    0.008477
      4          1           0       -1.947012   -0.275400    0.957172
      5          1           0       -1.162689   -1.275658   -0.333973
      6          1           0       -1.981434    0.210916   -0.750652
      7          1           0        0.010771    1.258239    0.852636
      8          1           0        0.012823    1.166728   -0.889940
      9          1           0        1.750166   -0.522357    1.019353
     10          1           0        2.096765    0.337441   -0.522591
     11          1           0        1.213084   -1.186532   -0.549158
 ---------------------------------------------------------------------

 SCF Done:  E(RB3LYP) =  -119.133206710     A.U. after   11 cycles

 The electronic state is 1-A.
 Alpha  occ. eigenvalues --  -10.18147 -10.17462 -10.17457  -0.76539  -0.67499
 Alpha  occ. eigenvalues --   -0.57963  -0.44430  -0.42727  -0.39186  -0.37672
 Alpha  occ. eigenvalues --   -0.33507  -0.32740  -0.31796
 Alpha virt. eigenvalues --    0.09491   0.12142   0.13686   0.14213   0.17011
 Alpha virt. eigenvalues --    0.18263   0.18627   0.23571   0.25103   0.28493
 Alpha virt. eigenvalues --    0.50785   0.52585   0.53486   0.60475   0.62183

 Mulliken charges:
               1
     1  C   -0.448168
     2  C   -0.241578
     3  C   -0.442802
     4  H    0.142744
     5  H    0.144083
     6  H    0.144851
     7  H    0.137992
     8  H    0.136775
     9  H    0.139504
    10  H    0.143991
    11  H    0.142607
 Sum of Mulliken charges =  -0.00000

 Dipole moment (field-independent basis, Debye):
    X=             -0.0106    Y=              0.0975    Z=             -0.1041  Tot=              0.1430
 Quadrupole moment (field-independent basis, Debye-Ang):
   XX=            -21.8028   YY=            -21.6284   ZZ=            -21.2293
   XY=             -0.0006   XZ=             -0.0734   YZ=             -0.0279

 Normal termination of Gaussian 16 at Fri Sep 22 16:59:37 2023.
