 Gaussian 16, Revision A.03,
 Gaussian 16:  ES64L-G16RevA.03 25-Dec-2016

 ----------------
 # b3lyp/6-31g(d)
 ----------------

 --------------------
 tmpdir/M3_ref_23.gjf
 --------------------
 Symbolic Z-matrix:
 Charge =  0 Multiplicity = 1

                         Standard orientation:
 ---------------------------------------------------------------------
 Center     Atomic      Atomic             Coordinates (Angstroms)
 Number     Number       Type             X           Y           Z
 ---------------------------------------------------------------------
      1          6           0       -0.775131   -0.002137   -0.014566
      2          6           0        0.775696    0.007365   -0.010528
      3          1           0        1.128148    1.045923    0.034533
      4          1           0       -1.316950    0.830546   -0.558081
      5          1           0       -1.131858   -0.974615   -0.379232
      6          1           0       -1.085518    0.048619    1.036647
      7          1           0        1.266517   -0.499774   -0.887365
      8          1           0        1.136273   -0.482066    0.904058
 ---------------------------------------------------------------------

 SCF Done:  E(RB3LYP) =  -79.8245478183     A.U. after   10 cycles

 The electronic state is 1-A.
 Alpha  occ. eigenvalues --  -10.17764 -10.17738  -0.74256  -0.60942  -0.42769
 Alpha  occ. eigenvalues --   -0.42598  -0.36220  -0.33834  -0.33563
 Alpha virt. eigenvalues --    0.10220   0.13758   0.14363   0.15787   0.20302
 Alpha virt. eigenvalues --    0.21308   0.23577   0.51799   0.54125   0.54444
 Alpha virt. eigenvalues --    0.64921   0.65814   0.66805   0.86583   0.86922

 Mulliken charges:
               1
     1  C   -0.433395
     2  C   -0.433489
     3  H    0.146674
     4  H    0.140825
     5  H    0.146461
     6  H    0.145782
     7  H    0.140395
     8  H    0.146747
 Sum of Mulliken charges =   0.00000

 Dipole moment (field-independent basis, Debye):
    X=              0.0023    Y=             -0.0184    Z=              0.1033  Tot=              0.1049
 Quadrupole moment (field-independent basis, Debye-Ang):
   XX=            -15.2514   YY=            -14.7162   ZZ=            -14.8288
   XY=             -0.1348   XZ=              0.0328   YZ=             -0.0036

 Normal termination of Gaussian 16 at Fri Sep 22 16:59:43 2023.
