 Gaussian 16, Revision A.03,
 Gaussian 16:  ES64L-G16RevA.03 25-Dec-2016

 ----------------
 # b3lyp/6-31g(d)
 ----------------

 --------------------
 tmpdir/M3_ref_26.gjf
 --------------------
 Symbolic Z-matrix:
 Charge =  0 Multiplicity = 1

                         Standard orientation:
 ---------------------------------------------------------------------
 Center     Atomic      Atomic             Coordinates (Angstroms)
 Number     Number       Type             X           Y           Z
 ---------------------------------------------------------------------
      1          6           0       -0.783260    0.014345   -0.011521
      2          6           0        0.771520    0.000704    0.004129
      3          1           0        1.092246   -0.681886    0.802396
      4          1           0       -1.167343   -0.961210   -0.335471
      5          1           0       -1.166439    0.181706    1.004758
      6          1           0       -1.077532    0.808520   -0.643195
      7          1           0        1.262965    0.998882    0.153989
      8          1           0        1.126543   -0.436305   -0.938122
 ---------------------------------------------------------------------

 SCF Done:  E(RB3LYP) =  -79.8259441430     A.U. after   10 cycles

 The electronic state is 1-A.
 Alpha  occ. eigenvalues --  -10.17499 -10.17026  -0.74490  -0.60999  -0.43696
 Alpha  occ. eigenvalues --   -0.42687  -0.35720  -0.34152  -0.33789
 Alpha virt. eigenvalues --    0.10256   0.15001   0.15759   0.16884   0.19137
 Alpha virt. eigenvalues --    0.20133   0.23069   0.51689   0.54219   0.54966
 Alpha virt. eigenvalues --    0.61812   0.65287   0.65851   0.87913   0.88597

 Mulliken charges:
               1
     1  C   -0.433445
     2  C   -0.436774
     3  H    0.142866
     4  H    0.145190
     5  H    0.142873
     6  H    0.155215
     7  H    0.139959
     8  H    0.144116
 Sum of Mulliken charges =   0.00000

 Dipole moment (field-independent basis, Debye):
    X=             -0.0234    Y=             -0.0268    Z=             -0.0129  Tot=              0.0379
 Quadrupole moment (field-independent basis, Debye-Ang):
   XX=            -15.4579   YY=            -14.5132   ZZ=            -14.7700
   XY=              0.1632   XZ=             -0.0558   YZ=             -0.0483

 Normal termination of Gaussian 16 at Fri Sep 22 16:59:48 2023.
