 Gaussian 16, Revision A.03,
 Gaussian 16:  ES64L-G16RevA.03 25-Dec-2016

 ----------------
 # b3lyp/6-31g(d)
 ----------------

 --------------------
 tmpdir/M3_ref_56.gjf
 --------------------
 Symbolic Z-matrix:
 Charge =  0 Multiplicity = 1

                         Standard orientation:
 ---------------------------------------------------------------------
 Center     Atomic      Atomic             Coordinates (Angstroms)
 Number     Number       Type             X           Y           Z
 ---------------------------------------------------------------------
      1          6           0        1.212426    0.079352   -0.001794
      2          6           0       -0.213698   -0.245886    0.001810
      3          6           0       -1.400382   -0.007552    0.013465
      4          1           0        1.301077    1.101767   -0.464233
      5          1           0        1.579540    0.122728    1.039487
      6          1           0        1.825028   -0.727174   -0.586231
      7          1           0       -2.295720    0.547193   -0.069910
 ---------------------------------------------------------------------

 SCF Done:  E(RB3LYP) =  -116.633611888     A.U. after   12 cycles

 The electronic state is 1-A.
 Alpha  occ. eigenvalues --  -10.21783 -10.18400 -10.17097  -0.77378  -0.68768
 Alpha  occ. eigenvalues --   -0.52018  -0.43976  -0.42904  -0.42083  -0.25889
 Alpha  occ. eigenvalues --   -0.25713
 Alpha virt. eigenvalues --    0.01558   0.06028   0.10383   0.14203   0.16977
 Alpha virt. eigenvalues --    0.18166   0.25688   0.43702   0.45724   0.53013
 Alpha virt. eigenvalues --    0.54181   0.61715   0.63584   0.65226   0.70693

 Mulliken charges:
               1
     1  C   -0.529058
     2  C    0.121956
     3  C   -0.306136
     4  H    0.186252
     5  H    0.183174
     6  H    0.159129
     7  H    0.184682
 Sum of Mulliken charges =  -0.00000

 Dipole moment (field-independent basis, Debye):
    X=              0.7335    Y=              0.8254    Z=             -0.0482  Tot=              1.1053
 Quadrupole moment (field-independent basis, Debye-Ang):
   XX=            -15.2660   YY=            -18.5273   ZZ=            -19.1393
   XY=             -1.5925   XZ=              0.3157   YZ=             -0.0617

 Normal termination of Gaussian 16 at Fri Sep 22 16:59:55 2023.
