 Gaussian 16, Revision A.03,
 Gaussian 16:  ES64L-G16RevA.03 25-Dec-2016

 ----------------
 # b3lyp/6-31g(d)
 ----------------

 --------------------
 tmpdir/M3_ref_49.gjf
 --------------------
 Symbolic Z-matrix:
 Charge =  0 Multiplicity = 1

                         Standard orientation:
 ---------------------------------------------------------------------
 Center     Atomic      Atomic             Coordinates (Angstroms)
 Number     Number       Type             X           Y           Z
 ---------------------------------------------------------------------
      1          6           0       -0.774819    0.004009    0.001721
      2          6           0        0.779965   -0.018390   -0.008711
      3          1           0        1.136821   -0.606167    0.856214
      4          1           0       -1.279534   -0.977129   -0.207088
      5          1           0       -1.102734    0.367101    0.984487
      6          1           0       -1.088694    0.754269   -0.734232
      7          1           0        1.063179   -0.506950   -0.904414
      8          1           0        1.240085    1.055165    0.046974
 ---------------------------------------------------------------------

 SCF Done:  E(RB3LYP) =  -79.8226961304     A.U. after   10 cycles

 The electronic state is 1-A.
 Alpha  occ. eigenvalues --  -10.17821 -10.17589  -0.74311  -0.60647  -0.43323
 Alpha  occ. eigenvalues --   -0.42640  -0.35569  -0.34053  -0.33619
 Alpha virt. eigenvalues --    0.09913   0.13751   0.15993   0.17017   0.18585
 Alpha virt. eigenvalues --    0.19466   0.22951   0.51692   0.54856   0.55186
 Alpha virt. eigenvalues --    0.61187   0.65579   0.66440   0.85097   0.87930

 Mulliken charges:
               1
     1  C   -0.433136
     2  C   -0.426418
     3  H    0.143533
     4  H    0.141118
     5  H    0.144089
     6  H    0.145311
     7  H    0.156459
     8  H    0.129045
 Sum of Mulliken charges =  -0.00000

 Dipole moment (field-independent basis, Debye):
    X=             -0.0145    Y=             -0.0267    Z=             -0.0241  Tot=              0.0387
 Quadrupole moment (field-independent basis, Debye-Ang):
   XX=            -15.5460   YY=            -14.5979   ZZ=            -14.7827
   XY=              0.1782   XZ=              0.0409   YZ=              0.0324

 Normal termination of Gaussian 16 at Fri Sep 22 16:59:54 2023.
