 Gaussian 16, Revision A.03,
 Gaussian 16:  ES64L-G16RevA.03 25-Dec-2016

 ----------------
 # b3lyp/6-31g(d)
 ----------------

 --------------------
 tmpdir/M3_ref_68.gjf
 --------------------
 Symbolic Z-matrix:
 Charge = -1 Multiplicity = 1

                         Standard orientation:
 ---------------------------------------------------------------------
 Center     Atomic      Atomic             Coordinates (Angstroms)
 Number     Number       Type             X           Y           Z
 ---------------------------------------------------------------------
      1          7           0       -2.800751   -0.233355    0.689129
      2          6           0       -1.990810    0.172433   -0.497201
      3          6           0       -0.497194    0.082279   -0.273817
      4          6           0        0.134578   -1.166953   -0.199606
      5          6           0        0.270037    1.240604   -0.109387
      6          6           0        1.505886   -1.253796    0.031624
      7          1           0       -0.455710   -2.072407   -0.318988
      8          6           0        1.645057    1.156370    0.121086
      9          1           0       -0.209576    2.215365   -0.166380
     10          6           0        2.264836   -0.090950    0.192109
     11          1           0        1.984570   -2.227984    0.084322
     12          1           0        2.228884    2.064487    0.244475
     13          1           0        3.334544   -0.159210    0.370535
     14          1           0       -2.685354    0.301532    1.461479
     15          1           0       -2.313234   -0.515460   -1.281900
     16          1           0       -2.273205    1.187242   -0.806291
 ---------------------------------------------------------------------

 SCF Done:  E(RB3LYP) =  -326.228642725     A.U. after   21 cycles

 The electronic state is 1-A.
 Alpha  occ. eigenvalues --  -13.99514 -10.03674 -10.03304 -10.03161 -10.02193
 Alpha  occ. eigenvalues --  -10.01999 -10.01603  -9.99442  -0.69028  -0.60608
 Alpha  occ. eigenvalues --   -0.58407  -0.54852  -0.45087  -0.44331  -0.40092
 Alpha  occ. eigenvalues --   -0.34809  -0.29800  -0.28920  -0.26459  -0.24019
 Alpha  occ. eigenvalues --   -0.20868  -0.20527  -0.17823  -0.17275  -0.15935
 Alpha  occ. eigenvalues --   -0.09287  -0.07710   0.02576   0.08183
 Alpha virt. eigenvalues --    0.15836   0.16740   0.23205   0.27574   0.29168
 Alpha virt. eigenvalues --    0.30219   0.31670   0.32931   0.34683   0.35552
 Alpha virt. eigenvalues --    0.37377   0.42243   0.45423   0.47838   0.48504

 Mulliken charges:
               1
     1  N   -0.843174
     2  C   -0.165298
     3  C    0.188827
     4  C   -0.164267
     5  C   -0.202709
     6  C   -0.143124
     7  H    0.094849
     8  C   -0.130034
     9  H    0.072895
    10  C   -0.151675
    11  H    0.064533
    12  H    0.062754
    13  H    0.057763
    14  H    0.184416
    15  H    0.057545
    16  H    0.016700
 Sum of Mulliken charges =  -1.00000

 Dipole moment (field-independent basis, Debye):
    X=              7.5638    Y=              1.1848    Z=             -1.4700  Tot=              7.7958
 Quadrupole moment (field-independent basis, Debye-Ang):
   XX=            -82.9882   YY=            -51.2869   ZZ=            -54.0485
   XY=             -4.0358   XZ=              5.2639   YZ=              2.2925

 Normal termination of Gaussian 16 at Fri Sep 22 17:00:23 2023.
