 Gaussian 16, Revision A.03,
 Gaussian 16:  ES64L-G16RevA.03 25-Dec-2016

 ----------------
 # b3lyp/6-31g(d)
 ----------------

 --------------------
 tmpdir/M3_ref_76.gjf
 --------------------
 Symbolic Z-matrix:
 Charge =  0 Multiplicity = 1

                         Standard orientation:
 ---------------------------------------------------------------------
 Center     Atomic      Atomic             Coordinates (Angstroms)
 Number     Number       Type             X           Y           Z
 ---------------------------------------------------------------------
      1          6           0        0.003616    0.000174   -0.005625
      2          1           0        0.500376    0.977502   -0.119897
      3          1           0       -1.093834    0.032630   -0.382270
      4          1           0       -0.037948   -0.251818    1.057314
      5          1           0        0.609707   -0.759358   -0.521401
 ---------------------------------------------------------------------

 SCF Done:  E(RB3LYP) =  -40.5151666294     A.U. after    9 cycles

 The electronic state is 1-A.
 Alpha  occ. eigenvalues --  -10.17549  -0.68475  -0.39180  -0.38684  -0.37801
 Alpha virt. eigenvalues --    0.11098   0.16164   0.17287   0.17616   0.53149
 Alpha virt. eigenvalues --    0.53369   0.55460   0.85510   0.88900   0.89460
 Alpha virt. eigenvalues --    0.93048   1.09281   1.65974   1.66242   2.16682

 Mulliken charges:
               1
     1  C   -0.618551
     2  H    0.157731
     3  H    0.143356
     4  H    0.158882
     5  H    0.158582
 Sum of Mulliken charges =   0.00000

 Dipole moment (field-independent basis, Debye):
    X=              0.0471    Y=             -0.0068    Z=              0.0517  Tot=              0.0703
 Quadrupole moment (field-independent basis, Debye-Ang):
   XX=             -8.1549   YY=             -8.3418   ZZ=             -8.4215
   XY=              0.0010   XZ=             -0.0509   YZ=              0.0029

 Normal termination of Gaussian 16 at Fri Sep 22 17:00:03 2023.
