 Gaussian 16, Revision A.03,
 Gaussian 16:  ES64L-G16RevA.03 25-Dec-2016

 ----------------
 # b3lyp/6-31g(d)
 ----------------

 --------------------
 tmpdir/M3_ref_30.gjf
 --------------------
 Symbolic Z-matrix:
 Charge =  0 Multiplicity = 1

                         Standard orientation:
 ---------------------------------------------------------------------
 Center     Atomic      Atomic             Coordinates (Angstroms)
 Number     Number       Type             X           Y           Z
 ---------------------------------------------------------------------
      1          6           0        1.148775    0.034468    0.003731
      2          6           0       -0.295826   -0.171343   -0.029599
      3          1           0        1.330597    1.120070   -0.231529
      4          1           0        1.693039   -0.602889   -0.704593
      5          1           0        1.538388   -0.202270    1.003639
      6          7           0       -1.382817    0.072334    0.012527
 ---------------------------------------------------------------------

 SCF Done:  E(RB3LYP) =  -132.742527540     A.U. after   13 cycles

 The electronic state is 1-A.
 Alpha  occ. eigenvalues --  -14.32325 -10.24087 -10.21990  -0.92085  -0.77033
 Alpha  occ. eigenvalues --   -0.50922  -0.46295  -0.45956  -0.35781  -0.33580
 Alpha  occ. eigenvalues --   -0.33313
 Alpha virt. eigenvalues --    0.02523   0.05083   0.09264   0.14263   0.16234
 Alpha virt. eigenvalues --    0.23056   0.30049   0.52458   0.53326   0.56926
 Alpha virt. eigenvalues --    0.61982   0.62315   0.68983   0.76077   0.80545

 Mulliken charges:
               1
     1  C   -0.524442
     2  C    0.292514
     3  H    0.208857
     4  H    0.197544
     5  H    0.204319
     6  N   -0.378793
 Sum of Mulliken charges =  -0.00000

 Dipole moment (field-independent basis, Debye):
    X=              3.6146    Y=             -0.1096    Z=             -0.0014  Tot=              3.6163
 Quadrupole moment (field-independent basis, Debye-Ang):
   XX=            -20.3184   YY=            -17.0309   ZZ=            -17.2154
   XY=              0.2326   XZ=              0.0801   YZ=             -0.0588

 Normal termination of Gaussian 16 at Fri Sep 22 16:59:46 2023.
