 Gaussian 16, Revision A.03,
 Gaussian 16:  ES64L-G16RevA.03 25-Dec-2016

 ----------------
 # b3lyp/6-31g(d)
 ----------------

 --------------------
 tmpdir/M3_ref_11.gjf
 --------------------
 Symbolic Z-matrix:
 Charge =  0 Multiplicity = 1

                         Standard orientation:
 ---------------------------------------------------------------------
 Center     Atomic      Atomic             Coordinates (Angstroms)
 Number     Number       Type             X           Y           Z
 ---------------------------------------------------------------------
      1          6           0        0.001023   -0.009107   -0.016464
      2          1           0       -0.034232    1.060800   -0.261426
      3          1           0        1.000695   -0.438895   -0.329954
      4          1           0       -0.933954   -0.506693   -0.388703
      5          1           0       -0.038647   -0.060571    1.078864
 ---------------------------------------------------------------------

 SCF Done:  E(RB3LYP) =  -40.5146136858     A.U. after    9 cycles

 The electronic state is 1-A.
 Alpha  occ. eigenvalues --  -10.17493  -0.68543  -0.39595  -0.38418  -0.37627
 Alpha virt. eigenvalues --    0.11098   0.16484   0.17186   0.17399   0.52982
 Alpha virt. eigenvalues --    0.53394   0.55707   0.86300   0.88578   0.88890
 Alpha virt. eigenvalues --    0.93624   1.09685   1.65795   1.66452   2.16265

 Mulliken charges:
               1
     1  C   -0.621762
     2  H    0.157713
     3  H    0.152977
     4  H    0.154979
     5  H    0.156093
 Sum of Mulliken charges =   0.00000

 Dipole moment (field-independent basis, Debye):
    X=             -0.0126    Y=              0.0539    Z=              0.0818  Tot=              0.0987
 Quadrupole moment (field-independent basis, Debye-Ang):
   XX=             -8.0058   YY=             -8.3847   ZZ=             -8.5250
   XY=              0.0060   XZ=              0.0048   YZ=             -0.0058

 Normal termination of Gaussian 16 at Fri Sep 22 16:59:41 2023.
