 Gaussian 16, Revision A.03,
 Gaussian 16:  ES64L-G16RevA.03 25-Dec-2016

 ----------------
 # b3lyp/6-31g(d)
 ----------------

 --------------------
 tmpdir/M3_ref_48.gjf
 --------------------
 Symbolic Z-matrix:
 Charge =  0 Multiplicity = 1

                         Standard orientation:
 ---------------------------------------------------------------------
 Center     Atomic      Atomic             Coordinates (Angstroms)
 Number     Number       Type             X           Y           Z
 ---------------------------------------------------------------------
      1          6           0        0.671111    0.016977   -0.005809
      2          8           0       -0.745706   -0.127042   -0.005277
      3          1           0        1.084027    0.187152    1.027429
      4          1           0        0.943603    0.874231   -0.647515
      5          1           0        1.141616   -0.857882   -0.372460
      6          1           0       -1.230265    0.710969    0.069615
 ---------------------------------------------------------------------

 SCF Done:  E(RB3LYP) =  -115.710396502     A.U. after   11 cycles

 The electronic state is 1-A.
 Alpha  occ. eigenvalues --  -19.13544 -10.22555  -1.00245  -0.68179  -0.49924
 Alpha  occ. eigenvalues --   -0.43219  -0.42694  -0.31855  -0.26056
 Alpha virt. eigenvalues --    0.07225   0.12815   0.17149   0.17855   0.20379
 Alpha virt. eigenvalues --    0.53341   0.55694   0.58034   0.79285   0.84055
 Alpha virt. eigenvalues --    0.87693   0.90258   0.95947   0.97532   1.02188

 Mulliken charges:
               1
     1  C   -0.190935
     2  O   -0.622310
     3  H    0.123096
     4  H    0.126975
     5  H    0.168523
     6  H    0.394651
 Sum of Mulliken charges =   0.00000

 Dipole moment (field-independent basis, Debye):
    X=              0.6401    Y=              1.4886    Z=              0.0436  Tot=              1.6209
 Quadrupole moment (field-independent basis, Debye-Ang):
   XX=            -12.0550   YY=            -12.2017   ZZ=            -13.5769
   XY=             -2.4144   XZ=             -0.2752   YZ=              0.1116

 Normal termination of Gaussian 16 at Fri Sep 22 16:59:51 2023.
