 Gaussian 16, Revision A.03,
 Gaussian 16:  ES64L-G16RevA.03 25-Dec-2016

 ----------------
 # b3lyp/6-31g(d)
 ----------------

 --------------------
 tmpdir/M3_ref_33.gjf
 --------------------
 Symbolic Z-matrix:
 Charge =  0 Multiplicity = 1

                         Standard orientation:
 ---------------------------------------------------------------------
 Center     Atomic      Atomic             Coordinates (Angstroms)
 Number     Number       Type             X           Y           Z
 ---------------------------------------------------------------------
      1          6           0        1.395299   -0.536602    0.000650
      2          6           0        0.492564    0.729223   -0.022257
      3          6           0       -0.889445    0.267048    0.060133
      4          1           0        1.079616   -1.368840   -0.683500
      5          1           0        1.439741   -0.915408    1.029915
      6          1           0        2.415764   -0.224710   -0.258962
      7          1           0        0.771156    1.407922    0.793785
      8          1           0        0.647716    1.282812   -0.958807
      9          7           0       -1.763500   -0.419970   -0.021941
 ---------------------------------------------------------------------

 SCF Done:  E(RB3LYP) =  -172.054586321     A.U. after   13 cycles

 The electronic state is 1-A.
 Alpha  occ. eigenvalues --  -14.31943 -10.24017 -10.21393 -10.20696  -0.91858
 Alpha  occ. eigenvalues --   -0.80097  -0.66655  -0.51831  -0.48222  -0.42413
 Alpha  occ. eigenvalues --   -0.39755  -0.38624  -0.35156  -0.33140  -0.32694
 Alpha virt. eigenvalues --    0.03556   0.05129   0.08239   0.12450   0.13574
 Alpha virt. eigenvalues --    0.16011   0.18184   0.21183   0.24803   0.33262
 Alpha virt. eigenvalues --    0.50783   0.53084   0.54446   0.57210   0.58678

 Mulliken charges:
               1
     1  C   -0.438480
     2  C   -0.346887
     3  C    0.296688
     4  H    0.177332
     5  H    0.170210
     6  H    0.155327
     7  H    0.186219
     8  H    0.192600
     9  N   -0.393008
 Sum of Mulliken charges =  -0.00000

 Dipole moment (field-independent basis, Debye):
    X=              3.3644    Y=              1.4995    Z=              0.0359  Tot=              3.6836
 Quadrupole moment (field-independent basis, Debye-Ang):
   XX=            -29.4421   YY=            -23.4956   ZZ=            -23.4845
   XY=             -1.5740   XZ=             -0.0560   YZ=              0.0707

 Normal termination of Gaussian 16 at Fri Sep 22 16:59:49 2023.
