 Gaussian 16, Revision A.03,
 Gaussian 16:  ES64L-G16RevA.03 25-Dec-2016

 ----------------
 # b3lyp/6-31g(d)
 ----------------

 --------------------
 tmpdir/M3_ref_51.gjf
 --------------------
 Symbolic Z-matrix:
 Charge =  0 Multiplicity = 1

                         Standard orientation:
 ---------------------------------------------------------------------
 Center     Atomic      Atomic             Coordinates (Angstroms)
 Number     Number       Type             X           Y           Z
 ---------------------------------------------------------------------
      1          6           0        1.238763   -0.244353   -0.007873
      2          6           0       -0.087837    0.566027    0.029291
      3          8           0       -1.233951   -0.264946   -0.125697
      4          1           0        2.182148    0.363338   -0.049150
      5          1           0        1.270630   -0.884866    0.883149
      6          1           0        1.181355   -0.911968   -0.876222
      7          1           0       -0.158181    1.096305    0.996130
      8          1           0       -0.023956    1.274955   -0.754626
      9          1           0       -1.485941   -0.748240    0.677793
 ---------------------------------------------------------------------

 SCF Done:  E(RB3LYP) =  -155.028041502     A.U. after   12 cycles

 The electronic state is 1-A.
 Alpha  occ. eigenvalues --  -19.13776 -10.22825 -10.17585  -1.00615  -0.73809
 Alpha  occ. eigenvalues --   -0.61937  -0.50155  -0.45530  -0.41510  -0.37132
 Alpha  occ. eigenvalues --   -0.36511  -0.31319  -0.26156
 Alpha virt. eigenvalues --    0.07066   0.12050   0.15133   0.15967   0.17271
 Alpha virt. eigenvalues --    0.19147   0.22656   0.23354   0.53165   0.55309
 Alpha virt. eigenvalues --    0.55985   0.59127   0.64550   0.66971   0.80411

 Mulliken charges:
               1
     1  C   -0.453146
     2  C   -0.022181
     3  O   -0.621545
     4  H    0.135805
     5  H    0.133948
     6  H    0.158967
     7  H    0.118144
     8  H    0.157019
     9  H    0.392988
 Sum of Mulliken charges =  -0.00000

 Dipole moment (field-independent basis, Debye):
    X=              0.6456    Y=              0.0046    Z=              1.3787  Tot=              1.5224
 Quadrupole moment (field-independent basis, Debye-Ang):
   XX=            -20.8458   YY=            -18.9872   ZZ=            -18.7983
   XY=              1.2345   XZ=             -2.5650   YZ=             -1.3905

 Normal termination of Gaussian 16 at Fri Sep 22 17:00:03 2023.
