 Gaussian 16, Revision A.03,
 Gaussian 16:  ES64L-G16RevA.03 25-Dec-2016

 ----------------
 # b3lyp/6-31g(d)
 ----------------

 --------------------
 tmpdir/M3_ref_57.gjf
 --------------------
 Symbolic Z-matrix:
 Charge =  0 Multiplicity = 1

                         Standard orientation:
 ---------------------------------------------------------------------
 Center     Atomic      Atomic             Coordinates (Angstroms)
 Number     Number       Type             X           Y           Z
 ---------------------------------------------------------------------
      1          6           0        1.215194    0.066951    0.003900
      2          6           0       -0.215636   -0.219399   -0.028798
      3          6           0       -1.408893   -0.020662    0.013639
      4          1           0        1.336500    1.158901   -0.240780
      5          1           0        1.795083   -0.545239   -0.698327
      6          1           0        1.616092   -0.138916    1.006177
      7          1           0       -2.291666    0.563910    0.000486
 ---------------------------------------------------------------------

 SCF Done:  E(RB3LYP) =  -116.637899903     A.U. after   12 cycles

 The electronic state is 1-A.
 Alpha  occ. eigenvalues --  -10.21101 -10.18470 -10.16989  -0.77578  -0.69180
 Alpha  occ. eigenvalues --   -0.51936  -0.44441  -0.43077  -0.42751  -0.25909
 Alpha  occ. eigenvalues --   -0.25748
 Alpha virt. eigenvalues --    0.01584   0.06201   0.11256   0.14678   0.17696
 Alpha virt. eigenvalues --    0.18495   0.25575   0.42727   0.45426   0.52662
 Alpha virt. eigenvalues --    0.54254   0.62003   0.63052   0.64935   0.71139

 Mulliken charges:
               1
     1  C   -0.540793
     2  C    0.155601
     3  C   -0.343127
     4  H    0.184532
     5  H    0.175519
     6  H    0.181722
     7  H    0.186546
 Sum of Mulliken charges =   0.00000

 Dipole moment (field-independent basis, Debye):
    X=              0.8732    Y=              0.7888    Z=              0.0217  Tot=              1.1769
 Quadrupole moment (field-independent basis, Debye-Ang):
   XX=            -15.1316   YY=            -18.4939   ZZ=            -19.1466
   XY=             -1.6981   XZ=              0.0518   YZ=             -0.0597

 Normal termination of Gaussian 16 at Fri Sep 22 16:59:58 2023.
