 Gaussian 16, Revision A.03,
 Gaussian 16:  ES64L-G16RevA.03 25-Dec-2016

 ----------------
 # b3lyp/6-31g(d)
 ----------------

 --------------------
 tmpdir/M3_ref_50.gjf
 --------------------
 Symbolic Z-matrix:
 Charge =  0 Multiplicity = 1

                         Standard orientation:
 ---------------------------------------------------------------------
 Center     Atomic      Atomic             Coordinates (Angstroms)
 Number     Number       Type             X           Y           Z
 ---------------------------------------------------------------------
      1          6           0        1.376084   -0.547386    0.008700
      2          6           0        0.497759    0.734795   -0.041515
      3          6           0       -0.889459    0.285297    0.073380
      4          1           0        1.067299   -1.379055   -0.679738
      5          1           0        2.409465   -0.260659   -0.226041
      6          1           0        1.372520   -0.896836    1.048367
      7          1           0        0.641044    1.230644   -1.018514
      8          1           0        0.765643    1.490379    0.809756
      9          7           0       -1.737468   -0.431530   -0.025317
 ---------------------------------------------------------------------

 SCF Done:  E(RB3LYP) =  -172.049033008     A.U. after   13 cycles

 The electronic state is 1-A.
 Alpha  occ. eigenvalues --  -14.31975 -10.24716 -10.21347 -10.20708  -0.91928
 Alpha  occ. eigenvalues --   -0.79741  -0.66421  -0.51023  -0.47918  -0.42448
 Alpha  occ. eigenvalues --   -0.39513  -0.38596  -0.35206  -0.33037  -0.32614
 Alpha virt. eigenvalues --    0.02908   0.05041   0.07537   0.11805   0.13682
 Alpha virt. eigenvalues --    0.15787   0.17747   0.21237   0.25089   0.33866
 Alpha virt. eigenvalues --    0.51276   0.53051   0.54172   0.56883   0.58561

 Mulliken charges:
               1
     1  C   -0.433463
     2  C   -0.346261
     3  C    0.291387
     4  H    0.178343
     5  H    0.155475
     6  H    0.170698
     7  H    0.193326
     8  H    0.171450
     9  N   -0.380956
 Sum of Mulliken charges =  -0.00000

 Dipole moment (field-independent basis, Debye):
    X=              3.2825    Y=              1.4732    Z=             -0.0040  Tot=              3.5980
 Quadrupole moment (field-independent basis, Debye-Ang):
   XX=            -29.3956   YY=            -23.6583   ZZ=            -23.4164
   XY=             -1.6869   XZ=             -0.1526   YZ=              0.1383

 Normal termination of Gaussian 16 at Fri Sep 22 16:59:59 2023.
