 Gaussian 16, Revision A.03,
 Gaussian 16:  ES64L-G16RevA.03 25-Dec-2016

 -------------------------
 #m062x/6-31g(d) scf=tight
 -------------------------

 ----------------------
 tmpdir/M1_conf_0_1.gjf
 ----------------------
 Symbolic Z-matrix:
 Charge =  0 Multiplicity = 1

                         Standard orientation:
 ---------------------------------------------------------------------
 Center     Atomic      Atomic             Coordinates (Angstroms)
 Number     Number       Type             X           Y           Z
 ---------------------------------------------------------------------
      1          6           0       -0.698635   -0.020908   -0.070203
      2          6           0        0.695319   -0.011463   -0.041943
      3          1           0       -1.271488   -0.902607    0.202225
      4          1           0        1.333267   -0.864328    0.157462
      5          1           0       -1.093446    0.977791    0.187155
      6          1           0        1.051562    0.983364    0.126036
 ---------------------------------------------------------------------

 SCF Done:  E(RM062X) =  -78.5152836756     A.U. after   13 cycles

 The electronic state is 1-A.
 Alpha  occ. eigenvalues --  -10.55139 -10.55044  -0.84318  -0.65563  -0.53860
 Alpha  occ. eigenvalues --   -0.45732  -0.41885  -0.31442
 Alpha virt. eigenvalues --    0.03533   0.15706   0.19244   0.21515   0.29597
 Alpha virt. eigenvalues --    0.34853   0.53838   0.61208   0.61866   0.69094
 Alpha virt. eigenvalues --    0.71976   0.74542   0.90467   0.92193   0.98519

 Mulliken charges:
               1
     1  C   -0.334857
     2  C   -0.329964
     3  H    0.169332
     4  H    0.173813
     5  H    0.158358
     6  H    0.163318
 Sum of Mulliken charges =  -0.00000

 Dipole moment (field-independent basis, Debye):
    X=              0.1041    Y=              0.0151    Z=              0.6355  Tot=              0.6442
 Quadrupole moment (field-independent basis, Debye-Ang):
   XX=            -12.5636   YY=            -12.0457   ZZ=            -15.1549
   XY=             -0.0707   XZ=             -0.1228   YZ=              0.0153

 Normal termination of Gaussian 16 at Wed Jun  5 22:40:06 2019.
