 Gaussian 16, Revision A.03,
 Gaussian 16:  ES64L-G16RevA.03 25-Dec-2016

 -------------------------
 #m062x/6-31g(d) scf=tight
 -------------------------

 ----------------------
 tmpdir/M1_conf_0_4.gjf
 ----------------------
 Symbolic Z-matrix:
 Charge =  0 Multiplicity = 1

                         Standard orientation:
 ---------------------------------------------------------------------
 Center     Atomic      Atomic             Coordinates (Angstroms)
 Number     Number       Type             X           Y           Z
 ---------------------------------------------------------------------
      1          6           0       -0.004413   -0.007503   -0.008391
      2          1           0       -0.778559   -0.777788    0.006458
      3          1           0       -0.476659    0.928965   -0.328904
      4          1           0        0.877951   -0.253244   -0.637868
      5          1           0        0.403745    0.147082    1.010659
 ---------------------------------------------------------------------

 SCF Done:  E(RM062X) =  -40.4804732689     A.U. after   10 cycles

 The electronic state is 1-A.
 Alpha  occ. eigenvalues --  -10.52758  -0.77830  -0.46235  -0.44814  -0.44016
 Alpha virt. eigenvalues --    0.16477   0.21595   0.22196   0.22770   0.58071
 Alpha virt. eigenvalues --    0.58386   0.59475   0.94694   0.96103   0.97433
 Alpha virt. eigenvalues --    1.01427   1.13344   1.71688   1.71878   2.26657

 Mulliken charges:
               1
     1  C   -0.670858
     2  H    0.171869
     3  H    0.168315
     4  H    0.166937
     5  H    0.163737
 Sum of Mulliken charges =  -0.00000

 Dipole moment (field-independent basis, Debye):
    X=             -0.0012    Y=              0.0242    Z=              0.0273  Tot=              0.0365
 Quadrupole moment (field-independent basis, Debye-Ang):
   XX=             -8.0777   YY=             -8.3775   ZZ=             -8.4661
   XY=              0.0177   XZ=             -0.0048   YZ=             -0.0082

 Normal termination of Gaussian 16 at Wed Jun  5 22:40:05 2019.
