 Gaussian 16, Revision A.03,
 Gaussian 16:  ES64L-G16RevA.03 25-Dec-2016

 -------------------------
 #m062x/6-31g(d) scf=tight
 -------------------------

 ----------------------
 tmpdir/M1_conf_0_5.gjf
 ----------------------
 Symbolic Z-matrix:
 Charge =  0 Multiplicity = 1

                         Standard orientation:
 ---------------------------------------------------------------------
 Center     Atomic      Atomic             Coordinates (Angstroms)
 Number     Number       Type             X           Y           Z
 ---------------------------------------------------------------------
      1          6           0       -0.694248   -0.006728    0.019047
      2          1           0       -1.328400   -0.886063    0.023925
      3          6           0        0.693745   -0.019973   -0.047452
      4          1           0        1.311111   -0.903391    0.069709
      5          1           0       -1.015742    0.954009   -0.067101
      6          1           0        1.036046    0.995651    0.143896
 ---------------------------------------------------------------------

 SCF Done:  E(RM062X) =  -78.5171741402     A.U. after   12 cycles

 The electronic state is 1-A.
 Alpha  occ. eigenvalues --  -10.54768 -10.54257  -0.84751  -0.65751  -0.54915
 Alpha  occ. eigenvalues --   -0.45119  -0.42813  -0.31460
 Alpha virt. eigenvalues --    0.04645   0.16026   0.20078   0.21733   0.29474
 Alpha virt. eigenvalues --    0.34369   0.53382   0.61390   0.62850   0.69375
 Alpha virt. eigenvalues --    0.71927   0.73469   0.91678   0.94167   0.98392

 Mulliken charges:
               1
     1  C   -0.329175
     2  H    0.171531
     3  C   -0.338099
     4  H    0.170368
     5  H    0.167307
     6  H    0.158069
 Sum of Mulliken charges =  -0.00000

 Dipole moment (field-independent basis, Debye):
    X=             -0.0686    Y=              0.0219    Z=              0.1649  Tot=              0.1800
 Quadrupole moment (field-independent basis, Debye-Ang):
   XX=            -12.4328   YY=            -11.8188   ZZ=            -15.2215
   XY=             -0.0391   XZ=              0.2754   YZ=              0.0036

 Normal termination of Gaussian 16 at Wed Jun  5 22:40:06 2019.
