 Gaussian 16, Revision A.03,
 Gaussian 16:  ES64L-G16RevA.03 25-Dec-2016

 -------------------------
 #m062x/6-31g(d) scf=tight
 -------------------------

 ----------------------
 tmpdir/M1_conf_0_2.gjf
 ----------------------
 Symbolic Z-matrix:
 Charge =  0 Multiplicity = 1

                         Standard orientation:
 ---------------------------------------------------------------------
 Center     Atomic      Atomic             Coordinates (Angstroms)
 Number     Number       Type             X           Y           Z
 ---------------------------------------------------------------------
      1          6           0       -0.524981   -0.007569   -0.000204
      2          8           0        0.686919    0.002702    0.000053
      3          1           0       -1.178894    0.887612    0.000388
      4          1           0       -1.166575   -0.863818    0.000411
 ---------------------------------------------------------------------

 SCF Done:  E(RM062X) =  -114.442291468     A.U. after   13 cycles

 The electronic state is 1-A.
 Alpha  occ. eigenvalues --  -19.66490 -10.64687  -1.17894  -0.73781  -0.56576
 Alpha  occ. eigenvalues --   -0.53429  -0.46606  -0.34069
 Alpha virt. eigenvalues --    0.00929   0.15758   0.23936   0.26181   0.56706
 Alpha virt. eigenvalues --    0.64779   0.69617   0.77625   0.88175   0.91083
 Alpha virt. eigenvalues --    0.98159   1.04365   1.12725   1.42841   1.56239

 Mulliken charges:
               1
     1  C    0.076854
     2  O   -0.348876
     3  H    0.128797
     4  H    0.143226
 Sum of Mulliken charges =  -0.00000

 Dipole moment (field-independent basis, Debye):
    X=             -2.3424    Y=             -0.0672    Z=             -0.0000  Tot=              2.3434
 Quadrupole moment (field-independent basis, Debye-Ang):
   XX=            -11.6390   YY=            -11.7251   ZZ=            -11.4366
   XY=              0.0655   XZ=             -0.0004   YZ=              0.0000

 Normal termination of Gaussian 16 at Wed Jun  5 22:40:05 2019.
