 Gaussian 16, Revision A.03,
 Gaussian 16:  ES64L-G16RevA.03 25-Dec-2016

 -------------------------
 #m062x/6-31g(d) scf=tight
 -------------------------

 ----------------------
 tmpdir/M1_conf_0_6.gjf
 ----------------------
 Symbolic Z-matrix:
 Charge =  0 Multiplicity = 1

                         Standard orientation:
 ---------------------------------------------------------------------
 Center     Atomic      Atomic             Coordinates (Angstroms)
 Number     Number       Type             X           Y           Z
 ---------------------------------------------------------------------
      1          6           0        0.695907   -0.006794    0.020085
      2          1           0        1.331376   -0.885966    0.023237
      3          6           0       -0.699329   -0.019821   -0.067799
      4          1           0       -1.302311   -0.900339    0.131770
      5          1           0        1.022798    0.953785   -0.044927
      6          1           0       -1.031330    0.992212    0.176203
 ---------------------------------------------------------------------

 SCF Done:  E(RM062X) =  -78.5136597140     A.U. after   12 cycles

 The electronic state is 1-A.
 Alpha  occ. eigenvalues --  -10.54852 -10.54533  -0.84646  -0.65813  -0.54781
 Alpha  occ. eigenvalues --   -0.44963  -0.42690  -0.31452
 Alpha virt. eigenvalues --    0.04090   0.16024   0.20028   0.21739   0.29245
 Alpha virt. eigenvalues --    0.34098   0.53552   0.61470   0.62807   0.69224
 Alpha virt. eigenvalues --    0.71498   0.74349   0.89400   0.93929   0.98287

 Mulliken charges:
               1
     1  C   -0.330912
     2  H    0.172449
     3  C   -0.337679
     4  H    0.169591
     5  H    0.169492
     6  H    0.157058
 Sum of Mulliken charges =   0.00000

 Dipole moment (field-independent basis, Debye):
    X=              0.1371    Y=              0.0199    Z=              0.2791  Tot=              0.3116
 Quadrupole moment (field-independent basis, Debye-Ang):
   XX=            -12.4992   YY=            -11.8661   ZZ=            -15.2095
   XY=              0.0451   XZ=             -0.3681   YZ=              0.0082

 Normal termination of Gaussian 16 at Wed Jun  5 22:40:08 2019.
