 Gaussian 16, Revision A.03,
 Gaussian 16:  ES64L-G16RevA.03 25-Dec-2016

 -------------------------
 #m062x/6-31g(d) scf=tight
 -------------------------

 -------------------
 tmpdir/M1_ref_1.gjf
 -------------------
 Symbolic Z-matrix:
 Charge =  0 Multiplicity = 1

                         Standard orientation:
 ---------------------------------------------------------------------
 Center     Atomic      Atomic             Coordinates (Angstroms)
 Number     Number       Type             X           Y           Z
 ---------------------------------------------------------------------
      1          6           0       -0.665709   -0.021172    0.000019
      2          6           0        0.669957   -0.011845   -0.000019
      3          1           0       -1.282339   -0.915161    0.000050
      4          1           0        1.334176   -0.867390   -0.000039
      5          1           0       -1.106680    0.979409   -0.000004
      6          1           0        1.029361    1.001247   -0.000008
 ---------------------------------------------------------------------

 SCF Done:  E(RM062X) =  -78.5310812089     A.U. after   12 cycles

 The electronic state is 1-A.
 Alpha  occ. eigenvalues --  -10.54254 -10.54010  -0.85363  -0.65104  -0.54559
 Alpha  occ. eigenvalues --   -0.46514  -0.41551  -0.32382
 Alpha virt. eigenvalues --    0.06265   0.15863   0.19437   0.21336   0.29821
 Alpha virt. eigenvalues --    0.36419   0.52511   0.60576   0.63219   0.69956
 Alpha virt. eigenvalues --    0.71011   0.75793   0.91304   0.95423   0.99042

 Mulliken charges:
               1
     1  C   -0.329649
     2  C   -0.320824
     3  H    0.165795
     4  H    0.170673
     5  H    0.157441
     6  H    0.156564
 Sum of Mulliken charges =   0.00000

 Dipole moment (field-independent basis, Debye):
    X=              0.0095    Y=              0.0223    Z=             -0.0000  Tot=              0.0242
 Quadrupole moment (field-independent basis, Debye-Ang):
   XX=            -12.2945   YY=            -11.8756   ZZ=            -15.1875
   XY=             -0.1181   XZ=             -0.0001   YZ=             -0.0000

 Normal termination of Gaussian 16 at Wed Jun  5 22:40:01 2019.
