 Gaussian 16, Revision A.03,
 Gaussian 16:  ES64L-G16RevA.03 25-Dec-2016

 -------------------------
 #m062x/6-31g(d) scf=tight
 -------------------------

 -------------------
 tmpdir/M1_ref_2.gjf
 -------------------
 Symbolic Z-matrix:
 Charge =  0 Multiplicity = 1

                         Standard orientation:
 ---------------------------------------------------------------------
 Center     Atomic      Atomic             Coordinates (Angstroms)
 Number     Number       Type             X           Y           Z
 ---------------------------------------------------------------------
      1          6           0       -0.523112   -0.006673    0.000056
      2          8           0        0.685151    0.002572   -0.000042
      3          1           0       -1.178234    0.888922   -0.000038
      4          1           0       -1.164303   -0.869460    0.000045
 ---------------------------------------------------------------------

 SCF Done:  E(RM062X) =  -114.442790929     A.U. after   13 cycles

 The electronic state is 1-A.
 Alpha  occ. eigenvalues --  -19.66479 -10.64693  -1.18110  -0.73613  -0.56616
 Alpha  occ. eigenvalues --   -0.53483  -0.46744  -0.34031
 Alpha virt. eigenvalues --    0.01036   0.15697   0.23918   0.26219   0.56671
 Alpha virt. eigenvalues --    0.64924   0.69782   0.77859   0.88062   0.90964
 Alpha virt. eigenvalues --    0.97862   1.04362   1.12752   1.42952   1.56134

 Mulliken charges:
               1
     1  C    0.077340
     2  O   -0.346702
     3  H    0.128279
     4  H    0.141083
 Sum of Mulliken charges =  -0.00000

 Dipole moment (field-independent basis, Debye):
    X=             -2.3236    Y=             -0.0606    Z=              0.0001  Tot=              2.3243
 Quadrupole moment (field-independent basis, Debye-Ang):
   XX=            -11.6593   YY=            -11.7246   ZZ=            -11.4347
   XY=              0.0571   XZ=              0.0001   YZ=              0.0000

 Normal termination of Gaussian 16 at Wed Jun  5 22:40:00 2019.
