 Gaussian 16, Revision A.03,
 Gaussian 16:  ES64L-G16RevA.03 25-Dec-2016

 -------------------------
 #m062x/6-31g(d) scf=tight
 -------------------------

 -------------------
 tmpdir/M1_ref_5.gjf
 -------------------
 Symbolic Z-matrix:
 Charge =  0 Multiplicity = 1

                         Standard orientation:
 ---------------------------------------------------------------------
 Center     Atomic      Atomic             Coordinates (Angstroms)
 Number     Number       Type             X           Y           Z
 ---------------------------------------------------------------------
      1          6           0       -0.672989   -0.015302    0.000062
      2          1           0       -1.318810   -0.886027    0.000123
      3          6           0        0.670843   -0.021237   -0.000063
      4          1           0        1.317077   -0.890441   -0.000126
      5          1           0       -1.018736    0.991328    0.000123
      6          1           0        1.033345    1.004379   -0.000112
 ---------------------------------------------------------------------

 SCF Done:  E(RM062X) =  -78.5278379583     A.U. after   12 cycles

 The electronic state is 1-A.
 Alpha  occ. eigenvalues --  -10.54234 -10.53995  -0.85404  -0.65071  -0.54962
 Alpha  occ. eigenvalues --   -0.45997  -0.41856  -0.32237
 Alpha virt. eigenvalues --    0.06117   0.15634   0.19689   0.21492   0.30016
 Alpha virt. eigenvalues --    0.35880   0.52561   0.60701   0.63323   0.69915
 Alpha virt. eigenvalues --    0.71966   0.75188   0.91804   0.95582   0.98775

 Mulliken charges:
               1
     1  C   -0.324660
     2  H    0.169397
     3  C   -0.328398
     4  H    0.169601
     5  H    0.158724
     6  H    0.155336
 Sum of Mulliken charges =  -0.00000

 Dipole moment (field-independent basis, Debye):
    X=             -0.0034    Y=              0.0239    Z=              0.0000  Tot=              0.0241
 Quadrupole moment (field-independent basis, Debye-Ang):
   XX=            -12.3924   YY=            -11.8062   ZZ=            -15.1951
   XY=             -0.0107   XZ=             -0.0003   YZ=              0.0000

 Normal termination of Gaussian 16 at Wed Jun  5 22:40:01 2019.
