 Gaussian 16, Revision A.03,
 Gaussian 16:  ES64L-G16RevA.03 25-Dec-2016

 -------------------------
 #m062x/6-31g(d) scf=tight
 -------------------------

 -----------------------
 tmpdir/M2_conf_0_46.gjf
 -----------------------
 Symbolic Z-matrix:
 Charge =  0 Multiplicity = 1

                         Standard orientation:
 ---------------------------------------------------------------------
 Center     Atomic      Atomic             Coordinates (Angstroms)
 Number     Number       Type             X           Y           Z
 ---------------------------------------------------------------------
      1          6           0        0.016870    0.670942    0.000000
      2          6           0        0.016870   -0.672858   -0.000000
      3          1           0        0.905720   -1.291778   -0.000000
      4          1           0       -0.988260    1.021162    0.000000
      5          1           0        0.890460    1.312892    0.000000
      6          1           0       -1.010360   -1.030778   -0.000000
 ---------------------------------------------------------------------

 SCF Done:  E(RM062X) =  -78.5275361824     A.U. after   12 cycles

 The electronic state is 1-A'.
 Alpha  occ. eigenvalues --  -10.54210 -10.53938  -0.85422  -0.64958  -0.55100
 Alpha  occ. eigenvalues --   -0.45775  -0.41975  -0.32227
 Alpha virt. eigenvalues --    0.06142   0.15513   0.19696   0.21576   0.29989
 Alpha virt. eigenvalues --    0.35718   0.52494   0.60709   0.63587   0.69941
 Alpha virt. eigenvalues --    0.71926   0.75490   0.91930   0.95604   0.98486

 Mulliken charges:
               1
     1  C   -0.324435
     2  C   -0.329247
     3  H    0.169231
     4  H    0.157873
     5  H    0.169250
     6  H    0.157328
 Sum of Mulliken charges =   0.00000

 Dipole moment (field-independent basis, Debye):
    X=             -0.0193    Y=              0.0134    Z=              0.0000  Tot=              0.0235
 Quadrupole moment (field-independent basis, Debye-Ang):
   XX=            -11.7464   YY=            -12.4729   ZZ=            -15.1981
   XY=              0.0141   XZ=              0.0000   YZ=              0.0000

 Normal termination of Gaussian 16 at Fri Sep 22 17:02:27 2023.
