 Gaussian 16, Revision A.03,
 Gaussian 16:  ES64L-G16RevA.03 25-Dec-2016

 -------------------------
 #m062x/6-31g(d) scf=tight
 -------------------------

 ----------------------
 tmpdir/M2_conf_0_5.gjf
 ----------------------
 Symbolic Z-matrix:
 Charge =  0 Multiplicity = 1

                         Standard orientation:
 ---------------------------------------------------------------------
 Center     Atomic      Atomic             Coordinates (Angstroms)
 Number     Number       Type             X           Y           Z
 ---------------------------------------------------------------------
      1          1           0        0.902745   -1.297957    0.000000
      2          6           0        0.017095   -0.672740    0.000000
      3          6           0        0.017095    0.671059    0.000000
      4          1           0       -0.981196   -1.042018    0.000000
      5          1           0        0.883451    1.321077    0.000000
      6          1           0       -1.010137    1.028979    0.000000
 ---------------------------------------------------------------------

 SCF Done:  E(RM062X) =  -78.5285071088     A.U. after   12 cycles

 The electronic state is 1-A'.
 Alpha  occ. eigenvalues --  -10.54219 -10.53990  -0.85371  -0.65077  -0.54933
 Alpha  occ. eigenvalues --   -0.46019  -0.41884  -0.32230
 Alpha virt. eigenvalues --    0.06120   0.15678   0.19683   0.21496   0.29967
 Alpha virt. eigenvalues --    0.35884   0.52560   0.60707   0.63388   0.69919
 Alpha virt. eigenvalues --    0.71661   0.75345   0.91858   0.95582   0.98823

 Mulliken charges:
               1
     1  H    0.168357
     2  C   -0.326112
     3  C   -0.327193
     4  H    0.159836
     5  H    0.170036
     6  H    0.155075
 Sum of Mulliken charges =   0.00000

 Dipole moment (field-independent basis, Debye):
    X=             -0.0222    Y=             -0.0005    Z=              0.0000  Tot=              0.0222
 Quadrupole moment (field-independent basis, Debye-Ang):
   XX=            -11.7950   YY=            -12.4001   ZZ=            -15.1955
   XY=              0.0566   XZ=              0.0000   YZ=              0.0000

 Normal termination of Gaussian 16 at Fri Sep 22 17:02:08 2023.
