 Gaussian 16, Revision A.03,
 Gaussian 16:  ES64L-G16RevA.03 25-Dec-2016

 -------------------------
 #m062x/6-31g(d) scf=tight
 -------------------------

 -----------------------
 tmpdir/M2_conf_0_60.gjf
 -----------------------
 Symbolic Z-matrix:
 Charge =  0 Multiplicity = 1

                         Standard orientation:
 ---------------------------------------------------------------------
 Center     Atomic      Atomic             Coordinates (Angstroms)
 Number     Number       Type             X           Y           Z
 ---------------------------------------------------------------------
      1          6           0       -0.267611    0.499938   -0.005498
      2          6           0        1.090416   -0.143365    0.000209
      3          1           0        1.740728    0.094718   -0.852879
      4          8           0       -1.098906   -0.344249    0.001644
      5          1           0       -0.428672    1.570955   -0.014722
      6          1           0        0.860760   -1.206606    0.009307
      7          1           0        1.681598    0.155482    0.876881
 ---------------------------------------------------------------------

 SCF Done:  E(RM062X) =  -153.737903522     A.U. after   13 cycles

 The electronic state is 1-A.
 Alpha  occ. eigenvalues --  -19.63797 -10.63555 -10.54176  -1.18644  -0.83204
 Alpha  occ. eigenvalues --   -0.67677  -0.56571  -0.50948  -0.50433  -0.45835
 Alpha  occ. eigenvalues --   -0.42517  -0.32122
 Alpha virt. eigenvalues --    0.03454   0.17006   0.18004   0.20798   0.21072
 Alpha virt. eigenvalues --    0.27635   0.35100   0.57558   0.58749   0.64725
 Alpha virt. eigenvalues --    0.66101   0.73157   0.78080   0.82110   0.91376

 Mulliken charges:
               1
     1  C    0.258918
     2  C   -0.578658
     3  H    0.176849
     4  O   -0.383907
     5  H    0.145499
     6  H    0.207286
     7  H    0.174014
 Sum of Mulliken charges =  -0.00000

 Dipole moment (field-independent basis, Debye):
    X=              1.8522    Y=              1.4897    Z=             -0.0125  Tot=              2.3770
 Quadrupole moment (field-independent basis, Debye-Ang):
   XX=            -20.3846   YY=            -17.2691   ZZ=            -17.7820
   XY=             -1.1181   XZ=             -0.0236   YZ=              0.0489

 Normal termination of Gaussian 16 at Fri Sep 22 17:02:37 2023.
