 Gaussian 16, Revision A.03,
 Gaussian 16:  ES64L-G16RevA.03 25-Dec-2016

 -------------------------
 #m062x/6-31g(d) scf=tight
 -------------------------

 -----------------------
 tmpdir/M2_conf_0_29.gjf
 -----------------------
 Symbolic Z-matrix:
 Charge =  0 Multiplicity = 1

                         Standard orientation:
 ---------------------------------------------------------------------
 Center     Atomic      Atomic             Coordinates (Angstroms)
 Number     Number       Type             X           Y           Z
 ---------------------------------------------------------------------
      1          1           0       -0.672120   -0.865333   -0.093324
      2          6           0       -0.005016   -0.000836   -0.004131
      3          1           0       -0.622064    0.897489   -0.116384
      4          1           0        0.832502   -0.029321   -0.735397
      5          1           0        0.491779    0.002180    0.969890
 ---------------------------------------------------------------------

 SCF Done:  E(RM062X) =  -40.4806192918     A.U. after   10 cycles

 The electronic state is 1-A.
 Alpha  occ. eigenvalues --  -10.52632  -0.77931  -0.46350  -0.44808  -0.44087
 Alpha virt. eigenvalues --    0.16551   0.21774   0.22175   0.22897   0.58071
 Alpha virt. eigenvalues --    0.58120   0.59529   0.95038   0.96169   0.97758
 Alpha virt. eigenvalues --    1.01754   1.13178   1.71838   1.71895   2.26974

 Mulliken charges:
               1
     1  H    0.169636
     2  C   -0.671890
     3  H    0.169254
     4  H    0.165073
     5  H    0.167928
 Sum of Mulliken charges =   0.00000

 Dipole moment (field-independent basis, Debye):
    X=              0.0082    Y=              0.0032    Z=              0.0289  Tot=              0.0302
 Quadrupole moment (field-independent basis, Debye-Ang):
   XX=             -8.0612   YY=             -8.3615   ZZ=             -8.4730
   XY=              0.0024   XZ=              0.0195   YZ=             -0.0006

 Normal termination of Gaussian 16 at Fri Sep 22 17:02:22 2023.
