 Gaussian 16, Revision A.03,
 Gaussian 16:  ES64L-G16RevA.03 25-Dec-2016

 -------------------------
 #m062x/6-31g(d) scf=tight
 -------------------------

 -----------------------
 tmpdir/M2_conf_0_15.gjf
 -----------------------
 Symbolic Z-matrix:
 Charge =  0 Multiplicity = 1

                         Standard orientation:
 ---------------------------------------------------------------------
 Center     Atomic      Atomic             Coordinates (Angstroms)
 Number     Number       Type             X           Y           Z
 ---------------------------------------------------------------------
      1          6           0        0.772035   -0.004376    0.001343
      2          6           0       -0.764341   -0.012971    0.000550
      3          1           0       -1.215569   -0.451038    0.894863
      4          1           0        1.032314    1.056181   -0.053458
      5          1           0        1.197091   -0.549654   -0.848563
      6          1           0        1.195678   -0.458761    0.903787
      7          1           0       -1.190923   -0.546389   -0.853147
      8          1           0       -1.064754    1.053749   -0.054840
 ---------------------------------------------------------------------

 SCF Done:  E(RM062X) =  -79.7638509789     A.U. after   12 cycles

 The electronic state is 1-A.
 Alpha  occ. eigenvalues --  -10.52953 -10.52911  -0.84324  -0.69341  -0.50725
 Alpha  occ. eigenvalues --   -0.49493  -0.41646  -0.39751  -0.39687
 Alpha virt. eigenvalues --    0.14587   0.17934   0.17990   0.20720   0.28169
 Alpha virt. eigenvalues --    0.28731   0.29574   0.56265   0.57665   0.59727
 Alpha virt. eigenvalues --    0.71368   0.73286   0.74856   0.92138   0.92392

 Mulliken charges:
               1
     1  C   -0.483484
     2  C   -0.487795
     3  H    0.163812
     4  H    0.161687
     5  H    0.163491
     6  H    0.163479
     7  H    0.163403
     8  H    0.155408
 Sum of Mulliken charges =  -0.00000

 Dipole moment (field-independent basis, Debye):
    X=             -0.0013    Y=              0.0033    Z=             -0.0014  Tot=              0.0038
 Quadrupole moment (field-independent basis, Debye-Ang):
   XX=            -15.5012   YY=            -14.5717   ZZ=            -14.7744
   XY=             -0.0215   XZ=             -0.0222   YZ=              0.0019

 Normal termination of Gaussian 16 at Fri Sep 22 17:02:02 2023.
