 Gaussian 16, Revision A.03,
 Gaussian 16:  ES64L-G16RevA.03 25-Dec-2016

 -------------------------
 #m062x/6-31g(d) scf=tight
 -------------------------

 -----------------------
 tmpdir/M2_conf_0_42.gjf
 -----------------------
 Symbolic Z-matrix:
 Charge =  0 Multiplicity = 1

                         Standard orientation:
 ---------------------------------------------------------------------
 Center     Atomic      Atomic             Coordinates (Angstroms)
 Number     Number       Type             X           Y           Z
 ---------------------------------------------------------------------
      1          6           0       -1.188776   -0.153584    0.000006
      2          6           0        0.241156    0.398753   -0.000036
      3          8           0        1.251988   -0.263217    0.000001
      4          1           0       -1.850490    0.740353   -0.000048
      5          1           0       -1.323772   -0.788506   -0.879743
      6          1           0       -1.323585   -0.788357    0.879887
      7          1           0        0.167670    1.471236    0.000076
 ---------------------------------------------------------------------

 SCF Done:  E(RM062X) =  -153.745405496     A.U. after   14 cycles

 The electronic state is 1-A.
 Alpha  occ. eigenvalues --  -19.64709 -10.64121 -10.55441  -1.16991  -0.84575
 Alpha  occ. eigenvalues --   -0.67155  -0.55252  -0.51078  -0.50727  -0.46759
 Alpha  occ. eigenvalues --   -0.42911  -0.32429
 Alpha virt. eigenvalues --    0.02271   0.14415   0.17345   0.21868   0.23142
 Alpha virt. eigenvalues --    0.29313   0.30874   0.57235   0.59777   0.61827
 Alpha virt. eigenvalues --    0.65404   0.72769   0.76709   0.84568   0.90676

 Mulliken charges:
               1
     1  C   -0.559457
     2  C    0.242111
     3  O   -0.389201
     4  H    0.162505
     5  H    0.205015
     6  H    0.205019
     7  H    0.134008
 Sum of Mulliken charges =  -0.00000

 Dipole moment (field-independent basis, Debye):
    X=             -2.3389    Y=              0.9757    Z=              0.0000  Tot=              2.5343
 Quadrupole moment (field-independent basis, Debye-Ang):
   XX=            -21.2065   YY=            -17.5118   ZZ=            -17.6224
   XY=              0.8429   XZ=              0.0001   YZ=             -0.0001

 Normal termination of Gaussian 16 at Fri Sep 22 17:02:23 2023.
