 Gaussian 16, Revision A.03,
 Gaussian 16:  ES64L-G16RevA.03 25-Dec-2016

 -------------------------
 #m062x/6-31g(d) scf=tight
 -------------------------

 -----------------------
 tmpdir/M2_conf_0_17.gjf
 -----------------------
 Symbolic Z-matrix:
 Charge =  0 Multiplicity = 1

                         Standard orientation:
 ---------------------------------------------------------------------
 Center     Atomic      Atomic             Coordinates (Angstroms)
 Number     Number       Type             X           Y           Z
 ---------------------------------------------------------------------
      1          6           0       -1.708168   -0.261363    0.000024
      2          6           0       -0.463772    0.639750   -0.000024
      3          6           0        0.726330   -0.326398    0.000025
      4          1           0       -1.301765   -1.276424   -0.000115
      5          1           0       -2.344546   -0.101360   -0.877334
      6          1           0       -2.344456   -0.101392    0.877456
      7          1           0       -0.400597    1.285707    0.879783
      8          1           0       -0.400599    1.285617   -0.879897
      9          1           0        0.325883   -1.324031   -0.000104
     10          8           0        1.892466   -0.010006    0.000008
 ---------------------------------------------------------------------

 SCF Done:  E(RM062X) =  -193.029120839     A.U. after   14 cycles

 The electronic state is 1-A.
 Alpha  occ. eigenvalues --  -19.64672 -10.63761 -10.55558 -10.54799  -1.16946
 Alpha  occ. eigenvalues --   -0.89240  -0.73985  -0.68041  -0.54159  -0.53623
 Alpha  occ. eigenvalues --   -0.52275  -0.45841  -0.45039  -0.43691  -0.40911
 Alpha  occ. eigenvalues --   -0.32444
 Alpha virt. eigenvalues --    0.02025   0.14561   0.15292   0.17584   0.20015
 Alpha virt. eigenvalues --    0.22744   0.26654   0.28436   0.32322   0.38684
 Alpha virt. eigenvalues --    0.53782   0.57842   0.60481   0.65504   0.68144

 Mulliken charges:
               1
     1  C   -0.517093
     2  C   -0.383554
     3  C    0.247902
     4  H    0.163788
     5  H    0.178465
     6  H    0.178470
     7  H    0.201365
     8  H    0.201370
     9  H    0.127552
    10  O   -0.398264
 Sum of Mulliken charges =  -0.00000

 Dipole moment (field-independent basis, Debye):
    X=             -2.6228    Y=             -0.1294    Z=             -0.0001  Tot=              2.6260
 Quadrupole moment (field-independent basis, Debye-Ang):
   XX=            -30.7454   YY=            -24.2648   ZZ=            -23.9305
   XY=             -0.6069   XZ=             -0.0000   YZ=              0.0001

 Normal termination of Gaussian 16 at Fri Sep 22 17:02:17 2023.
