 Gaussian 16, Revision A.03,
 Gaussian 16:  ES64L-G16RevA.03 25-Dec-2016

 -------------------------
 #m062x/6-31g(d) scf=tight
 -------------------------

 -----------------------
 tmpdir/M2_conf_0_27.gjf
 -----------------------
 Symbolic Z-matrix:
 Charge =  0 Multiplicity = 1

                         Standard orientation:
 ---------------------------------------------------------------------
 Center     Atomic      Atomic             Coordinates (Angstroms)
 Number     Number       Type             X           Y           Z
 ---------------------------------------------------------------------
      1          6           0       -0.261903    0.471409   -0.002958
      2          6           0        1.116076   -0.147279    0.000429
      3          1           0        1.719065    0.151013   -0.864305
      4          8           0       -1.130942   -0.323254    0.000739
      5          1           0       -0.402532    1.548253   -0.008456
      6          1           0        0.921233   -1.242264    0.005777
      7          1           0        1.684732    0.184247    0.876245
 ---------------------------------------------------------------------

 SCF Done:  E(RM062X) =  -153.743753413     A.U. after   14 cycles

 The electronic state is 1-A.
 Alpha  occ. eigenvalues --  -19.63881 -10.63462 -10.54639  -1.18889  -0.83398
 Alpha  occ. eigenvalues --   -0.67156  -0.56409  -0.51189  -0.50573  -0.45891
 Alpha  occ. eigenvalues --   -0.43034  -0.32183
 Alpha virt. eigenvalues --    0.03829   0.16513   0.18083   0.20272   0.20808
 Alpha virt. eigenvalues --    0.28319   0.34504   0.57589   0.59257   0.64410
 Alpha virt. eigenvalues --    0.65979   0.73644   0.78173   0.82244   0.91429

 Mulliken charges:
               1
     1  C    0.256449
     2  C   -0.574238
     3  H    0.179799
     4  O   -0.376551
     5  H    0.136554
     6  H    0.199814
     7  H    0.178174
 Sum of Mulliken charges =  -0.00000

 Dipole moment (field-independent basis, Debye):
    X=              1.9507    Y=              1.3919    Z=             -0.0076  Tot=              2.3964
 Quadrupole moment (field-independent basis, Debye-Ang):
   XX=            -20.5047   YY=            -17.3999   ZZ=            -17.7361
   XY=             -0.9471   XZ=             -0.0196   YZ=              0.0276

 Normal termination of Gaussian 16 at Fri Sep 22 17:02:14 2023.
