 Gaussian 16, Revision A.03,
 Gaussian 16:  ES64L-G16RevA.03 25-Dec-2016

 -------------------------
 #m062x/6-31g(d) scf=tight
 -------------------------

 -----------------------
 tmpdir/M2_conf_0_23.gjf
 -----------------------
 Symbolic Z-matrix:
 Charge =  0 Multiplicity = 1

                         Standard orientation:
 ---------------------------------------------------------------------
 Center     Atomic      Atomic             Coordinates (Angstroms)
 Number     Number       Type             X           Y           Z
 ---------------------------------------------------------------------
      1          6           0        0.003779    0.000080   -0.003913
      2          1           0        0.656565   -0.876104   -0.096023
      3          1           0       -0.827305   -0.005849   -0.743002
      4          1           0       -0.501882    0.002201    0.965540
      5          1           0        0.649951    0.879269   -0.103035
 ---------------------------------------------------------------------

 SCF Done:  E(RM062X) =  -40.4804531656     A.U. after   10 cycles

 The electronic state is 1-A.
 Alpha  occ. eigenvalues --  -10.52642  -0.77925  -0.46473  -0.44663  -0.44090
 Alpha virt. eigenvalues --    0.16542   0.21762   0.22106   0.22945   0.58070
 Alpha virt. eigenvalues --    0.58076   0.59644   0.95025   0.96001   0.97894
 Alpha virt. eigenvalues --    1.01683   1.13054   1.71941   1.71951   2.26804

 Mulliken charges:
               1
     1  C   -0.671860
     2  H    0.169098
     3  H    0.165314
     4  H    0.168122
     5  H    0.169326
 Sum of Mulliken charges =  -0.00000

 Dipole moment (field-independent basis, Debye):
    X=             -0.0044    Y=              0.0005    Z=              0.0280  Tot=              0.0284
 Quadrupole moment (field-independent basis, Debye-Ang):
   XX=             -8.0382   YY=             -8.3879   ZZ=             -8.4717
   XY=              0.0010   XZ=             -0.0189   YZ=             -0.0004

 Normal termination of Gaussian 16 at Fri Sep 22 17:02:13 2023.
