 Gaussian 16, Revision A.03,
 Gaussian 16:  ES64L-G16RevA.03 25-Dec-2016

 -------------------------
 #m062x/6-31g(d) scf=tight
 -------------------------

 -----------------------
 tmpdir/M2_conf_0_53.gjf
 -----------------------
 Symbolic Z-matrix:
 Charge =  0 Multiplicity = 1

                         Standard orientation:
 ---------------------------------------------------------------------
 Center     Atomic      Atomic             Coordinates (Angstroms)
 Number     Number       Type             X           Y           Z
 ---------------------------------------------------------------------
      1          1           0        0.378467    1.571907   -0.000000
      2          6           0       -0.000000    0.557082   -0.000000
      3          6           0        0.899470   -0.646681    0.000000
      4          8           0       -1.136431    0.222013   -0.000000
      5          1           0        0.199193   -1.479107    0.000000
      6          1           0        1.558482   -0.665655    0.879040
      7          1           0        1.558482   -0.665655   -0.879040
 ---------------------------------------------------------------------

 SCF Done:  E(RM062X) =  -153.740144781     A.U. after   14 cycles

 The electronic state is 1-A'.
 Alpha  occ. eigenvalues --  -19.63791 -10.63463 -10.54253  -1.18560  -0.83401
 Alpha  occ. eigenvalues --   -0.67510  -0.56342  -0.51172  -0.50344  -0.46020
 Alpha  occ. eigenvalues --   -0.42738  -0.32064
 Alpha virt. eigenvalues --    0.03584   0.16782   0.18090   0.20812   0.20859
 Alpha virt. eigenvalues --    0.27745   0.34847   0.57816   0.59002   0.64555
 Alpha virt. eigenvalues --    0.65528   0.73233   0.78068   0.81942   0.91461

 Mulliken charges:
               1
     1  H    0.143029
     2  C    0.256646
     3  C   -0.572933
     4  O   -0.384127
     5  H    0.206339
     6  H    0.175523
     7  H    0.175523
 Sum of Mulliken charges =   0.00000

 Dipole moment (field-independent basis, Debye):
    X=              2.3497    Y=              0.4149    Z=             -0.0000  Tot=              2.3860
 Quadrupole moment (field-independent basis, Debye-Ang):
   XX=            -20.6906   YY=            -17.1668   ZZ=            -17.6992
   XY=              0.7808   XZ=             -0.0000   YZ=              0.0000

 Normal termination of Gaussian 16 at Fri Sep 22 17:02:37 2023.
