 Gaussian 16, Revision A.03,
 Gaussian 16:  ES64L-G16RevA.03 25-Dec-2016

 -------------------------
 #m062x/6-31g(d) scf=tight
 -------------------------

 ----------------------
 tmpdir/M2_conf_0_7.gjf
 ----------------------
 Symbolic Z-matrix:
 Charge =  0 Multiplicity = 1

                         Standard orientation:
 ---------------------------------------------------------------------
 Center     Atomic      Atomic             Coordinates (Angstroms)
 Number     Number       Type             X           Y           Z
 ---------------------------------------------------------------------
      1          6           0        0.018275   -0.700035    0.000000
      2          6           0        0.018275    0.698065   -0.000000
      3          1           0       -0.986855   -1.050255    0.000000
      4          1           0        0.891865   -1.341985    0.000000
      5          1           0        0.884645    1.348075   -0.000000
      6          1           0       -1.008955    1.055985   -0.000000
 ---------------------------------------------------------------------

 SCF Done:  E(RM062X) =  -78.5241756220     A.U. after   12 cycles

 The electronic state is 1-A'.
 Alpha  occ. eigenvalues --  -10.55016 -10.54791  -0.84095  -0.65647  -0.54388
 Alpha  occ. eigenvalues --   -0.45302  -0.42621  -0.31260
 Alpha virt. eigenvalues --    0.04926   0.15706   0.19975   0.21051   0.29527
 Alpha virt. eigenvalues --    0.34411   0.53889   0.61346   0.62351   0.69270
 Alpha virt. eigenvalues --    0.71436   0.71629   0.93011   0.94967   0.97974

 Mulliken charges:
               1
     1  C   -0.332078
     2  C   -0.335128
     3  H    0.162211
     4  H    0.172911
     5  H    0.173177
     6  H    0.158906
 Sum of Mulliken charges =   0.00000

 Dipole moment (field-independent basis, Debye):
    X=             -0.0275    Y=             -0.0026    Z=              0.0000  Tot=              0.0276
 Quadrupole moment (field-independent basis, Debye-Ang):
   XX=            -11.8377   YY=            -12.2442   ZZ=            -15.3542
   XY=              0.0117   XZ=             -0.0000   YZ=             -0.0000

 Normal termination of Gaussian 16 at Fri Sep 22 17:02:02 2023.
