 Gaussian 16, Revision A.03,
 Gaussian 16:  ES64L-G16RevA.03 25-Dec-2016

 -------------------------
 #m062x/6-31g(d) scf=tight
 -------------------------

 -----------------------
 tmpdir/M2_conf_0_58.gjf
 -----------------------
 Symbolic Z-matrix:
 Charge =  0 Multiplicity = 1

                         Standard orientation:
 ---------------------------------------------------------------------
 Center     Atomic      Atomic             Coordinates (Angstroms)
 Number     Number       Type             X           Y           Z
 ---------------------------------------------------------------------
      1          6           0        0.267600    0.499936   -0.005485
      2          6           0       -1.090420   -0.143381    0.000211
      3          1           0       -1.740602    0.094826   -0.852951
      4          8           0        1.098904   -0.344242    0.001639
      5          1           0        0.428650    1.570955   -0.014686
      6          1           0       -0.860753   -1.206620    0.009286
      7          1           0       -1.681605    0.155442    0.876889
 ---------------------------------------------------------------------

 SCF Done:  E(RM062X) =  -153.737905518     A.U. after   13 cycles

 The electronic state is 1-A.
 Alpha  occ. eigenvalues --  -19.63796 -10.63555 -10.54176  -1.18644  -0.83204
 Alpha  occ. eigenvalues --   -0.67676  -0.56570  -0.50948  -0.50433  -0.45835
 Alpha  occ. eigenvalues --   -0.42517  -0.32121
 Alpha virt. eigenvalues --    0.03454   0.17005   0.18004   0.20799   0.21071
 Alpha virt. eigenvalues --    0.27635   0.35099   0.57558   0.58749   0.64724
 Alpha virt. eigenvalues --    0.66100   0.73157   0.78080   0.82110   0.91376

 Mulliken charges:
               1
     1  C    0.258912
     2  C   -0.578643
     3  H    0.176842
     4  O   -0.383908
     5  H    0.145496
     6  H    0.207286
     7  H    0.174015
 Sum of Mulliken charges =  -0.00000

 Dipole moment (field-independent basis, Debye):
    X=             -1.8522    Y=              1.4897    Z=             -0.0124  Tot=              2.3769
 Quadrupole moment (field-independent basis, Debye-Ang):
   XX=            -20.3850   YY=            -17.2691   ZZ=            -17.7818
   XY=              1.1180   XZ=              0.0236   YZ=              0.0488

 Normal termination of Gaussian 16 at Fri Sep 22 17:02:42 2023.
