 Gaussian 16, Revision A.03,
 Gaussian 16:  ES64L-G16RevA.03 25-Dec-2016

 -------------------------
 #m062x/6-31g(d) scf=tight
 -------------------------

 -----------------------
 tmpdir/M2_conf_0_47.gjf
 -----------------------
 Symbolic Z-matrix:
 Charge =  0 Multiplicity = 1

                         Standard orientation:
 ---------------------------------------------------------------------
 Center     Atomic      Atomic             Coordinates (Angstroms)
 Number     Number       Type             X           Y           Z
 ---------------------------------------------------------------------
      1          6           0        1.195175    0.004436    0.000000
      2          6           0        0.000000    0.618729    0.000000
      3          6           0       -1.052545   -0.453769    0.000000
      4          1           0        1.047184   -1.049622    0.000000
      5          1           0        2.165470    0.487951    0.000000
      6          1           0       -0.182073    1.686418    0.000000
      7          1           0       -0.470027   -1.372453    0.000000
      8          1           0       -1.708166   -0.384334    0.879040
      9          1           0       -1.708166   -0.384334   -0.879040
 ---------------------------------------------------------------------

 SCF Done:  E(RM062X) =  -117.809920713     A.U. after   13 cycles

 The electronic state is 1-A'.
 Alpha  occ. eigenvalues --  -10.54624 -10.53365 -10.52950  -0.89484  -0.75237
 Alpha  occ. eigenvalues --   -0.64061  -0.54840  -0.47165  -0.45322  -0.43914
 Alpha  occ. eigenvalues --   -0.40107  -0.30373
 Alpha virt. eigenvalues --    0.06655   0.15815   0.18003   0.20264   0.22115
 Alpha virt. eigenvalues --    0.23143   0.26708   0.33891   0.41705   0.53608
 Alpha virt. eigenvalues --    0.58368   0.62834   0.66258   0.67816   0.71718

 Mulliken charges:
               1
     1  C   -0.372627
     2  C   -0.080036
     3  C   -0.515604
     4  H    0.150632
     5  H    0.158630
     6  H    0.167810
     7  H    0.161786
     8  H    0.164704
     9  H    0.164704
 Sum of Mulliken charges =  -0.00000

 Dipole moment (field-independent basis, Debye):
    X=             -0.2467    Y=              0.1299    Z=              0.0000  Tot=              0.2788
 Quadrupole moment (field-independent basis, Debye-Ang):
   XX=            -19.3755   YY=            -18.6582   ZZ=            -21.4861
   XY=             -0.2899   XZ=             -0.0000   YZ=              0.0000

 Normal termination of Gaussian 16 at Fri Sep 22 17:02:32 2023.
