 Gaussian 16, Revision A.03,
 Gaussian 16:  ES64L-G16RevA.03 25-Dec-2016

 -------------------------
 #m062x/6-31g(d) scf=tight
 -------------------------

 -----------------------
 tmpdir/M2_conf_0_56.gjf
 -----------------------
 Symbolic Z-matrix:
 Charge =  0 Multiplicity = 1

                         Standard orientation:
 ---------------------------------------------------------------------
 Center     Atomic      Atomic             Coordinates (Angstroms)
 Number     Number       Type             X           Y           Z
 ---------------------------------------------------------------------
      1          6           0       -1.025505    0.559647    0.000000
      2          6           0       -0.742784   -0.916218    0.000000
      3          6           0        0.759692   -0.890143    0.000000
      4          8           0        0.000000    1.153024    0.000000
      5          1           0       -2.022095    0.983811    0.000000
      6          1           0       -1.173035   -1.415747    0.879040
      7          1           0       -1.173035   -1.415747   -0.879040
      8          8           0        1.130056    0.235286    0.000000
      9          1           0        1.379295   -1.778505    0.000000
 ---------------------------------------------------------------------

 SCF Done:  E(RM062X) =  -266.707351455     A.U. after   17 cycles

 The electronic state is 1-A'.
 Alpha  occ. eigenvalues --  -19.77297 -19.77196 -10.58348 -10.58197 -10.55643
 Alpha  occ. eigenvalues --   -1.38081  -1.19733  -0.87919  -0.77521  -0.67771
 Alpha  occ. eigenvalues --   -0.65489  -0.62071  -0.54940  -0.54839  -0.47776
 Alpha  occ. eigenvalues --   -0.46328  -0.44142  -0.42378  -0.13211
 Alpha virt. eigenvalues --    0.00216   0.01129   0.17407   0.19566   0.20207
 Alpha virt. eigenvalues --    0.22706   0.24230   0.30913   0.37742   0.39086
 Alpha virt. eigenvalues --    0.58686   0.61400   0.62113   0.63418   0.66924

 Mulliken charges:
               1
     1  C   -0.047044
     2  C   -0.365479
     3  C   -0.051996
     4  O   -0.115783
     5  H    0.220251
     6  H    0.128404
     7  H    0.128404
     8  O   -0.116378
     9  H    0.219620
 Sum of Mulliken charges =  -0.00000

 Dipole moment (field-independent basis, Debye):
    X=             -0.5246    Y=             -0.5649    Z=              0.0000  Tot=              0.7709
 Quadrupole moment (field-independent basis, Debye-Ang):
   XX=            -26.4622   YY=            -28.0707   ZZ=            -30.4605
   XY=             -3.6537   XZ=             -0.0000   YZ=             -0.0000

 Normal termination of Gaussian 16 at Fri Sep 22 17:02:43 2023.
