 Gaussian 16, Revision A.03,
 Gaussian 16:  ES64L-G16RevA.03 25-Dec-2016

 -------------------------
 #m062x/6-31g(d) scf=tight
 -------------------------

 -----------------------
 tmpdir/M2_conf_0_54.gjf
 -----------------------
 Symbolic Z-matrix:
 Charge =  0 Multiplicity = 1

                         Standard orientation:
 ---------------------------------------------------------------------
 Center     Atomic      Atomic             Coordinates (Angstroms)
 Number     Number       Type             X           Y           Z
 ---------------------------------------------------------------------
      1          6           0       -0.003200    0.000238    0.000001
      2          1           0       -0.673029   -0.873817   -0.000008
      3          1           0        0.672769   -0.006842    0.852246
      4          1           0        0.672788   -0.006840   -0.852236
      5          1           0       -0.653326    0.886073   -0.000006
 ---------------------------------------------------------------------

 SCF Done:  E(RM062X) =  -40.4803534569     A.U. after   10 cycles

 The electronic state is 1-A.
 Alpha  occ. eigenvalues --  -10.52412  -0.78119  -0.46783  -0.44519  -0.44247
 Alpha virt. eigenvalues --    0.16681   0.21955   0.22182   0.23158   0.57634
 Alpha virt. eigenvalues --    0.58245   0.59507   0.95707   0.96078   0.98312
 Alpha virt. eigenvalues --    1.02550   1.13011   1.71934   1.72088   2.28133

 Mulliken charges:
               1
     1  C   -0.674261
     2  H    0.167485
     3  H    0.169345
     4  H    0.169344
     5  H    0.168087
 Sum of Mulliken charges =  -0.00000

 Dipole moment (field-independent basis, Debye):
    X=              0.0262    Y=              0.0009    Z=              0.0000  Tot=              0.0262
 Quadrupole moment (field-independent basis, Debye-Ang):
   XX=             -7.9971   YY=             -8.3668   ZZ=             -8.4902
   XY=             -0.0032   XZ=              0.0000   YZ=             -0.0000

 Normal termination of Gaussian 16 at Fri Sep 22 17:02:34 2023.
