 Gaussian 16, Revision A.03,
 Gaussian 16:  ES64L-G16RevA.03 25-Dec-2016

 -------------------------
 #m062x/6-31g(d) scf=tight
 -------------------------

 ----------------------
 tmpdir/M2_conf_0_8.gjf
 ----------------------
 Symbolic Z-matrix:
 Charge =  0 Multiplicity = 1

                         Standard orientation:
 ---------------------------------------------------------------------
 Center     Atomic      Atomic             Coordinates (Angstroms)
 Number     Number       Type             X           Y           Z
 ---------------------------------------------------------------------
      1          6           0       -0.537421   -0.735564    0.000000
      2          6           0       -0.537421    0.734736   -0.000000
      3          1           0       -1.422411    1.360886   -0.000000
      4          1           0       -1.431071   -1.349294    0.000000
      5          8           0        0.581409   -1.125404    0.000000
      6          8           0        0.581409    1.124576   -0.000000
 ---------------------------------------------------------------------

 SCF Done:  E(RM062X) =  -227.690937021     A.U. after   15 cycles

 The electronic state is 1-A'.
 Alpha  occ. eigenvalues --  -19.66316 -19.66245 -10.64655 -10.64569  -1.23678
 Alpha  occ. eigenvalues --   -1.17559  -0.80278  -0.65952  -0.63717  -0.54929
 Alpha  occ. eigenvalues --   -0.52809  -0.52437  -0.44355  -0.36514  -0.34027
 Alpha virt. eigenvalues --   -0.05059   0.09692   0.17308   0.17575   0.23735
 Alpha virt. eigenvalues --    0.33473   0.42610   0.54645   0.55129   0.61325
 Alpha virt. eigenvalues --    0.72280   0.73266   0.78463   0.85827   0.88057

 Mulliken charges:
               1
     1  C    0.169854
     2  C    0.167307
     3  H    0.156790
     4  H    0.156730
     5  O   -0.325526
     6  O   -0.325154
 Sum of Mulliken charges =  -0.00000

 Dipole moment (field-independent basis, Debye):
    X=             -3.7616    Y=             -0.0008    Z=             -0.0000  Tot=              3.7616
 Quadrupole moment (field-independent basis, Debye-Ang):
   XX=            -21.0865   YY=            -23.9589   ZZ=            -20.7953
   XY=             -0.0049   XZ=              0.0000   YZ=              0.0000

 Normal termination of Gaussian 16 at Fri Sep 22 17:02:06 2023.
