 Gaussian 16, Revision A.03,
 Gaussian 16:  ES64L-G16RevA.03 25-Dec-2016

 -------------------------
 #m062x/6-31g(d) scf=tight
 -------------------------

 ----------------------
 tmpdir/M2_conf_0_0.gjf
 ----------------------
 Symbolic Z-matrix:
 Charge =  0 Multiplicity = 1

                         Standard orientation:
 ---------------------------------------------------------------------
 Center     Atomic      Atomic             Coordinates (Angstroms)
 Number     Number       Type             X           Y           Z
 ---------------------------------------------------------------------
      1          6           0        0.000000    0.702300    0.516941
      2          6           0       -0.000000   -0.702300    0.516941
      3          1           0        0.000000    1.316030    1.410591
      4          6           0        0.000000    1.144450   -0.752039
      5          1           0       -0.000000   -1.316030    1.410591
      6          6           0       -0.000000   -1.144450   -0.752039
 ---------------------------------------------------------------------

 SCF Done:  E(RM062X) =  -153.222899923     A.U. after   14 cycles

 The electronic state is 1-A1.
 Alpha  occ. eigenvalues --  -10.62452 -10.62450 -10.58033 -10.57970  -0.97279
 Alpha  occ. eigenvalues --   -0.80312  -0.68565  -0.55735  -0.55479  -0.43396
 Alpha  occ. eigenvalues --   -0.39218  -0.34297  -0.28553
 Alpha virt. eigenvalues --   -0.09507  -0.00926   0.00171   0.12893   0.16660
 Alpha virt. eigenvalues --    0.19350   0.30455   0.38321   0.45170   0.51196
 Alpha virt. eigenvalues --    0.55965   0.59197   0.59513   0.63110   0.65237

 Mulliken charges:
               1
     1  C   -0.251372
     2  C   -0.251372
     3  H    0.244202
     4  C    0.007169
     5  H    0.244202
     6  C    0.007169
 Sum of Mulliken charges =  -0.00000

 Dipole moment (field-independent basis, Debye):
    X=             -0.0000    Y=              0.0000    Z=              3.6954  Tot=              3.6954
 Quadrupole moment (field-independent basis, Debye-Ang):
   XX=            -25.1794   YY=            -21.6200   ZZ=            -24.0076
   XY=              0.0000   XZ=             -0.0000   YZ=              0.0000

 Normal termination of Gaussian 16 at Fri Sep 22 17:02:00 2023.
