 Gaussian 16, Revision A.03,
 Gaussian 16:  ES64L-G16RevA.03 25-Dec-2016

 -------------------------
 #m062x/6-31g(d) scf=tight
 -------------------------

 ----------------------
 tmpdir/M2_conf_0_2.gjf
 ----------------------
 Symbolic Z-matrix:
 Charge =  0 Multiplicity = 1

                         Standard orientation:
 ---------------------------------------------------------------------
 Center     Atomic      Atomic             Coordinates (Angstroms)
 Number     Number       Type             X           Y           Z
 ---------------------------------------------------------------------
      1          6           0        0.018275   -0.695785    0.000000
      2          6           0        0.018275    0.693815   -0.000000
      3          1           0       -0.986855   -1.046005    0.000000
      4          1           0        0.891865   -1.337735    0.000000
      5          1           0        0.884645    1.343825   -0.000000
      6          1           0       -1.008955    1.051735   -0.000000
 ---------------------------------------------------------------------

 SCF Done:  E(RM062X) =  -78.5251170422     A.U. after   12 cycles

 The electronic state is 1-A'.
 Alpha  occ. eigenvalues --  -10.54896 -10.54669  -0.84293  -0.65559  -0.54473
 Alpha  occ. eigenvalues --   -0.45413  -0.42506  -0.31408
 Alpha virt. eigenvalues --    0.05107   0.15695   0.19932   0.21123   0.29602
 Alpha virt. eigenvalues --    0.34654   0.53684   0.61256   0.62503   0.69363
 Alpha virt. eigenvalues --    0.71631   0.72038   0.92832   0.95051   0.98101

 Mulliken charges:
               1
     1  C   -0.330955
     2  C   -0.334103
     3  H    0.161674
     4  H    0.172383
     5  H    0.172641
     6  H    0.158359
 Sum of Mulliken charges =  -0.00000

 Dipole moment (field-independent basis, Debye):
    X=             -0.0268    Y=             -0.0027    Z=              0.0000  Tot=              0.0270
 Quadrupole moment (field-independent basis, Debye-Ang):
   XX=            -11.8330   YY=            -12.2679   ZZ=            -15.3301
   XY=              0.0120   XZ=             -0.0000   YZ=             -0.0000

 Normal termination of Gaussian 16 at Fri Sep 22 17:02:04 2023.
