 Gaussian 16, Revision A.03,
 Gaussian 16:  ES64L-G16RevA.03 25-Dec-2016

 -------------------------
 #m062x/6-31g(d) scf=tight
 -------------------------

 -----------------------
 tmpdir/M2_conf_0_34.gjf
 -----------------------
 Symbolic Z-matrix:
 Charge =  0 Multiplicity = 1

                         Standard orientation:
 ---------------------------------------------------------------------
 Center     Atomic      Atomic             Coordinates (Angstroms)
 Number     Number       Type             X           Y           Z
 ---------------------------------------------------------------------
      1          6           0        0.014472    0.666749    0.000000
      2          6           0        0.014472   -0.668951   -0.000000
      3          1           0        0.936952   -1.242031   -0.000000
      4          1           0        0.874673    1.324899    0.000000
      5          1           0       -0.996147    1.033189    0.000000
      6          1           0       -0.989147   -1.102841   -0.000000
 ---------------------------------------------------------------------

 SCF Done:  E(RM062X) =  -78.5304534219     A.U. after   12 cycles

 The electronic state is 1-A'.
 Alpha  occ. eigenvalues --  -10.54217 -10.53926  -0.85398  -0.64927  -0.54776
 Alpha  occ. eigenvalues --   -0.46231  -0.41664  -0.32367
 Alpha virt. eigenvalues --    0.06303   0.15678   0.19434   0.21473   0.29757
 Alpha virt. eigenvalues --    0.36156   0.52427   0.60588   0.63699   0.69996
 Alpha virt. eigenvalues --    0.70833   0.76311   0.91515   0.95461   0.98529

 Mulliken charges:
               1
     1  C   -0.320658
     2  C   -0.330673
     3  H    0.165194
     4  H    0.170460
     5  H    0.155166
     6  H    0.160510
 Sum of Mulliken charges =  -0.00000

 Dipole moment (field-independent basis, Debye):
    X=             -0.0167    Y=              0.0230    Z=              0.0000  Tot=              0.0285
 Quadrupole moment (field-independent basis, Debye-Ang):
   XX=            -11.7855   YY=            -12.4166   ZZ=            -15.1920
   XY=              0.1670   XZ=              0.0000   YZ=              0.0000

 Normal termination of Gaussian 16 at Fri Sep 22 17:02:21 2023.
