 Gaussian 16, Revision A.03,
 Gaussian 16:  ES64L-G16RevA.03 25-Dec-2016

 -------------------------
 #m062x/6-31g(d) scf=tight
 -------------------------

 -----------------------
 tmpdir/M2_conf_0_20.gjf
 -----------------------
 Symbolic Z-matrix:
 Charge =  0 Multiplicity = 1

                         Standard orientation:
 ---------------------------------------------------------------------
 Center     Atomic      Atomic             Coordinates (Angstroms)
 Number     Number       Type             X           Y           Z
 ---------------------------------------------------------------------
      1          1           0       -1.307061   -0.783614    0.884870
      2          6           0       -1.189356   -0.153088   -0.000504
      3          6           0        0.240895    0.398430   -0.000958
      4          1           0       -1.858505    0.735295    0.003048
      5          1           0       -1.330807   -0.794408   -0.874576
      6          1           0        0.168020    1.470957   -0.001723
      7          8           0        1.252389   -0.262535   -0.000356
 ---------------------------------------------------------------------

 SCF Done:  E(RM062X) =  -153.745503561     A.U. after   14 cycles

 The electronic state is 1-A.
 Alpha  occ. eigenvalues --  -19.64709 -10.64121 -10.55448  -1.16991  -0.84575
 Alpha  occ. eigenvalues --   -0.67145  -0.55262  -0.51101  -0.50699  -0.46782
 Alpha  occ. eigenvalues --   -0.42904  -0.32424
 Alpha virt. eigenvalues --    0.02287   0.14449   0.17360   0.21836   0.23049
 Alpha virt. eigenvalues --    0.29350   0.30867   0.57248   0.59753   0.61842
 Alpha virt. eigenvalues --    0.65319   0.72824   0.76752   0.84578   0.90712

 Mulliken charges:
               1
     1  H    0.204726
     2  C   -0.559898
     3  C    0.242340
     4  H    0.163277
     5  H    0.205241
     6  H    0.133730
     7  O   -0.389416
 Sum of Mulliken charges =  -0.00000

 Dipole moment (field-independent basis, Debye):
    X=             -2.3427    Y=              0.9738    Z=              0.0024  Tot=              2.5370
 Quadrupole moment (field-independent basis, Debye-Ang):
   XX=            -21.1971   YY=            -17.5219   ZZ=            -17.6231
   XY=              0.8259   XZ=              0.0159   YZ=              0.0036

 Normal termination of Gaussian 16 at Fri Sep 22 17:02:17 2023.
