 Gaussian 16, Revision A.03,
 Gaussian 16:  ES64L-G16RevA.03 25-Dec-2016

 -------------------------
 #m062x/6-31g(d) scf=tight
 -------------------------

 -----------------------
 tmpdir/M2_conf_0_44.gjf
 -----------------------
 Symbolic Z-matrix:
 Charge =  0 Multiplicity = 1

                         Standard orientation:
 ---------------------------------------------------------------------
 Center     Atomic      Atomic             Coordinates (Angstroms)
 Number     Number       Type             X           Y           Z
 ---------------------------------------------------------------------
      1          6           0        0.010001    0.529355   -0.000000
      2          1           0        0.877163    1.179971   -0.000000
      3          8           0        0.010001   -0.655443   -0.000000
      4          1           0       -1.017174    0.887449    0.000000
 ---------------------------------------------------------------------

 SCF Done:  E(RM062X) =  -114.437681878     A.U. after   13 cycles

 The electronic state is 1-A'.
 Alpha  occ. eigenvalues --  -19.65279 -10.63737  -1.19132  -0.71941  -0.58994
 Alpha  occ. eigenvalues --   -0.52483  -0.47161  -0.33235
 Alpha virt. eigenvalues --    0.02171   0.15603   0.22932   0.28037   0.56749
 Alpha virt. eigenvalues --    0.65016   0.70922   0.78127   0.90095   0.95952
 Alpha virt. eigenvalues --    0.96312   1.04875   1.13686   1.44389   1.55180

 Mulliken charges:
               1
     1  C    0.068413
     2  H    0.144361
     3  O   -0.342722
     4  H    0.129948
 Sum of Mulliken charges =  -0.00000

 Dipole moment (field-independent basis, Debye):
    X=              0.0437    Y=              2.2225    Z=             -0.0000  Tot=              2.2230
 Quadrupole moment (field-independent basis, Debye-Ang):
   XX=            -11.2835   YY=            -11.9846   ZZ=            -11.3942
   XY=              0.3279   XZ=             -0.0000   YZ=              0.0000

 Normal termination of Gaussian 16 at Fri Sep 22 17:02:31 2023.
