 Gaussian 16, Revision A.03,
 Gaussian 16:  ES64L-G16RevA.03 25-Dec-2016

 -------------------------
 #m062x/6-31g(d) scf=tight
 -------------------------

 -----------------------
 tmpdir/M2_conf_0_32.gjf
 -----------------------
 Symbolic Z-matrix:
 Charge =  0 Multiplicity = 1

                         Standard orientation:
 ---------------------------------------------------------------------
 Center     Atomic      Atomic             Coordinates (Angstroms)
 Number     Number       Type             X           Y           Z
 ---------------------------------------------------------------------
      1          6           0       -1.067009   -0.471781    0.000000
      2          6           0        0.000000    0.597378    0.000000
      3          6           0        1.213858    0.040028    0.000000
      4          1           0       -0.494721   -1.425446    0.000000
      5          1           0       -1.715042   -0.368892    0.877390
      6          1           0       -1.715042   -0.368892   -0.877390
      7          1           0       -0.252376    1.653648    0.000000
      8          1           0        2.170912    0.547138    0.000000
      9          1           0        1.125176   -1.031301    0.000000
 ---------------------------------------------------------------------

 SCF Done:  E(RM062X) =  -117.817267172     A.U. after   13 cycles

 The electronic state is 1-A'.
 Alpha  occ. eigenvalues --  -10.54621 -10.53614 -10.53029  -0.89008  -0.75497
 Alpha  occ. eigenvalues --   -0.63587  -0.54622  -0.47268  -0.45640  -0.43505
 Alpha  occ. eigenvalues --   -0.40068  -0.30542
 Alpha virt. eigenvalues --    0.06918   0.15427   0.17836   0.20464   0.22091
 Alpha virt. eigenvalues --    0.22893   0.25915   0.33989   0.41365   0.53813
 Alpha virt. eigenvalues --    0.58200   0.63101   0.65547   0.67698   0.71685

 Mulliken charges:
               1
     1  C   -0.515122
     2  C   -0.079279
     3  C   -0.370811
     4  H    0.158119
     5  H    0.167011
     6  H    0.167011
     7  H    0.165023
     8  H    0.160677
     9  H    0.147372
 Sum of Mulliken charges =  -0.00000

 Dipole moment (field-independent basis, Debye):
    X=             -0.2780    Y=              0.1306    Z=             -0.0000  Tot=              0.3071
 Quadrupole moment (field-independent basis, Debye-Ang):
   XX=            -19.1990   YY=            -18.8053   ZZ=            -21.4985
   XY=             -0.4165   XZ=              0.0000   YZ=              0.0000

 Normal termination of Gaussian 16 at Fri Sep 22 17:02:18 2023.
