 Gaussian 16, Revision A.03,
 Gaussian 16:  ES64L-G16RevA.03 25-Dec-2016

 -------------------------
 #m062x/6-31g(d) scf=tight
 -------------------------

 ----------------------
 tmpdir/M2_conf_0_6.gjf
 ----------------------
 Symbolic Z-matrix:
 Charge =  0 Multiplicity = 1

                         Standard orientation:
 ---------------------------------------------------------------------
 Center     Atomic      Atomic             Coordinates (Angstroms)
 Number     Number       Type             X           Y           Z
 ---------------------------------------------------------------------
      1          6           0        0.008186    0.530362   -0.000000
      2          1           0        0.882346    1.172728   -0.000000
      3          1           0       -0.996949    0.880582    0.000000
      4          8           0        0.008186   -0.654435    0.000000
 ---------------------------------------------------------------------

 SCF Done:  E(RM062X) =  -114.436704645     A.U. after   13 cycles

 The electronic state is 1-A'.
 Alpha  occ. eigenvalues --  -19.65172 -10.63468  -1.19092  -0.72144  -0.59289
 Alpha  occ. eigenvalues --   -0.52421  -0.47105  -0.33268
 Alpha virt. eigenvalues --    0.02208   0.15945   0.23168   0.28064   0.56820
 Alpha virt. eigenvalues --    0.64796   0.70924   0.78288   0.90312   0.96105
 Alpha virt. eigenvalues --    0.97839   1.04935   1.13718   1.44355   1.55111

 Mulliken charges:
               1
     1  C    0.068488
     2  H    0.142443
     3  H    0.134324
     4  O   -0.345255
 Sum of Mulliken charges =  -0.00000

 Dipole moment (field-independent basis, Debye):
    X=              0.0179    Y=              2.2336    Z=             -0.0000  Tot=              2.2337
 Quadrupole moment (field-independent basis, Debye-Ang):
   XX=            -11.2513   YY=            -11.9753   ZZ=            -11.3677
   XY=              0.2941   XZ=             -0.0000   YZ=             -0.0000

 Normal termination of Gaussian 16 at Fri Sep 22 17:01:59 2023.
