 Gaussian 16, Revision A.03,
 Gaussian 16:  ES64L-G16RevA.03 25-Dec-2016

 -------------------------
 #m062x/6-31g(d) scf=tight
 -------------------------

 -----------------------
 tmpdir/M2_conf_0_30.gjf
 -----------------------
 Symbolic Z-matrix:
 Charge =  0 Multiplicity = 1

                         Standard orientation:
 ---------------------------------------------------------------------
 Center     Atomic      Atomic             Coordinates (Angstroms)
 Number     Number       Type             X           Y           Z
 ---------------------------------------------------------------------
      1          6           0        0.016528   -0.695138    0.000000
      2          6           0        0.016527    0.699163   -0.000000
      3          1           0       -0.987092   -1.129028    0.000000
      4          1           0        0.906128   -1.318038    0.000000
      5          1           0        0.876728    1.357313   -0.000000
      6          1           0       -0.994093    1.065603   -0.000000
 ---------------------------------------------------------------------

 SCF Done:  E(RM062X) =  -78.5273616201     A.U. after   12 cycles

 The electronic state is 1-A'.
 Alpha  occ. eigenvalues --  -10.55104 -10.54876  -0.83953  -0.65718  -0.53938
 Alpha  occ. eigenvalues --   -0.45788  -0.42354  -0.31321
 Alpha virt. eigenvalues --    0.04971   0.15936   0.19711   0.20892   0.29293
 Alpha virt. eigenvalues --    0.34841   0.54001   0.61288   0.62035   0.69245
 Alpha virt. eigenvalues --    0.70698   0.71788   0.92644   0.94749   0.98183

 Mulliken charges:
               1
     1  C   -0.336096
     2  C   -0.329425
     3  H    0.161110
     4  H    0.169746
     5  H    0.174228
     6  H    0.160437
 Sum of Mulliken charges =   0.00000

 Dipole moment (field-independent basis, Debye):
    X=             -0.0257    Y=              0.0072    Z=             -0.0000  Tot=              0.0267
 Quadrupole moment (field-independent basis, Debye-Ang):
   XX=            -11.9097   YY=            -12.1357   ZZ=            -15.3605
   XY=              0.1147   XZ=             -0.0000   YZ=             -0.0000

 Normal termination of Gaussian 16 at Fri Sep 22 17:02:11 2023.
