 Gaussian 16, Revision A.03,
 Gaussian 16:  ES64L-G16RevA.03 25-Dec-2016

 -------------------------
 #m062x/6-31g(d) scf=tight
 -------------------------

 -----------------------
 tmpdir/M2_conf_0_24.gjf
 -----------------------
 Symbolic Z-matrix:
 Charge =  0 Multiplicity = 1

                         Standard orientation:
 ---------------------------------------------------------------------
 Center     Atomic      Atomic             Coordinates (Angstroms)
 Number     Number       Type             X           Y           Z
 ---------------------------------------------------------------------
      1          6           0       -1.267144   -0.499162    0.000001
      2          6           0       -0.498816    0.831326    0.000001
      3          6           0        0.953931    0.417626    0.000000
      4          1           0       -1.903261   -0.628367   -0.879749
      5          1           0       -1.902993   -0.628521    0.879921
      6          1           0       -0.487972   -1.289160   -0.000189
      7          1           0       -0.723475    1.447864    0.877351
      8          1           0       -0.723475    1.447864   -0.877349
      9          8           0        1.107318   -0.749940    0.000001
     10          1           0        1.754807    1.151104    0.000000
 ---------------------------------------------------------------------

 SCF Done:  E(RM062X) =  -193.016609734     A.U. after   14 cycles

 The electronic state is 1-A.
 Alpha  occ. eigenvalues --  -19.64395 -10.63699 -10.54822 -10.51309  -1.20071
 Alpha  occ. eigenvalues --   -0.86584  -0.74645  -0.64344  -0.58015  -0.53760
 Alpha  occ. eigenvalues --   -0.53426  -0.45464  -0.42381  -0.40305  -0.39562
 Alpha  occ. eigenvalues --   -0.32164
 Alpha virt. eigenvalues --    0.03305   0.15172   0.17542   0.17646   0.20679
 Alpha virt. eigenvalues --    0.26039   0.27527   0.27948   0.31814   0.37326
 Alpha virt. eigenvalues --    0.55481   0.58292   0.63827   0.64225   0.68206

 Mulliken charges:
               1
     1  C   -0.529880
     2  C   -0.420845
     3  C    0.258536
     4  H    0.155942
     5  H    0.155949
     6  H    0.249112
     7  H    0.182544
     8  H    0.182543
     9  O   -0.383661
    10  H    0.149760
 Sum of Mulliken charges =  -0.00000

 Dipole moment (field-independent basis, Debye):
    X=             -0.1585    Y=              2.1568    Z=             -0.0000  Tot=              2.1626
 Quadrupole moment (field-independent basis, Debye-Ang):
   XX=            -25.9917   YY=            -25.0927   ZZ=            -24.0974
   XY=              2.3942   XZ=             -0.0001   YZ=              0.0000

 Normal termination of Gaussian 16 at Fri Sep 22 17:02:18 2023.
