 Gaussian 16, Revision A.03,
 Gaussian 16:  ES64L-G16RevA.03 25-Dec-2016

 -------------------------
 #m062x/6-31g(d) scf=tight
 -------------------------

 ----------------------
 tmpdir/M2_conf_0_1.gjf
 ----------------------
 Symbolic Z-matrix:
 Charge =  0 Multiplicity = 1

                         Standard orientation:
 ---------------------------------------------------------------------
 Center     Atomic      Atomic             Coordinates (Angstroms)
 Number     Number       Type             X           Y           Z
 ---------------------------------------------------------------------
      1          6           0        0.008216    0.530384    0.000000
      2          1           0        0.881893    1.172395    0.000000
      3          1           0       -0.996919    0.880605    0.000000
      4          8           0        0.008216   -0.654413   -0.000000
 ---------------------------------------------------------------------

 SCF Done:  E(RM062X) =  -114.436690278     A.U. after   13 cycles

 The electronic state is 1-A'.
 Alpha  occ. eigenvalues --  -19.65170 -10.63462  -1.19090  -0.72152  -0.59295
 Alpha  occ. eigenvalues --   -0.52421  -0.47104  -0.33268
 Alpha virt. eigenvalues --    0.02208   0.15955   0.23175   0.28065   0.56822
 Alpha virt. eigenvalues --    0.64792   0.70919   0.78289   0.90330   0.96133
 Alpha virt. eigenvalues --    0.97842   1.04936   1.13719   1.44356   1.55110

 Mulliken charges:
               1
     1  C    0.068487
     2  H    0.142534
     3  H    0.134281
     4  O   -0.345302
 Sum of Mulliken charges =  -0.00000

 Dipole moment (field-independent basis, Debye):
    X=              0.0185    Y=              2.2340    Z=              0.0000  Tot=              2.2340
 Quadrupole moment (field-independent basis, Debye-Ang):
   XX=            -11.2510   YY=            -11.9747   ZZ=            -11.3670
   XY=              0.2945   XZ=             -0.0000   YZ=              0.0000

 Normal termination of Gaussian 16 at Fri Sep 22 17:02:02 2023.
