 Gaussian 16, Revision A.03,
 Gaussian 16:  ES64L-G16RevA.03 25-Dec-2016

 -------------------------
 #m062x/6-31g(d) scf=tight
 -------------------------

 -----------------------
 tmpdir/M2_conf_0_11.gjf
 -----------------------
 Symbolic Z-matrix:
 Charge =  0 Multiplicity = 1

                         Standard orientation:
 ---------------------------------------------------------------------
 Center     Atomic      Atomic             Coordinates (Angstroms)
 Number     Number       Type             X           Y           Z
 ---------------------------------------------------------------------
      1          6           0       -0.765075   -0.013093   -0.000003
      2          6           0        0.770197   -0.003790    0.000003
      3          1           0       -1.192128   -0.501393    0.880051
      4          1           0       -1.192115   -0.502333   -0.879540
      5          1           0       -1.066022    1.054914   -0.000487
      6          1           0        1.029946    1.058312   -0.000655
      7          1           0        1.194803   -0.504645   -0.877035
      8          1           0        1.194789   -0.503555    0.877671
 ---------------------------------------------------------------------

 SCF Done:  E(RM062X) =  -79.7638936856     A.U. after   11 cycles

 The electronic state is 1-A.
 Alpha  occ. eigenvalues --  -10.52944 -10.52871  -0.84363  -0.69269  -0.50744
 Alpha  occ. eigenvalues --   -0.49592  -0.41556  -0.39774  -0.39688
 Alpha virt. eigenvalues --    0.14560   0.17899   0.17976   0.20797   0.28193
 Alpha virt. eigenvalues --    0.28761   0.29555   0.56199   0.57765   0.59726
 Alpha virt. eigenvalues --    0.71315   0.73353   0.74712   0.92139   0.92374

 Mulliken charges:
               1
     1  C   -0.486691
     2  C   -0.483803
     3  H    0.163636
     4  H    0.163640
     5  H    0.155624
     6  H    0.161338
     7  H    0.163128
     8  H    0.163128
 Sum of Mulliken charges =  -0.00000

 Dipole moment (field-independent basis, Debye):
    X=              0.0004    Y=              0.0026    Z=              0.0000  Tot=              0.0026
 Quadrupole moment (field-independent basis, Debye-Ang):
   XX=            -15.5560   YY=            -14.5644   ZZ=            -14.7490
   XY=             -0.0334   XZ=             -0.0000   YZ=              0.0000

 Normal termination of Gaussian 16 at Fri Sep 22 17:02:09 2023.
