 Gaussian 16, Revision A.03,
 Gaussian 16:  ES64L-G16RevA.03 25-Dec-2016

 -------------------------
 #m062x/6-31g(d) scf=tight
 -------------------------

 -----------------------
 tmpdir/M2_conf_0_45.gjf
 -----------------------
 Symbolic Z-matrix:
 Charge =  0 Multiplicity = 1

                         Standard orientation:
 ---------------------------------------------------------------------
 Center     Atomic      Atomic             Coordinates (Angstroms)
 Number     Number       Type             X           Y           Z
 ---------------------------------------------------------------------
      1          6           0        0.000000    0.564624    0.000000
      2          6           0       -0.896540   -0.642949    0.000000
      3          8           0        1.130702    0.210690   -0.000000
      4          1           0       -0.361705    1.585543    0.000000
      5          1           0       -0.193707   -1.473208    0.000000
      6          1           0       -1.555482   -0.663951    0.879040
      7          1           0       -1.555482   -0.663951   -0.879040
 ---------------------------------------------------------------------

 SCF Done:  E(RM062X) =  -153.738270842     A.U. after   14 cycles

 The electronic state is 1-A'.
 Alpha  occ. eigenvalues --  -19.63718 -10.63453 -10.54213  -1.18577  -0.83252
 Alpha  occ. eigenvalues --   -0.67574  -0.56331  -0.51147  -0.50254  -0.46026
 Alpha  occ. eigenvalues --   -0.42676  -0.31950
 Alpha virt. eigenvalues --    0.03590   0.16861   0.17979   0.20840   0.20959
 Alpha virt. eigenvalues --    0.27530   0.34873   0.57835   0.58856   0.64491
 Alpha virt. eigenvalues --    0.65615   0.73216   0.78218   0.82068   0.91448

 Mulliken charges:
               1
     1  C    0.255784
     2  C   -0.572337
     3  O   -0.384425
     4  H    0.144683
     5  H    0.207520
     6  H    0.174387
     7  H    0.174387
 Sum of Mulliken charges =  -0.00000

 Dipole moment (field-independent basis, Debye):
    X=             -2.3243    Y=              0.4604    Z=              0.0000  Tot=              2.3694
 Quadrupole moment (field-independent basis, Debye-Ang):
   XX=            -20.7215   YY=            -17.0873   ZZ=            -17.7086
   XY=             -0.7645   XZ=              0.0000   YZ=              0.0000

 Normal termination of Gaussian 16 at Fri Sep 22 17:02:25 2023.
