 Gaussian 16, Revision A.03,
 Gaussian 16:  ES64L-G16RevA.03 25-Dec-2016

 -------------------------
 #m062x/6-31g(d) scf=tight
 -------------------------

 -----------------------
 tmpdir/M2_conf_0_28.gjf
 -----------------------
 Symbolic Z-matrix:
 Charge =  0 Multiplicity = 1

                         Standard orientation:
 ---------------------------------------------------------------------
 Center     Atomic      Atomic             Coordinates (Angstroms)
 Number     Number       Type             X           Y           Z
 ---------------------------------------------------------------------
      1          6           0       -0.258055    0.470554   -0.001938
      2          6           0        1.117960   -0.152493    0.000421
      3          1           0        1.664933    0.191468    0.885216
      4          8           0       -1.129603   -0.321361    0.000402
      5          1           0       -0.395280    1.547843   -0.005453
      6          1           0        0.919655   -1.246864    0.003903
      7          1           0        1.688086    0.170080   -0.877779
 ---------------------------------------------------------------------

 SCF Done:  E(RM062X) =  -153.743484783     A.U. after   14 cycles

 The electronic state is 1-A.
 Alpha  occ. eigenvalues --  -19.63801 -10.63368 -10.54668  -1.18829  -0.83484
 Alpha  occ. eigenvalues --   -0.67060  -0.56216  -0.51421  -0.50379  -0.46056
 Alpha  occ. eigenvalues --   -0.43130  -0.32035
 Alpha virt. eigenvalues --    0.03964   0.16339   0.18058   0.20346   0.20653
 Alpha virt. eigenvalues --    0.28225   0.34330   0.57847   0.59366   0.64080
 Alpha virt. eigenvalues --    0.65706   0.73682   0.78347   0.82210   0.91481

 Mulliken charges:
               1
     1  C    0.253219
     2  C   -0.568547
     3  H    0.177627
     4  O   -0.377114
     5  H    0.135851
     6  H    0.200302
     7  H    0.178662
 Sum of Mulliken charges =   0.00000

 Dipole moment (field-independent basis, Debye):
    X=              1.9378    Y=              1.3929    Z=             -0.0052  Tot=              2.3865
 Quadrupole moment (field-independent basis, Debye-Ang):
   XX=            -20.6701   YY=            -17.3749   ZZ=            -17.6754
   XY=             -0.9133   XZ=             -0.0154   YZ=              0.0177

 Normal termination of Gaussian 16 at Fri Sep 22 17:02:19 2023.
