 Gaussian 16, Revision A.03,
 Gaussian 16:  ES64L-G16RevA.03 25-Dec-2016

 -------------------------
 #m062x/6-31g(d) scf=tight
 -------------------------

 -----------------------
 tmpdir/M2_conf_0_19.gjf
 -----------------------
 Symbolic Z-matrix:
 Charge =  0 Multiplicity = 1

                         Standard orientation:
 ---------------------------------------------------------------------
 Center     Atomic      Atomic             Coordinates (Angstroms)
 Number     Number       Type             X           Y           Z
 ---------------------------------------------------------------------
      1          1           0       -1.348873   -0.794063   -0.872425
      2          6           0       -1.189036   -0.153831   -0.000726
      3          6           0        0.241253    0.397576   -0.001272
      4          1           0       -1.838866    0.748774    0.004130
      5          1           0       -1.315627   -0.779533    0.886841
      6          1           0        0.168461    1.470105   -0.002246
      7          8           0        1.252700   -0.263470   -0.000539
 ---------------------------------------------------------------------

 SCF Done:  E(RM062X) =  -153.745213160     A.U. after   14 cycles

 The electronic state is 1-A.
 Alpha  occ. eigenvalues --  -19.64706 -10.64119 -10.55449  -1.16985  -0.84593
 Alpha  occ. eigenvalues --   -0.67158  -0.55239  -0.51088  -0.50741  -0.46727
 Alpha  occ. eigenvalues --   -0.42921  -0.32434
 Alpha virt. eigenvalues --    0.02255   0.14358   0.17320   0.21883   0.23277
 Alpha virt. eigenvalues --    0.29331   0.30834   0.57211   0.59795   0.61781
 Alpha virt. eigenvalues --    0.65529   0.72747   0.76652   0.84565   0.90626

 Mulliken charges:
               1
     1  H    0.205518
     2  C   -0.558972
     3  C    0.241752
     4  H    0.161770
     5  H    0.204779
     6  H    0.134002
     7  O   -0.388850
 Sum of Mulliken charges =  -0.00000

 Dipole moment (field-independent basis, Debye):
    X=             -2.3398    Y=              0.9731    Z=              0.0034  Tot=              2.5341
 Quadrupole moment (field-independent basis, Debye-Ang):
   XX=            -21.2144   YY=            -17.5045   ZZ=            -17.6225
   XY=              0.8664   XZ=              0.0225   YZ=              0.0043

 Normal termination of Gaussian 16 at Fri Sep 22 17:02:11 2023.
