 Gaussian 16, Revision A.03,
 Gaussian 16:  ES64L-G16RevA.03 25-Dec-2016

 -------------------------
 #m062x/6-31g(d) scf=tight
 -------------------------

 -----------------------
 tmpdir/M2_conf_0_50.gjf
 -----------------------
 Symbolic Z-matrix:
 Charge =  0 Multiplicity = 1

                         Standard orientation:
 ---------------------------------------------------------------------
 Center     Atomic      Atomic             Coordinates (Angstroms)
 Number     Number       Type             X           Y           Z
 ---------------------------------------------------------------------
      1          6           0        0.000000    0.566281   -0.000000
      2          6           0        0.897185   -0.647659   -0.000000
      3          8           0       -1.131468    0.214803    0.000000
      4          1           0        0.363921    1.586413   -0.000000
      5          1           0        0.192552   -1.476390    0.000000
      6          1           0        1.556080   -0.670091    0.879040
      7          1           0        1.556080   -0.670091   -0.879040
 ---------------------------------------------------------------------

 SCF Done:  E(RM062X) =  -153.738477530     A.U. after   14 cycles

 The electronic state is 1-A'.
 Alpha  occ. eigenvalues --  -19.63754 -10.63502 -10.54243  -1.18578  -0.83144
 Alpha  occ. eigenvalues --   -0.67587  -0.56293  -0.51089  -0.50246  -0.46037
 Alpha  occ. eigenvalues --   -0.42714  -0.31943
 Alpha virt. eigenvalues --    0.03576   0.16866   0.17944   0.20853   0.20962
 Alpha virt. eigenvalues --    0.27425   0.34797   0.57796   0.58841   0.64504
 Alpha virt. eigenvalues --    0.65602   0.73175   0.78170   0.82034   0.91424

 Mulliken charges:
               1
     1  C    0.254979
     2  C   -0.572266
     3  O   -0.383605
     4  H    0.144985
     5  H    0.207266
     6  H    0.174321
     7  H    0.174321
 Sum of Mulliken charges =   0.00000

 Dipole moment (field-independent basis, Debye):
    X=              2.3200    Y=              0.4587    Z=             -0.0000  Tot=              2.3649
 Quadrupole moment (field-independent basis, Debye-Ang):
   XX=            -20.7208   YY=            -17.0835   ZZ=            -17.7157
   XY=              0.7711   XZ=             -0.0000   YZ=              0.0000

 Normal termination of Gaussian 16 at Fri Sep 22 17:02:32 2023.
