 Gaussian 16, Revision A.03,
 Gaussian 16:  ES64L-G16RevA.03 25-Dec-2016

 -------------------------
 #m062x/6-31g(d) scf=tight
 -------------------------

 -----------------------
 tmpdir/M2_conf_0_35.gjf
 -----------------------
 Symbolic Z-matrix:
 Charge =  0 Multiplicity = 1

                         Standard orientation:
 ---------------------------------------------------------------------
 Center     Atomic      Atomic             Coordinates (Angstroms)
 Number     Number       Type             X           Y           Z
 ---------------------------------------------------------------------
      1          6           0        0.009372    0.524732   -0.000000
      2          1           0        0.869970    1.183184   -0.000000
      3          8           0        0.009372   -0.652865    0.000000
      4          1           0       -1.001180    0.891344    0.000000
 ---------------------------------------------------------------------

 SCF Done:  E(RM062X) =  -114.437204867     A.U. after   13 cycles

 The electronic state is 1-A'.
 Alpha  occ. eigenvalues --  -19.65266 -10.63528  -1.19562  -0.72082  -0.59144
 Alpha  occ. eigenvalues --   -0.52714  -0.47440  -0.33231
 Alpha virt. eigenvalues --    0.02372   0.15953   0.23146   0.28129   0.56726
 Alpha virt. eigenvalues --    0.65362   0.70263   0.79148   0.89969   0.96103
 Alpha virt. eigenvalues --    0.97168   1.04865   1.13607   1.44643   1.54925

 Mulliken charges:
               1
     1  C    0.070606
     2  H    0.140596
     3  O   -0.339438
     4  H    0.128236
 Sum of Mulliken charges =  -0.00000

 Dipole moment (field-independent basis, Debye):
    X=              0.0342    Y=              2.1999    Z=             -0.0000  Tot=              2.2002
 Quadrupole moment (field-independent basis, Debye-Ang):
   XX=            -11.3149   YY=            -11.9671   ZZ=            -11.3563
   XY=              0.3046   XZ=             -0.0000   YZ=             -0.0000

 Normal termination of Gaussian 16 at Fri Sep 22 17:02:23 2023.
