 Gaussian 16, Revision A.03,
 Gaussian 16:  ES64L-G16RevA.03 25-Dec-2016

 -------------------------
 #m062x/6-31g(d) scf=tight
 -------------------------

 -----------------------
 tmpdir/M2_conf_0_31.gjf
 -----------------------
 Symbolic Z-matrix:
 Charge =  0 Multiplicity = 1

                         Standard orientation:
 ---------------------------------------------------------------------
 Center     Atomic      Atomic             Coordinates (Angstroms)
 Number     Number       Type             X           Y           Z
 ---------------------------------------------------------------------
      1          6           0        0.007116    0.522741    0.000000
      2          1           0        0.896880    1.145759    0.000000
      3          1           0       -0.996508    0.956635    0.000000
      4          8           0        0.007116   -0.654855    0.000000
 ---------------------------------------------------------------------

 SCF Done:  E(RM062X) =  -114.441144864     A.U. after   13 cycles

 The electronic state is 1-A'.
 Alpha  occ. eigenvalues --  -19.65412 -10.63779  -1.19579  -0.71931  -0.58803
 Alpha  occ. eigenvalues --   -0.52817  -0.47496  -0.33401
 Alpha virt. eigenvalues --    0.02326   0.15649   0.23588   0.27570   0.56662
 Alpha virt. eigenvalues --    0.65916   0.70112   0.79449   0.90196   0.93899
 Alpha virt. eigenvalues --    0.96347   1.04799   1.13837   1.44334   1.54987

 Mulliken charges:
               1
     1  C    0.070204
     2  H    0.138325
     3  H    0.126311
     4  O   -0.334840
 Sum of Mulliken charges =  -0.00000

 Dipole moment (field-independent basis, Debye):
    X=              0.0383    Y=              2.1881    Z=              0.0000  Tot=              2.1885
 Quadrupole moment (field-independent basis, Debye-Ang):
   XX=            -11.3323   YY=            -11.9894   ZZ=            -11.3775
   XY=              0.2171   XZ=              0.0000   YZ=              0.0000

 Normal termination of Gaussian 16 at Fri Sep 22 17:02:13 2023.
