 Gaussian 16, Revision A.03,
 Gaussian 16:  ES64L-G16RevA.03 25-Dec-2016

 -------------------------
 #m062x/6-31g(d) scf=tight
 -------------------------

 -----------------------
 tmpdir/M2_conf_0_12.gjf
 -----------------------
 Symbolic Z-matrix:
 Charge =  0 Multiplicity = 1

                         Standard orientation:
 ---------------------------------------------------------------------
 Center     Atomic      Atomic             Coordinates (Angstroms)
 Number     Number       Type             X           Y           Z
 ---------------------------------------------------------------------
      1          6           0       -0.002156    0.000972   -0.010387
      2          1           0       -0.627573   -0.860359   -0.255059
      3          1           0        0.911709    0.071055   -0.640414
      4          1           0       -0.636859    0.888952   -0.073258
      5          1           0        0.365659   -0.105479    1.031052
 ---------------------------------------------------------------------

 SCF Done:  E(RM062X) =  -40.4805460812     A.U. after   10 cycles

 The electronic state is 1-A.
 Alpha  occ. eigenvalues --  -10.52742  -0.77843  -0.46170  -0.44885  -0.44036
 Alpha virt. eigenvalues --    0.16487   0.21581   0.22283   0.22743   0.58001
 Alpha virt. eigenvalues --    0.58424   0.59468   0.94669   0.96373   0.97232
 Alpha virt. eigenvalues --    1.01532   1.13328   1.71686   1.71865   2.26654

 Mulliken charges:
               1
     1  C   -0.670874
     2  H    0.170412
     3  H    0.166997
     4  H    0.170134
     5  H    0.163330
 Sum of Mulliken charges =  -0.00000

 Dipole moment (field-independent basis, Debye):
    X=             -0.0107    Y=             -0.0039    Z=              0.0320  Tot=              0.0340
 Quadrupole moment (field-independent basis, Debye-Ang):
   XX=             -8.0835   YY=             -8.3781   ZZ=             -8.4557
   XY=              0.0013   XZ=             -0.0013   YZ=              0.0081

 Normal termination of Gaussian 16 at Fri Sep 22 17:02:00 2023.
