 Gaussian 16, Revision A.03,
 Gaussian 16:  ES64L-G16RevA.03 25-Dec-2016

 -------------------------
 #m062x/6-31g(d) scf=tight
 -------------------------

 -----------------------
 tmpdir/M2_conf_0_51.gjf
 -----------------------
 Symbolic Z-matrix:
 Charge =  0 Multiplicity = 1

                         Standard orientation:
 ---------------------------------------------------------------------
 Center     Atomic      Atomic             Coordinates (Angstroms)
 Number     Number       Type             X           Y           Z
 ---------------------------------------------------------------------
      1          6           0        0.015902    0.669514    0.000000
      2          6           0        0.015902   -0.674286    0.000000
      3          1           0        0.920233   -1.270356    0.000000
      4          1           0       -0.989228    1.019734   -0.000000
      5          1           0        0.889493    1.311464    0.000000
      6          1           0       -1.011328   -1.032206   -0.000000
 ---------------------------------------------------------------------

 SCF Done:  E(RM062X) =  -78.5271601893     A.U. after   12 cycles

 The electronic state is 1-A'.
 Alpha  occ. eigenvalues --  -10.54194 -10.53899  -0.85438  -0.64878  -0.55200
 Alpha  occ. eigenvalues --   -0.45620  -0.42048  -0.32221
 Alpha virt. eigenvalues --    0.06159   0.15417   0.19698   0.21634   0.29966
 Alpha virt. eigenvalues --    0.35596   0.52452   0.60714   0.63814   0.69959
 Alpha virt. eigenvalues --    0.71898   0.75718   0.92019   0.95609   0.98256

 Mulliken charges:
               1
     1  C   -0.324411
     2  C   -0.329869
     3  H    0.169044
     4  H    0.157279
     5  H    0.169158
     6  H    0.158799
 Sum of Mulliken charges =  -0.00000

 Dipole moment (field-independent basis, Debye):
    X=             -0.0165    Y=              0.0206    Z=              0.0000  Tot=              0.0264
 Quadrupole moment (field-independent basis, Debye-Ang):
   XX=            -11.7046   YY=            -12.5305   ZZ=            -15.2003
   XY=              0.0364   XZ=              0.0000   YZ=             -0.0000

 Normal termination of Gaussian 16 at Fri Sep 22 17:02:29 2023.
