 Gaussian 16, Revision A.03,
 Gaussian 16:  ES64L-G16RevA.03 25-Dec-2016

 -------------------------
 #m062x/6-31g(d) scf=tight
 -------------------------

 -----------------------
 tmpdir/M2_conf_0_26.gjf
 -----------------------
 Symbolic Z-matrix:
 Charge =  0 Multiplicity = 1

                         Standard orientation:
 ---------------------------------------------------------------------
 Center     Atomic      Atomic             Coordinates (Angstroms)
 Number     Number       Type             X           Y           Z
 ---------------------------------------------------------------------
      1          6           0        0.763562   -0.011812    0.002954
      2          6           0       -0.772816   -0.004061   -0.000089
      3          1           0       -1.158337   -0.591088   -0.840989
      4          1           0        1.192357   -0.578139   -0.828139
      5          1           0        1.189694   -0.417974    0.924236
      6          1           0        1.063595    1.052058   -0.093824
      7          1           0       -1.033473    1.053390   -0.096953
      8          1           0       -1.198315   -0.423012    0.918478
 ---------------------------------------------------------------------

 SCF Done:  E(RM062X) =  -79.7637196867     A.U. after   11 cycles

 The electronic state is 1-A.
 Alpha  occ. eigenvalues --  -10.52910 -10.52875  -0.84373  -0.69186  -0.50755
 Alpha  occ. eigenvalues --   -0.49715  -0.41396  -0.39816  -0.39695
 Alpha virt. eigenvalues --    0.14512   0.17860   0.17979   0.20881   0.28126
 Alpha virt. eigenvalues --    0.28795   0.29491   0.56182   0.57900   0.59706
 Alpha virt. eigenvalues --    0.71206   0.73312   0.74470   0.92173   0.92417

 Mulliken charges:
               1
     1  C   -0.487446
     2  C   -0.482328
     3  H    0.163009
     4  H    0.163158
     5  H    0.163154
     6  H    0.155166
     7  H    0.161732
     8  H    0.163555
 Sum of Mulliken charges =  -0.00000

 Dipole moment (field-independent basis, Debye):
    X=              0.0034    Y=              0.0016    Z=             -0.0015  Tot=              0.0041
 Quadrupole moment (field-independent basis, Debye-Ang):
   XX=            -15.6327   YY=            -14.5523   ZZ=            -14.7175
   XY=              0.0078   XZ=             -0.0406   YZ=              0.0035

 Normal termination of Gaussian 16 at Fri Sep 22 17:02:27 2023.
