 Gaussian 16, Revision A.03,
 Gaussian 16:  ES64L-G16RevA.03 25-Dec-2016

 -------------------------
 #m062x/6-31g(d) scf=tight
 -------------------------

 -----------------------
 tmpdir/M2_conf_0_36.gjf
 -----------------------
 Symbolic Z-matrix:
 Charge =  0 Multiplicity = 1

                         Standard orientation:
 ---------------------------------------------------------------------
 Center     Atomic      Atomic             Coordinates (Angstroms)
 Number     Number       Type             X           Y           Z
 ---------------------------------------------------------------------
      1          6           0       -0.652932    0.489207    0.000012
      2          6           0        0.575125   -0.333384   -0.000020
      3          6           0       -1.730032   -0.300690   -0.000017
      4          1           0       -0.630717    1.572077    0.000052
      5          1           0        0.257840   -1.396657    0.000131
      6          6           0        1.869985    0.115631   -0.000005
 ---------------------------------------------------------------------

 SCF Done:  E(RM062X) =  -153.241938830     A.U. after   15 cycles

 The electronic state is 1-A.
 Alpha  occ. eigenvalues --  -10.63793 -10.63618 -10.59555 -10.59079  -0.94451
 Alpha  occ. eigenvalues --   -0.82897  -0.64482  -0.62360  -0.50464  -0.42198
 Alpha  occ. eigenvalues --   -0.38434  -0.36662  -0.30568
 Alpha virt. eigenvalues --   -0.07557  -0.05786   0.00586   0.09829   0.15569
 Alpha virt. eigenvalues --    0.20808   0.28680   0.38545   0.38638   0.53351
 Alpha virt. eigenvalues --    0.55375   0.56507   0.58528   0.61284   0.64397

 Mulliken charges:
               1
     1  C   -0.203558
     2  C   -0.301931
     3  C    0.002778
     4  H    0.239024
     5  H    0.238644
     6  C    0.025043
 Sum of Mulliken charges =  -0.00000

 Dipole moment (field-independent basis, Debye):
    X=             -0.5090    Y=              0.5622    Z=              0.0002  Tot=              0.7584
 Quadrupole moment (field-independent basis, Debye-Ang):
   XX=            -31.1068   YY=            -19.5123   ZZ=            -25.5346
   XY=             -3.8713   XZ=             -0.0000   YZ=             -0.0002

 Normal termination of Gaussian 16 at Fri Sep 22 17:02:24 2023.
