 Gaussian 16, Revision A.03,
 Gaussian 16:  ES64L-G16RevA.03 25-Dec-2016

 -------------------------
 #m062x/6-31g(d) scf=tight
 -------------------------

 -----------------------
 tmpdir/M2_conf_0_49.gjf
 -----------------------
 Symbolic Z-matrix:
 Charge =  0 Multiplicity = 1

                         Standard orientation:
 ---------------------------------------------------------------------
 Center     Atomic      Atomic             Coordinates (Angstroms)
 Number     Number       Type             X           Y           Z
 ---------------------------------------------------------------------
      1          6           0        0.009921    0.529295   -0.000000
      2          1           0        0.878363    1.180871   -0.000000
      3          8           0        0.009921   -0.655503    0.000000
      4          1           0       -1.017254    0.887389   -0.000000
 ---------------------------------------------------------------------

 SCF Done:  E(RM062X) =  -114.437719182     A.U. after   13 cycles

 The electronic state is 1-A'.
 Alpha  occ. eigenvalues --  -19.65285 -10.63753  -1.19135  -0.71917  -0.58978
 Alpha  occ. eigenvalues --   -0.52484  -0.47164  -0.33235
 Alpha virt. eigenvalues --    0.02170   0.15576   0.22914   0.28035   0.56745
 Alpha virt. eigenvalues --    0.65028   0.70932   0.78124   0.90048   0.95933
 Alpha virt. eigenvalues --    0.96248   1.04872   1.13685   1.44385   1.55183

 Mulliken charges:
               1
     1  C    0.068415
     2  H    0.144118
     3  O   -0.342599
     4  H    0.130066
 Sum of Mulliken charges =  -0.00000

 Dipole moment (field-independent basis, Debye):
    X=              0.0423    Y=              2.2216    Z=             -0.0000  Tot=              2.2220
 Quadrupole moment (field-independent basis, Debye-Ang):
   XX=            -11.2841   YY=            -11.9863   ZZ=            -11.3961
   XY=              0.3268   XZ=             -0.0000   YZ=             -0.0000

 Normal termination of Gaussian 16 at Fri Sep 22 17:02:29 2023.
