 Gaussian 16, Revision A.03,
 Gaussian 16:  ES64L-G16RevA.03 25-Dec-2016

 -------------------------
 #m062x/6-31g(d) scf=tight
 -------------------------

 -----------------------
 tmpdir/M2_conf_0_25.gjf
 -----------------------
 Symbolic Z-matrix:
 Charge =  0 Multiplicity = 1

                         Standard orientation:
 ---------------------------------------------------------------------
 Center     Atomic      Atomic             Coordinates (Angstroms)
 Number     Number       Type             X           Y           Z
 ---------------------------------------------------------------------
      1          6           0        0.766024   -0.013284    0.000568
      2          6           0       -0.770346   -0.003764    0.000008
      3          1           0       -1.202462   -0.487288    0.883087
      4          1           0        1.193227   -0.517298   -0.870513
      5          1           0        1.192775   -0.486783    0.888823
      6          1           0        1.067123    1.054522   -0.017782
      7          1           0       -1.029944    1.058213   -0.018381
      8          1           0       -1.194791   -0.519074   -0.868691
 ---------------------------------------------------------------------

 SCF Done:  E(RM062X) =  -79.7639187945     A.U. after   11 cycles

 The electronic state is 1-A.
 Alpha  occ. eigenvalues --  -10.52962 -10.52880  -0.84335  -0.69297  -0.50728
 Alpha  occ. eigenvalues --   -0.49555  -0.41571  -0.39773  -0.39697
 Alpha virt. eigenvalues --    0.14570   0.17915   0.17985   0.20767   0.28169
 Alpha virt. eigenvalues --    0.28745   0.29550   0.56240   0.57725   0.59718
 Alpha virt. eigenvalues --    0.71337   0.73288   0.74763   0.92151   0.92393

 Mulliken charges:
               1
     1  C   -0.486625
     2  C   -0.484174
     3  H    0.163184
     4  H    0.163759
     5  H    0.163751
     6  H    0.155746
     7  H    0.161290
     8  H    0.163069
 Sum of Mulliken charges =  -0.00000

 Dipole moment (field-independent basis, Debye):
    X=             -0.0011    Y=              0.0030    Z=             -0.0004  Tot=              0.0032
 Quadrupole moment (field-independent basis, Debye-Ang):
   XX=            -15.5366   YY=            -14.5675   ZZ=            -14.7570
   XY=              0.0373   XZ=             -0.0079   YZ=              0.0006

 Normal termination of Gaussian 16 at Fri Sep 22 17:02:22 2023.
