 Gaussian 16, Revision A.03,
 Gaussian 16:  ES64L-G16RevA.03 25-Dec-2016

 -------------------------
 #m062x/6-31g(d) scf=tight
 -------------------------

 -----------------------
 tmpdir/M2_conf_0_10.gjf
 -----------------------
 Symbolic Z-matrix:
 Charge =  0 Multiplicity = 1

                         Standard orientation:
 ---------------------------------------------------------------------
 Center     Atomic      Atomic             Coordinates (Angstroms)
 Number     Number       Type             X           Y           Z
 ---------------------------------------------------------------------
      1          1           0        0.902350   -1.298583    0.000000
      2          6           0        0.017138   -0.672746    0.000000
      3          6           0        0.017138    0.671057    0.000000
      4          1           0       -0.981411   -1.041325    0.000000
      5          1           0        0.883502    1.321066    0.000000
      6          1           0       -1.010094    1.028978    0.000000
 ---------------------------------------------------------------------

 SCF Done:  E(RM062X) =  -78.5284843795     A.U. after   12 cycles

 The electronic state is 1-A'.
 Alpha  occ. eigenvalues --  -10.54220 -10.53991  -0.85372  -0.65077  -0.54934
 Alpha  occ. eigenvalues --   -0.46018  -0.41883  -0.32230
 Alpha virt. eigenvalues --    0.06120   0.15677   0.19683   0.21496   0.29969
 Alpha virt. eigenvalues --    0.35884   0.52560   0.60707   0.63386   0.69919
 Alpha virt. eigenvalues --    0.71672   0.75339   0.91856   0.95582   0.98822

 Mulliken charges:
               1
     1  H    0.168396
     2  C   -0.326061
     3  C   -0.327234
     4  H    0.159794
     5  H    0.170020
     6  H    0.155085
 Sum of Mulliken charges =  -0.00000

 Dipole moment (field-independent basis, Debye):
    X=             -0.0222    Y=             -0.0006    Z=              0.0000  Tot=              0.0222
 Quadrupole moment (field-independent basis, Debye-Ang):
   XX=            -11.7953   YY=            -12.3998   ZZ=            -15.1955
   XY=              0.0549   XZ=              0.0000   YZ=             -0.0000

 Normal termination of Gaussian 16 at Fri Sep 22 17:02:05 2023.
