 Gaussian 16, Revision A.03,
 Gaussian 16:  ES64L-G16RevA.03 25-Dec-2016

 -------------------------
 #m062x/6-31g(d) scf=tight
 -------------------------

 -----------------------
 tmpdir/M2_conf_0_13.gjf
 -----------------------
 Symbolic Z-matrix:
 Charge =  0 Multiplicity = 1

                         Standard orientation:
 ---------------------------------------------------------------------
 Center     Atomic      Atomic             Coordinates (Angstroms)
 Number     Number       Type             X           Y           Z
 ---------------------------------------------------------------------
      1          6           0       -0.001919    0.000581   -0.010353
      2          1           0       -0.648878    0.882770   -0.087409
      3          1           0        0.909668    0.069981   -0.643747
      4          1           0       -0.618616   -0.872847   -0.238644
      5          1           0        0.369340   -0.083390    1.031919
 ---------------------------------------------------------------------

 SCF Done:  E(RM062X) =  -40.4805238359     A.U. after   10 cycles

 The electronic state is 1-A.
 Alpha  occ. eigenvalues --  -10.52788  -0.77803  -0.46148  -0.44835  -0.44040
 Alpha virt. eigenvalues --    0.16460   0.21581   0.22210   0.22711   0.58072
 Alpha virt. eigenvalues --    0.58420   0.59498   0.94659   0.96199   0.97178
 Alpha virt. eigenvalues --    1.01341   1.13293   1.71701   1.71881   2.26551

 Mulliken charges:
               1
     1  C   -0.670403
     2  H    0.169466
     3  H    0.167138
     4  H    0.170315
     5  H    0.163485
 Sum of Mulliken charges =   0.00000

 Dipole moment (field-independent basis, Debye):
    X=             -0.0092    Y=             -0.0047    Z=              0.0325  Tot=              0.0341
 Quadrupole moment (field-independent basis, Debye-Ang):
   XX=             -8.0865   YY=             -8.3798   ZZ=             -8.4599
   XY=              0.0039   XZ=             -0.0023   YZ=              0.0069

 Normal termination of Gaussian 16 at Fri Sep 22 17:02:02 2023.
