 Gaussian 16, Revision A.03,
 Gaussian 16:  ES64L-G16RevA.03 25-Dec-2016

 -------------------------
 #m062x/6-31g(d) scf=tight
 -------------------------

 -----------------------
 tmpdir/M2_conf_0_38.gjf
 -----------------------
 Symbolic Z-matrix:
 Charge =  0 Multiplicity = 1

                         Standard orientation:
 ---------------------------------------------------------------------
 Center     Atomic      Atomic             Coordinates (Angstroms)
 Number     Number       Type             X           Y           Z
 ---------------------------------------------------------------------
      1          6           0       -1.682117   -0.202441   -0.000011
      2          6           0       -0.583167    0.556770    0.000010
      3          6           0        0.628184   -0.302223   -0.000016
      4          1           0       -1.468644   -1.274795   -0.000042
      5          1           0       -2.700258    0.175424    0.000001
      6          1           0       -0.530609    1.638594    0.000042
      7          1           0        0.282692   -1.356668    0.000144
      8          8           0        1.779928    0.063101   -0.000006
 ---------------------------------------------------------------------

 SCF Done:  E(RM062X) =  -191.810516579     A.U. after   14 cycles

 The electronic state is 1-A.
 Alpha  occ. eigenvalues --  -19.64250 -10.63971 -10.58016 -10.56970  -1.16738
 Alpha  occ. eigenvalues --   -0.91314  -0.72389  -0.66581  -0.55514  -0.53814
 Alpha  occ. eigenvalues --   -0.49055  -0.47146  -0.46563  -0.35121  -0.32893
 Alpha virt. eigenvalues --   -0.01535   0.10073   0.14004   0.16476   0.22297
 Alpha virt. eigenvalues --    0.22938   0.31648   0.35550   0.39951   0.55762
 Alpha virt. eigenvalues --    0.55984   0.63508   0.64069   0.67071   0.68045

 Mulliken charges:
               1
     1  C   -0.370136
     2  C   -0.125617
     3  C    0.231756
     4  H    0.179554
     5  H    0.192334
     6  H    0.196974
     7  H    0.117034
     8  O   -0.421899
 Sum of Mulliken charges =  -0.00000

 Dipole moment (field-independent basis, Debye):
    X=             -3.1274    Y=             -0.3471    Z=              0.0000  Tot=              3.1466
 Quadrupole moment (field-independent basis, Debye-Ang):
   XX=            -26.6829   YY=            -21.3815   ZZ=            -24.5359
   XY=             -0.4707   XZ=              0.0000   YZ=              0.0001

 Normal termination of Gaussian 16 at Fri Sep 22 17:02:34 2023.
