 Gaussian 16, Revision A.03,
 Gaussian 16:  ES64L-G16RevA.03 25-Dec-2016

 -------------------------
 #m062x/6-31g(d) scf=tight
 -------------------------

 -----------------------
 tmpdir/M2_conf_0_59.gjf
 -----------------------
 Symbolic Z-matrix:
 Charge =  0 Multiplicity = 1

                         Standard orientation:
 ---------------------------------------------------------------------
 Center     Atomic      Atomic             Coordinates (Angstroms)
 Number     Number       Type             X           Y           Z
 ---------------------------------------------------------------------
      1          6           0       -0.258858    0.498272   -0.005283
      2          6           0        1.094152   -0.155508    0.001137
      3          1           0        1.628548    0.181756    0.900039
      4          8           0       -1.096657   -0.339467    0.001161
      5          1           0       -0.411632    1.570503   -0.014380
      6          1           0        0.856280   -1.216944    0.009880
      7          1           0        1.688296    0.123836   -0.879952
 ---------------------------------------------------------------------

 SCF Done:  E(RM062X) =  -153.737531455     A.U. after   14 cycles

 The electronic state is 1-A.
 Alpha  occ. eigenvalues --  -19.63623 -10.63348 -10.54238  -1.18515  -0.83372
 Alpha  occ. eigenvalues --   -0.67485  -0.56128  -0.51452  -0.50028  -0.46201
 Alpha  occ. eigenvalues --   -0.42742  -0.31784
 Alpha virt. eigenvalues --    0.03728   0.16654   0.17968   0.20655   0.21039
 Alpha virt. eigenvalues --    0.27473   0.34703   0.58104   0.59017   0.64092
 Alpha virt. eigenvalues --    0.65344   0.73290   0.78437   0.82058   0.91494

 Mulliken charges:
               1
     1  C    0.252536
     2  C   -0.566293
     3  H    0.172334
     4  O   -0.385311
     5  H    0.143928
     6  H    0.207924
     7  H    0.174883
 Sum of Mulliken charges =  -0.00000

 Dipole moment (field-independent basis, Debye):
    X=              1.8314    Y=              1.4940    Z=             -0.0141  Tot=              2.3635
 Quadrupole moment (field-independent basis, Debye-Ang):
   XX=            -20.7267   YY=            -17.2242   ZZ=            -17.6473
   XY=             -1.0300   XZ=             -0.0374   YZ=              0.0471

 Normal termination of Gaussian 16 at Fri Sep 22 17:02:47 2023.
