 Gaussian 16, Revision A.03,
 Gaussian 16:  ES64L-G16RevA.03 25-Dec-2016

 -------------------------
 #m062x/6-31g(d) scf=tight
 -------------------------

 ----------------------
 tmpdir/M2_conf_0_9.gjf
 ----------------------
 Symbolic Z-matrix:
 Charge =  0 Multiplicity = 1

                         Standard orientation:
 ---------------------------------------------------------------------
 Center     Atomic      Atomic             Coordinates (Angstroms)
 Number     Number       Type             X           Y           Z
 ---------------------------------------------------------------------
      1          6           0       -0.954075   -0.176942    0.000000
      2          6           0        0.000000    0.941774    0.000000
      3          6           0        1.250654    0.450173    0.000000
      4          1           0       -2.032279   -0.064026    0.000000
      5          8           0       -0.355751   -1.199568    0.000000
      6          1           0       -0.281708    1.988633    0.000000
      7          1           0        2.172553    1.018691    0.000000
      8          1           0        1.207969   -0.636788    0.000000
 ---------------------------------------------------------------------

 SCF Done:  E(RM062X) =  -191.777359874     A.U. after   15 cycles

 The electronic state is 1-A'.
 Alpha  occ. eigenvalues --  -19.63387 -10.63692 -10.54845 -10.54541  -1.19621
 Alpha  occ. eigenvalues --   -0.87569  -0.73949  -0.62264  -0.59515  -0.54229
 Alpha  occ. eigenvalues --   -0.48752  -0.47746  -0.41906  -0.32625  -0.32340
 Alpha virt. eigenvalues --   -0.01676   0.12130   0.16670   0.19601   0.21284
 Alpha virt. eigenvalues --    0.26807   0.30129   0.35911   0.39670   0.56379
 Alpha virt. eigenvalues --    0.57021   0.61861   0.63648   0.69709   0.70139

 Mulliken charges:
               1
     1  C    0.249670
     2  C   -0.240224
     3  C   -0.332481
     4  H    0.159900
     5  O   -0.426024
     6  H    0.165519
     7  H    0.168221
     8  H    0.255419
 Sum of Mulliken charges =   0.00000

 Dipole moment (field-independent basis, Debye):
    X=             -0.6201    Y=              1.7902    Z=              0.0000  Tot=              1.8945
 Quadrupole moment (field-independent basis, Debye-Ang):
   XX=            -19.5759   YY=            -25.3913   ZZ=            -24.3779
   XY=             -0.8383   XZ=              0.0000   YZ=              0.0000

 Normal termination of Gaussian 16 at Fri Sep 22 17:02:02 2023.
