 Gaussian 16, Revision A.03,
 Gaussian 16:  ES64L-G16RevA.03 25-Dec-2016

 -------------------------
 #m062x/6-31g(d) scf=tight
 -------------------------

 ----------------------
 tmpdir/M2_conf_0_4.gjf
 ----------------------
 Symbolic Z-matrix:
 Charge =  0 Multiplicity = 1

                         Standard orientation:
 ---------------------------------------------------------------------
 Center     Atomic      Atomic             Coordinates (Angstroms)
 Number     Number       Type             X           Y           Z
 ---------------------------------------------------------------------
      1          6           0       -0.953178   -0.175870    0.000000
      2          6           0        0.000000    0.943609    0.000000
      3          6           0        1.248547    0.446681    0.000000
      4          1           0       -2.031473   -0.063818    0.000000
      5          8           0       -0.354035   -1.198017    0.000000
      6          1           0       -0.282547    1.990243    0.000000
      7          1           0        2.172855    1.011266    0.000000
      8          1           0        1.201232   -0.640082    0.000000
 ---------------------------------------------------------------------

 SCF Done:  E(RM062X) =  -191.776365730     A.U. after   15 cycles

 The electronic state is 1-A'.
 Alpha  occ. eigenvalues --  -19.63377 -10.63695 -10.54835 -10.54506  -1.19650
 Alpha  occ. eigenvalues --   -0.87568  -0.73962  -0.62247  -0.59527  -0.54284
 Alpha  occ. eigenvalues --   -0.48771  -0.47715  -0.41878  -0.32594  -0.32326
 Alpha virt. eigenvalues --   -0.01678   0.12127   0.16668   0.19626   0.21289
 Alpha virt. eigenvalues --    0.26847   0.30164   0.35895   0.39657   0.56405
 Alpha virt. eigenvalues --    0.57027   0.61837   0.63653   0.69790   0.70125

 Mulliken charges:
               1
     1  C    0.249983
     2  C   -0.240976
     3  C   -0.332655
     4  H    0.160052
     5  O   -0.426904
     6  H    0.165841
     7  H    0.167688
     8  H    0.256972
 Sum of Mulliken charges =  -0.00000

 Dipole moment (field-independent basis, Debye):
    X=             -0.6277    Y=              1.7834    Z=              0.0000  Tot=              1.8906
 Quadrupole moment (field-independent basis, Debye-Ang):
   XX=            -19.5921   YY=            -25.3856   ZZ=            -24.3761
   XY=             -0.8562   XZ=              0.0000   YZ=             -0.0000

 Normal termination of Gaussian 16 at Fri Sep 22 17:02:06 2023.
