 Gaussian 16, Revision A.03,
 Gaussian 16:  ES64L-G16RevA.03 25-Dec-2016

 -------------------------
 #m062x/6-31g(d) scf=tight
 -------------------------

 -----------------------
 tmpdir/M2_conf_0_52.gjf
 -----------------------
 Symbolic Z-matrix:
 Charge =  0 Multiplicity = 1

                         Standard orientation:
 ---------------------------------------------------------------------
 Center     Atomic      Atomic             Coordinates (Angstroms)
 Number     Number       Type             X           Y           Z
 ---------------------------------------------------------------------
      1          6           0       -1.187810   -0.002511   -0.000000
      2          6           0        0.000000    0.625905    0.000000
      3          6           0        1.047092   -0.451917    0.000000
      4          1           0       -1.027335   -1.054742   -0.000000
      5          1           0       -2.163768    0.469469   -0.000000
      6          1           0        0.169406    1.695677    0.000000
      7          1           0        0.459917   -1.367632   -0.000000
      8          1           0        1.703043   -0.385814    0.879040
      9          1           0        1.703043   -0.385814   -0.879040
 ---------------------------------------------------------------------

 SCF Done:  E(RM062X) =  -117.807269850     A.U. after   13 cycles

 The electronic state is 1-A'.
 Alpha  occ. eigenvalues --  -10.54624 -10.53349 -10.52921  -0.89604  -0.75130
 Alpha  occ. eigenvalues --   -0.64167  -0.54872  -0.47163  -0.45245  -0.44051
 Alpha  occ. eigenvalues --   -0.39917  -0.30363
 Alpha virt. eigenvalues --    0.06642   0.15798   0.18022   0.20235   0.22113
 Alpha virt. eigenvalues --    0.23186   0.26764   0.33851   0.41807   0.53580
 Alpha virt. eigenvalues --    0.58369   0.62796   0.66421   0.67716   0.71778

 Mulliken charges:
               1
     1  C   -0.373048
     2  C   -0.079419
     3  C   -0.515360
     4  H    0.150879
     5  H    0.157595
     6  H    0.168942
     7  H    0.162048
     8  H    0.164181
     9  H    0.164181
 Sum of Mulliken charges =  -0.00000

 Dipole moment (field-independent basis, Debye):
    X=              0.2403    Y=              0.1346    Z=              0.0000  Tot=              0.2754
 Quadrupole moment (field-independent basis, Debye-Ang):
   XX=            -19.4405   YY=            -18.6168   ZZ=            -21.4864
   XY=              0.2919   XZ=              0.0000   YZ=             -0.0000

 Normal termination of Gaussian 16 at Fri Sep 22 17:02:34 2023.
