 Gaussian 16, Revision A.03,
 Gaussian 16:  ES64L-G16RevA.03 25-Dec-2016

 -------------------------
 #m062x/6-31g(d) scf=tight
 -------------------------

 -----------------------
 tmpdir/M2_conf_0_40.gjf
 -----------------------
 Symbolic Z-matrix:
 Charge =  0 Multiplicity = 1

                         Standard orientation:
 ---------------------------------------------------------------------
 Center     Atomic      Atomic             Coordinates (Angstroms)
 Number     Number       Type             X           Y           Z
 ---------------------------------------------------------------------
      1          6           0        0.524906   -0.006656   -0.000021
      2          8           0       -0.686959    0.002554    0.000006
      3          1           0        1.180011    0.888912    0.000040
      4          1           0        1.166218   -0.869414    0.000042
 ---------------------------------------------------------------------

 SCF Done:  E(RM062X) =  -114.442646418     A.U. after   13 cycles

 The electronic state is 1-A.
 Alpha  occ. eigenvalues --  -19.66499 -10.64744  -1.17905  -0.73666  -0.56547
 Alpha  occ. eigenvalues --   -0.53420  -0.46614  -0.34065
 Alpha virt. eigenvalues --    0.00931   0.15671   0.23864   0.26177   0.56692
 Alpha virt. eigenvalues --    0.64900   0.69603   0.77557   0.88045   0.91034
 Alpha virt. eigenvalues --    0.97849   1.04359   1.12729   1.42825   1.56248

 Mulliken charges:
               1
     1  C    0.076913
     2  O   -0.348397
     3  H    0.129388
     4  H    0.142096
 Sum of Mulliken charges =  -0.00000

 Dipole moment (field-independent basis, Debye):
    X=              2.3390    Y=             -0.0599    Z=             -0.0000  Tot=              2.3398
 Quadrupole moment (field-independent basis, Debye-Ang):
   XX=            -11.6482   YY=            -11.7233   ZZ=            -11.4439
   XY=             -0.0565   XZ=              0.0000   YZ=              0.0000

 Normal termination of Gaussian 16 at Fri Sep 22 17:02:26 2023.
