 Gaussian 16, Revision A.03,
 Gaussian 16:  ES64L-G16RevA.03 25-Dec-2016

 -------------------------
 #m062x/6-31g(d) scf=tight
 -------------------------

 -----------------------
 tmpdir/M2_conf_0_18.gjf
 -----------------------
 Symbolic Z-matrix:
 Charge =  0 Multiplicity = 1

                         Standard orientation:
 ---------------------------------------------------------------------
 Center     Atomic      Atomic             Coordinates (Angstroms)
 Number     Number       Type             X           Y           Z
 ---------------------------------------------------------------------
      1          1           0       -0.641225   -0.880500   -0.127431
      2          6           0       -0.002550   -0.000879   -0.010532
      3          1           0       -0.617165    0.880993   -0.210154
      4          1           0        0.915565   -0.040555   -0.637019
      5          1           0        0.358123    0.045338    1.037796
 ---------------------------------------------------------------------

 SCF Done:  E(RM062X) =  -40.4806018818     A.U. after   10 cycles

 The electronic state is 1-A.
 Alpha  occ. eigenvalues --  -10.52753  -0.77832  -0.46110  -0.44933  -0.44034
 Alpha virt. eigenvalues --    0.16482   0.21586   0.22290   0.22710   0.58046
 Alpha virt. eigenvalues --    0.58421   0.59430   0.94670   0.96393   0.97169
 Alpha virt. eigenvalues --    1.01477   1.13358   1.71658   1.71851   2.26698

 Mulliken charges:
               1
     1  H    0.170335
     2  C   -0.670727
     3  H    0.170171
     4  H    0.166927
     5  H    0.163294
 Sum of Mulliken charges =  -0.00000

 Dipole moment (field-independent basis, Debye):
    X=             -0.0088    Y=              0.0031    Z=              0.0328  Tot=              0.0341
 Quadrupole moment (field-independent basis, Debye-Ang):
   XX=             -8.0941   YY=             -8.3663   ZZ=             -8.4589
   XY=              0.0009   XZ=             -0.0012   YZ=             -0.0033

 Normal termination of Gaussian 16 at Fri Sep 22 17:02:06 2023.
