 Gaussian 16, Revision A.03,
 Gaussian 16:  ES64L-G16RevA.03 25-Dec-2016

 -------------------------
 #m062x/6-31g(d) scf=tight
 -------------------------

 -----------------------
 tmpdir/M2_conf_0_43.gjf
 -----------------------
 Symbolic Z-matrix:
 Charge =  0 Multiplicity = 1

                         Standard orientation:
 ---------------------------------------------------------------------
 Center     Atomic      Atomic             Coordinates (Angstroms)
 Number     Number       Type             X           Y           Z
 ---------------------------------------------------------------------
      1          6           0       -0.670879    0.477548    0.000037
      2          6           0        0.583148   -0.317839   -0.000027
      3          8           0        1.716516    0.101058    0.000001
      4          8           0       -1.602817   -0.242331   -0.000014
      5          1           0       -0.675691    1.560635   -0.000042
      6          1           0        0.292493   -1.388699    0.000085
 ---------------------------------------------------------------------

 SCF Done:  E(RM062X) =  -227.713365424     A.U. after   14 cycles

 The electronic state is 1-A.
 Alpha  occ. eigenvalues --  -19.68503 -19.67737 -10.66045 -10.65576  -1.23423
 Alpha  occ. eigenvalues --   -1.19492  -0.80575  -0.69685  -0.58446  -0.57366
 Alpha  occ. eigenvalues --   -0.53693  -0.53114  -0.46091  -0.40358  -0.33674
 Alpha virt. eigenvalues --   -0.05659   0.08411   0.15744   0.20071   0.24211
 Alpha virt. eigenvalues --    0.31992   0.38337   0.54230   0.59277   0.61425
 Alpha virt. eigenvalues --    0.67147   0.73398   0.78126   0.83593   0.86960

 Mulliken charges:
               1
     1  C    0.198559
     2  C    0.172403
     3  O   -0.369321
     4  O   -0.348052
     5  H    0.181328
     6  H    0.165083
 Sum of Mulliken charges =  -0.00000

 Dipole moment (field-independent basis, Debye):
    X=             -0.5905    Y=              0.6725    Z=              0.0000  Tot=              0.8950
 Quadrupole moment (field-independent basis, Debye-Ang):
   XX=            -30.0483   YY=            -20.0510   ZZ=            -20.8738
   XY=             -2.0939   XZ=             -0.0001   YZ=             -0.0001

 Normal termination of Gaussian 16 at Fri Sep 22 17:02:29 2023.
