 Gaussian 16, Revision A.03,
 Gaussian 16:  ES64L-G16RevA.03 25-Dec-2016

 -------------------------
 #m062x/6-31g(d) scf=tight
 -------------------------

 -----------------------
 tmpdir/M2_conf_0_48.gjf
 -----------------------
 Symbolic Z-matrix:
 Charge =  0 Multiplicity = 1

                         Standard orientation:
 ---------------------------------------------------------------------
 Center     Atomic      Atomic             Coordinates (Angstroms)
 Number     Number       Type             X           Y           Z
 ---------------------------------------------------------------------
      1          1           0       -0.356512    1.588804    0.000000
      2          6           0        0.000000    0.566061    0.000000
      3          6           0       -0.895571   -0.640606    0.000000
      4          8           0        1.128947    0.206581    0.000000
      5          1           0       -0.192606   -1.470760    0.000000
      6          1           0       -1.554515   -0.661709    0.879040
      7          1           0       -1.554515   -0.661709   -0.879040
 ---------------------------------------------------------------------

 SCF Done:  E(RM062X) =  -153.737686213     A.U. after   14 cycles

 The electronic state is 1-A'.
 Alpha  occ. eigenvalues --  -19.63687 -10.63436 -10.54194  -1.18582  -0.83245
 Alpha  occ. eigenvalues --   -0.67587  -0.56339  -0.51158  -0.50232  -0.46025
 Alpha  occ. eigenvalues --   -0.42648  -0.31921
 Alpha virt. eigenvalues --    0.03596   0.16878   0.17961   0.20843   0.20984
 Alpha virt. eigenvalues --    0.27507   0.34900   0.57852   0.58821   0.64471
 Alpha virt. eigenvalues --    0.65638   0.73224   0.78278   0.82112   0.91453

 Mulliken charges:
               1
     1  H    0.145009
     2  C    0.255777
     3  C   -0.572186
     4  O   -0.384739
     5  H    0.207909
     6  H    0.174115
     7  H    0.174115
 Sum of Mulliken charges =   0.00000

 Dipole moment (field-independent basis, Debye):
    X=             -2.3188    Y=              0.4724    Z=             -0.0000  Tot=              2.3664
 Quadrupole moment (field-independent basis, Debye-Ang):
   XX=            -20.7296   YY=            -17.0678   ZZ=            -17.7089
   XY=             -0.7579   XZ=              0.0000   YZ=              0.0000

 Normal termination of Gaussian 16 at Fri Sep 22 17:02:27 2023.
