 Gaussian 16, Revision A.03,
 Gaussian 16:  ES64L-G16RevA.03 25-Dec-2016

 -------------------------
 #m062x/6-31g(d) scf=tight
 -------------------------

 -----------------------
 tmpdir/M2_conf_0_57.gjf
 -----------------------
 Symbolic Z-matrix:
 Charge =  0 Multiplicity = 1

                         Standard orientation:
 ---------------------------------------------------------------------
 Center     Atomic      Atomic             Coordinates (Angstroms)
 Number     Number       Type             X           Y           Z
 ---------------------------------------------------------------------
      1          6           0        0.258880    0.498277   -0.005257
      2          6           0       -1.094142   -0.155481    0.001128
      3          1           0       -1.628847    0.181543    0.899948
      4          8           0        1.096664   -0.339477    0.001157
      5          1           0        0.411672    1.570506   -0.014309
      6          1           0       -0.856288   -1.216922    0.009828
      7          1           0       -1.688276    0.123910   -0.879953
 ---------------------------------------------------------------------

 SCF Done:  E(RM062X) =  -153.737537357     A.U. after   14 cycles

 The electronic state is 1-A.
 Alpha  occ. eigenvalues --  -19.63623 -10.63348 -10.54238  -1.18515  -0.83371
 Alpha  occ. eigenvalues --   -0.67486  -0.56129  -0.51450  -0.50029  -0.46200
 Alpha  occ. eigenvalues --   -0.42742  -0.31785
 Alpha virt. eigenvalues --    0.03727   0.16655   0.17968   0.20656   0.21038
 Alpha virt. eigenvalues --    0.27473   0.34704   0.58103   0.59016   0.64095
 Alpha virt. eigenvalues --    0.65345   0.73289   0.78436   0.82058   0.91494

 Mulliken charges:
               1
     1  C    0.252556
     2  C   -0.566324
     3  H    0.172342
     4  O   -0.385308
     5  H    0.143931
     6  H    0.207922
     7  H    0.174880
 Sum of Mulliken charges =  -0.00000

 Dipole moment (field-independent basis, Debye):
    X=             -1.8314    Y=              1.4940    Z=             -0.0140  Tot=              2.3636
 Quadrupole moment (field-independent basis, Debye-Ang):
   XX=            -20.7259   YY=            -17.2243   ZZ=            -17.6476
   XY=              1.0302   XZ=              0.0372   YZ=              0.0469

 Normal termination of Gaussian 16 at Fri Sep 22 17:02:37 2023.
