 Gaussian 16, Revision A.03,
 Gaussian 16:  ES64L-G16RevA.03 25-Dec-2016

 -------------------------
 #m062x/6-31g(d) scf=tight
 -------------------------

 -----------------------
 tmpdir/M2_conf_0_39.gjf
 -----------------------
 Symbolic Z-matrix:
 Charge =  0 Multiplicity = 1

                         Standard orientation:
 ---------------------------------------------------------------------
 Center     Atomic      Atomic             Coordinates (Angstroms)
 Number     Number       Type             X           Y           Z
 ---------------------------------------------------------------------
      1          1           0       -0.638223    1.544883    0.000007
      2          6           0       -0.667585    0.462181   -0.000011
      3          6           0        0.591586   -0.325044   -0.000086
      4          8           0       -1.621890   -0.227772    0.000022
      5          1           0        0.307891   -1.397767    0.000099
      6          8           0        1.720181    0.106529    0.000038
 ---------------------------------------------------------------------

 SCF Done:  E(RM062X) =  -227.715353003     A.U. after   14 cycles

 The electronic state is 1-A.
 Alpha  occ. eigenvalues --  -19.68606 -19.67962 -10.66050 -10.65692  -1.23350
 Alpha  occ. eigenvalues --   -1.19678  -0.80846  -0.69540  -0.58436  -0.57527
 Alpha  occ. eigenvalues --   -0.53758  -0.53113  -0.46239  -0.40589  -0.33694
 Alpha virt. eigenvalues --   -0.05846   0.08514   0.15948   0.20038   0.24118
 Alpha virt. eigenvalues --    0.31962   0.38067   0.54187   0.59540   0.61472
 Alpha virt. eigenvalues --    0.67041   0.73317   0.78215   0.83655   0.86567

 Mulliken charges:
               1
     1  H    0.177496
     2  C    0.200758
     3  C    0.175975
     4  O   -0.348195
     5  H    0.162412
     6  O   -0.368445
 Sum of Mulliken charges =  -0.00000

 Dipole moment (field-independent basis, Debye):
    X=             -0.5106    Y=              0.5838    Z=             -0.0002  Tot=              0.7756
 Quadrupole moment (field-independent basis, Debye-Ang):
   XX=            -30.1068   YY=            -20.1681   ZZ=            -20.8688
   XY=             -2.0054   XZ=             -0.0001   YZ=             -0.0001

 Normal termination of Gaussian 16 at Fri Sep 22 17:02:23 2023.
