 Gaussian 16, Revision A.03,
 Gaussian 16:  ES64L-G16RevA.03 25-Dec-2016

 -------------------------
 #m062x/6-31g(d) scf=tight
 -------------------------

 -----------------------
 tmpdir/M2_conf_0_41.gjf
 -----------------------
 Symbolic Z-matrix:
 Charge =  0 Multiplicity = 1

                         Standard orientation:
 ---------------------------------------------------------------------
 Center     Atomic      Atomic             Coordinates (Angstroms)
 Number     Number       Type             X           Y           Z
 ---------------------------------------------------------------------
      1          6           0       -0.295999    1.358029    0.000029
      2          6           0       -0.542322   -0.154951   -0.000059
      3          6           0        0.789457   -0.811913    0.000038
      4          1           0        0.809816    1.477041   -0.000052
      5          1           0       -0.775586    1.795510   -0.879687
      6          1           0       -0.775514    1.795213    0.879943
      7          8           0       -1.623639   -0.694150   -0.000015
      8          8           0        1.639214    0.003343   -0.000037
      9          1           0        0.909866   -1.888300    0.000163
 ---------------------------------------------------------------------

 SCF Done:  E(RM062X) =  -266.994881609     A.U. after   14 cycles

 The electronic state is 1-A.
 Alpha  occ. eigenvalues --  -19.68232 -19.66059 -10.66062 -10.64956 -10.53449
 Alpha  occ. eigenvalues --   -1.23995  -1.18406  -0.84934  -0.77347  -0.65430
 Alpha  occ. eigenvalues --   -0.58121  -0.57662  -0.54478  -0.50271  -0.48002
 Alpha  occ. eigenvalues --   -0.45568  -0.43172  -0.39396  -0.31327
 Alpha virt. eigenvalues --   -0.05218   0.08814   0.16450   0.17464   0.23001
 Alpha virt. eigenvalues --    0.23661   0.24726   0.29906   0.34874   0.39767
 Alpha virt. eigenvalues --    0.53362   0.60091   0.62661   0.64454   0.67389

 Mulliken charges:
               1
     1  C   -0.599453
     2  C    0.343720
     3  C    0.214684
     4  H    0.249386
     5  H    0.193823
     6  H    0.193825
     7  O   -0.417883
     8  O   -0.362651
     9  H    0.184548
 Sum of Mulliken charges =  -0.00000

 Dipole moment (field-independent basis, Debye):
    X=              0.9904    Y=             -0.2538    Z=              0.0001  Tot=              1.0224
 Quadrupole moment (field-independent basis, Debye-Ang):
   XX=            -35.8258   YY=            -26.6270   ZZ=            -27.1117
   XY=             -3.5365   XZ=             -0.0000   YZ=             -0.0002

 Normal termination of Gaussian 16 at Fri Sep 22 17:02:36 2023.
