 Gaussian 16, Revision A.03,
 Gaussian 16:  ES64L-G16RevA.03 25-Dec-2016

 -------------------------
 #m062x/6-31g(d) scf=tight
 -------------------------

 ----------------------
 tmpdir/M2_conf_0_3.gjf
 ----------------------
 Symbolic Z-matrix:
 Charge =  0 Multiplicity = 1

                         Standard orientation:
 ---------------------------------------------------------------------
 Center     Atomic      Atomic             Coordinates (Angstroms)
 Number     Number       Type             X           Y           Z
 ---------------------------------------------------------------------
      1          6           0       -0.537531   -0.735718   -0.000000
      2          6           0       -0.537531    0.734582    0.000000
      3          1           0       -1.419231    1.365352    0.000000
      4          1           0       -1.431181   -1.349448   -0.000000
      5          8           0        0.581299   -1.125558   -0.000000
      6          8           0        0.581299    1.124422    0.000000
 ---------------------------------------------------------------------

 SCF Done:  E(RM062X) =  -227.690944065     A.U. after   15 cycles

 The electronic state is 1-A'.
 Alpha  occ. eigenvalues --  -19.66324 -19.66227 -10.64669 -10.64560  -1.23678
 Alpha  occ. eigenvalues --   -1.17559  -0.80262  -0.65956  -0.63731  -0.54923
 Alpha  occ. eigenvalues --   -0.52808  -0.52428  -0.44353  -0.36505  -0.34036
 Alpha virt. eigenvalues --   -0.05057   0.09692   0.17329   0.17559   0.23721
 Alpha virt. eigenvalues --    0.33495   0.42597   0.54646   0.55103   0.61323
 Alpha virt. eigenvalues --    0.72305   0.73277   0.78527   0.85826   0.88055

 Mulliken charges:
               1
     1  C    0.170109
     2  C    0.166611
     3  H    0.156891
     4  H    0.156801
     5  O   -0.325455
     6  O   -0.324957
 Sum of Mulliken charges =  -0.00000

 Dipole moment (field-independent basis, Debye):
    X=             -3.7612    Y=             -0.0012    Z=              0.0000  Tot=              3.7612
 Quadrupole moment (field-independent basis, Debye-Ang):
   XX=            -21.0914   YY=            -23.9488   ZZ=            -20.7956
   XY=             -0.0066   XZ=             -0.0000   YZ=             -0.0000

 Normal termination of Gaussian 16 at Fri Sep 22 17:02:01 2023.
