 Gaussian 16, Revision A.03,
 Gaussian 16:  ES64L-G16RevA.03 25-Dec-2016

 -------------------------
 #m062x/6-31g(d) scf=tight
 -------------------------

 -----------------------
 tmpdir/M2_conf_0_55.gjf
 -----------------------
 Symbolic Z-matrix:
 Charge =  0 Multiplicity = 1

                         Standard orientation:
 ---------------------------------------------------------------------
 Center     Atomic      Atomic             Coordinates (Angstroms)
 Number     Number       Type             X           Y           Z
 ---------------------------------------------------------------------
      1          6           0       -0.003813    0.000781    0.000001
      2          1           0       -0.626437    0.896185   -0.000010
      3          1           0        0.671759   -0.023418    0.852246
      4          1           0        0.671779   -0.023424   -0.852236
      5          1           0       -0.694224   -0.854029   -0.000005
 ---------------------------------------------------------------------

 SCF Done:  E(RM062X) =  -40.4804276605     A.U. after   10 cycles

 The electronic state is 1-A.
 Alpha  occ. eigenvalues --  -10.52301  -0.78209  -0.46845  -0.44630  -0.44236
 Alpha virt. eigenvalues --    0.16749   0.22115   0.22181   0.23242   0.57656
 Alpha virt. eigenvalues --    0.58065   0.59433   0.96065   0.96090   0.98669
 Alpha virt. eigenvalues --    1.02832   1.13088   1.71897   1.72059   2.28412

 Mulliken charges:
               1
     1  C   -0.675374
     2  H    0.169684
     3  H    0.169014
     4  H    0.169013
     5  H    0.167663
 Sum of Mulliken charges =  -0.00000

 Dipole moment (field-independent basis, Debye):
    X=              0.0228    Y=              0.0034    Z=              0.0000  Tot=              0.0231
 Quadrupole moment (field-independent basis, Debye-Ang):
   XX=             -7.9908   YY=             -8.3617   ZZ=             -8.4803
   XY=             -0.0106   XZ=              0.0000   YZ=             -0.0000

 Normal termination of Gaussian 16 at Fri Sep 22 17:02:36 2023.
