 Gaussian 16, Revision A.03,
 Gaussian 16:  ES64L-G16RevA.03 25-Dec-2016

 -------------------------
 #m062x/6-31g(d) scf=tight
 -------------------------

 -----------------------
 tmpdir/M2_conf_0_21.gjf
 -----------------------
 Symbolic Z-matrix:
 Charge =  0 Multiplicity = 1

                         Standard orientation:
 ---------------------------------------------------------------------
 Center     Atomic      Atomic             Coordinates (Angstroms)
 Number     Number       Type             X           Y           Z
 ---------------------------------------------------------------------
      1          6           0       -0.907156   -0.684245    0.000000
      2          6           0        0.000000    0.542220    0.000000
      3          1           0       -0.200886   -1.543415    0.000000
      4          1           0       -1.563274   -0.677743    0.877390
      5          1           0       -1.563274   -0.677743   -0.877390
      6          8           0        1.146911    0.275143    0.000000
      7          1           0       -0.404919    1.549911    0.000000
 ---------------------------------------------------------------------

 SCF Done:  E(RM062X) =  -153.743919178     A.U. after   14 cycles

 The electronic state is 1-A'.
 Alpha  occ. eigenvalues --  -19.63931 -10.63536 -10.54731  -1.18869  -0.83144
 Alpha  occ. eigenvalues --   -0.67136  -0.56192  -0.51163  -0.50435  -0.46028
 Alpha  occ. eigenvalues --   -0.43201  -0.32064
 Alpha virt. eigenvalues --    0.03869   0.16430   0.17982   0.20323   0.20750
 Alpha virt. eigenvalues --    0.27982   0.34175   0.57638   0.59258   0.64271
 Alpha virt. eigenvalues --    0.65691   0.73577   0.78147   0.82163   0.91405

 Mulliken charges:
               1
     1  C   -0.570863
     2  C    0.252570
     3  H    0.199546
     4  H    0.178209
     5  H    0.178209
     6  O   -0.374717
     7  H    0.137047
 Sum of Mulliken charges =  -0.00000

 Dipole moment (field-independent basis, Debye):
    X=             -2.3603    Y=              0.2780    Z=              0.0000  Tot=              2.3766
 Quadrupole moment (field-independent basis, Debye-Ang):
   XX=            -20.6347   YY=            -17.3453   ZZ=            -17.7172
   XY=             -0.8860   XZ=              0.0000   YZ=             -0.0000

 Normal termination of Gaussian 16 at Fri Sep 22 17:02:09 2023.
