 Gaussian 16, Revision A.03,
 Gaussian 16:  ES64L-G16RevA.03 25-Dec-2016

 -------------------------
 #m062x/6-31g(d) scf=tight
 -------------------------

 -----------------------
 tmpdir/M2_conf_0_22.gjf
 -----------------------
 Symbolic Z-matrix:
 Charge =  0 Multiplicity = 1

                         Standard orientation:
 ---------------------------------------------------------------------
 Center     Atomic      Atomic             Coordinates (Angstroms)
 Number     Number       Type             X           Y           Z
 ---------------------------------------------------------------------
      1          6           0        0.003916    0.000107   -0.003939
      2          1           0        0.646409    0.879779   -0.106097
      3          1           0       -0.827877   -0.010369   -0.742178
      4          1           0       -0.500790    0.003561    0.966008
      5          1           0        0.658759   -0.873614   -0.094101
 ---------------------------------------------------------------------

 SCF Done:  E(RM062X) =  -40.4804680218     A.U. after   10 cycles

 The electronic state is 1-A.
 Alpha  occ. eigenvalues --  -10.52617  -0.77945  -0.46487  -0.44689  -0.44088
 Alpha virt. eigenvalues --    0.16557   0.21762   0.22144   0.22963   0.58035
 Alpha virt. eigenvalues --    0.58076   0.59627   0.95028   0.96088   0.97944
 Alpha virt. eigenvalues --    1.01770   1.13072   1.71932   1.71944   2.26865

 Mulliken charges:
               1
     1  C   -0.672111
     2  H    0.169597
     3  H    0.165241
     4  H    0.168043
     5  H    0.169230
 Sum of Mulliken charges =  -0.00000

 Dipole moment (field-independent basis, Debye):
    X=             -0.0036    Y=              0.0010    Z=              0.0279  Tot=              0.0281
 Quadrupole moment (field-independent basis, Debye-Ang):
   XX=             -8.0367   YY=             -8.3868   ZZ=             -8.4694
   XY=              0.0016   XZ=             -0.0193   YZ=             -0.0006

 Normal termination of Gaussian 16 at Fri Sep 22 17:02:11 2023.
