 Gaussian 16, Revision A.03,
 Gaussian 16:  ES64L-G16RevA.03 25-Dec-2016

 -------------------------
 #m062x/6-31g(d) scf=tight
 -------------------------

 -----------------------
 tmpdir/M2_conf_0_61.gjf
 -----------------------
 Symbolic Z-matrix:
 Charge =  0 Multiplicity = 1

                         Standard orientation:
 ---------------------------------------------------------------------
 Center     Atomic      Atomic             Coordinates (Angstroms)
 Number     Number       Type             X           Y           Z
 ---------------------------------------------------------------------
      1          1           0       -0.605003    0.924351    0.000000
      2          6           0        0.000000    0.007109    0.000000
      3          1           0        1.061365    0.291464    0.000000
      4          1           0       -0.228181   -0.629233    0.852240
      5          1           0       -0.228181   -0.629233   -0.852240
 ---------------------------------------------------------------------

 SCF Done:  E(RM062X) =  -40.4807433210     A.U. after   10 cycles

 The electronic state is 1-A'.
 Alpha  occ. eigenvalues --  -10.52385  -0.78139  -0.46451  -0.44900  -0.44241
 Alpha virt. eigenvalues --    0.16698   0.22140   0.22217   0.23024   0.57652
 Alpha virt. eigenvalues --    0.58371   0.59178   0.96107   0.96151   0.97874
 Alpha virt. eigenvalues --    1.02856   1.13377   1.71752   1.71812   2.28566

 Mulliken charges:
               1
     1  H    0.168956
     2  C   -0.674452
     3  H    0.167852
     4  H    0.168822
     5  H    0.168822
 Sum of Mulliken charges =   0.00000

 Dipole moment (field-independent basis, Debye):
    X=             -0.0056    Y=             -0.0380    Z=             -0.0000  Tot=              0.0384
 Quadrupole moment (field-independent basis, Debye-Ang):
   XX=             -8.2844   YY=             -8.0710   ZZ=             -8.4930
   XY=              0.0551   XZ=              0.0000   YZ=              0.0000

 Normal termination of Gaussian 16 at Fri Sep 22 17:02:39 2023.
