 Gaussian 16, Revision A.03,
 Gaussian 16:  ES64L-G16RevA.03 25-Dec-2016

 -------------------------
 #m062x/6-31g(d) scf=tight
 -------------------------

 --------------------
 tmpdir/M2_ref_38.gjf
 --------------------
 Symbolic Z-matrix:
 Charge =  0 Multiplicity = 1

                         Standard orientation:
 ---------------------------------------------------------------------
 Center     Atomic      Atomic             Coordinates (Angstroms)
 Number     Number       Type             X           Y           Z
 ---------------------------------------------------------------------
      1          6           0        1.681321   -0.202899    0.000050
      2          6           0        0.583188    0.557491    0.000012
      3          6           0       -0.627753   -0.302033    0.000027
      4          1           0        1.466756   -1.275084    0.000027
      5          1           0        2.699867    0.173946    0.000081
      6          1           0        0.531705    1.639384   -0.000008
      7          1           0       -0.281717   -1.356327   -0.000066
      8          8           0       -1.779643    0.062841   -0.000071
 ---------------------------------------------------------------------

 SCF Done:  E(RM062X) =  -191.810410778     A.U. after   14 cycles

 The electronic state is 1-A.
 Alpha  occ. eigenvalues --  -19.64245 -10.63969 -10.58015 -10.56971  -1.16734
 Alpha  occ. eigenvalues --   -0.91323  -0.72377  -0.66591  -0.55512  -0.53809
 Alpha  occ. eigenvalues --   -0.49053  -0.47145  -0.46563  -0.35121  -0.32892
 Alpha virt. eigenvalues --   -0.01528   0.10066   0.13998   0.16476   0.22299
 Alpha virt. eigenvalues --    0.22944   0.31658   0.35553   0.39947   0.55763
 Alpha virt. eigenvalues --    0.55993   0.63502   0.64071   0.67103   0.68035

 Mulliken charges:
               1
     1  C   -0.370134
     2  C   -0.125551
     3  C    0.231695
     4  H    0.179584
     5  H    0.192254
     6  H    0.197074
     7  H    0.117071
     8  O   -0.421993
 Sum of Mulliken charges =  -0.00000

 Dipole moment (field-independent basis, Debye):
    X=              3.1278    Y=             -0.3459    Z=              0.0001  Tot=              3.1469
 Quadrupole moment (field-independent basis, Debye-Ang):
   XX=            -26.6877   YY=            -21.3774   ZZ=            -24.5358
   XY=              0.4702   XZ=             -0.0002   YZ=              0.0000

 Normal termination of Gaussian 16 at Fri Sep 22 17:01:38 2023.
