 Gaussian 16, Revision A.03,
 Gaussian 16:  ES64L-G16RevA.03 25-Dec-2016

 -------------------------
 #m062x/6-31g(d) scf=tight
 -------------------------

 -------------------
 tmpdir/M2_ref_6.gjf
 -------------------
 Symbolic Z-matrix:
 Charge =  0 Multiplicity = 1

                         Standard orientation:
 ---------------------------------------------------------------------
 Center     Atomic      Atomic             Coordinates (Angstroms)
 Number     Number       Type             X           Y           Z
 ---------------------------------------------------------------------
      1          6           0        0.530404    0.005202    0.000063
      2          1           0        1.194280   -0.851836    0.000183
      3          1           0        0.855048    1.018835    0.000001
      4          8           0       -0.653969   -0.024776   -0.000070
 ---------------------------------------------------------------------

 SCF Done:  E(RM062X) =  -114.436679387     A.U. after   14 cycles

 The electronic state is 1-A.
 Alpha  occ. eigenvalues --  -19.65169 -10.63460  -1.19093  -0.72154  -0.59297
 Alpha  occ. eigenvalues --   -0.52421  -0.47106  -0.33268
 Alpha virt. eigenvalues --    0.02209   0.15959   0.23177   0.28066   0.56822
 Alpha virt. eigenvalues --    0.64792   0.70917   0.78295   0.90333   0.96139
 Alpha virt. eigenvalues --    0.97848   1.04936   1.13718   1.44358   1.55108

 Mulliken charges:
               1
     1  C    0.068497
     2  H    0.142535
     3  H    0.134265
     4  O   -0.345297
 Sum of Mulliken charges =  -0.00000

 Dipole moment (field-independent basis, Debye):
    X=              2.2336    Y=              0.0380    Z=              0.0002  Tot=              2.2340
 Quadrupole moment (field-independent basis, Debye-Ang):
   XX=            -11.9592   YY=            -11.2664   ZZ=            -11.3667
   XY=             -0.3125   XZ=             -0.0000   YZ=             -0.0000

 Normal termination of Gaussian 16 at Fri Sep 22 17:01:00 2023.
