 Gaussian 16, Revision A.03,
 Gaussian 16:  ES64L-G16RevA.03 25-Dec-2016

 -------------------------
 #m062x/6-31g(d) scf=tight
 -------------------------

 --------------------
 tmpdir/M2_ref_44.gjf
 --------------------
 Symbolic Z-matrix:
 Charge =  0 Multiplicity = 1

                         Standard orientation:
 ---------------------------------------------------------------------
 Center     Atomic      Atomic             Coordinates (Angstroms)
 Number     Number       Type             X           Y           Z
 ---------------------------------------------------------------------
      1          6           0       -0.529471    0.000574    0.000048
      2          1           0       -1.196797   -0.852543    0.000111
      3          8           0        0.655046   -0.023208   -0.000062
      4          1           0       -0.866747    1.034761    0.000097
 ---------------------------------------------------------------------

 SCF Done:  E(RM062X) =  -114.437645098     A.U. after   13 cycles

 The electronic state is 1-A.
 Alpha  occ. eigenvalues --  -19.65276 -10.63726  -1.19132  -0.71956  -0.59005
 Alpha  occ. eigenvalues --   -0.52483  -0.47161  -0.33235
 Alpha virt. eigenvalues --    0.02173   0.15620   0.22942   0.28039   0.56752
 Alpha virt. eigenvalues --    0.65008   0.70918   0.78134   0.90123   0.95966
 Alpha virt. eigenvalues --    0.96354   1.04877   1.13686   1.44393   1.55176

 Mulliken charges:
               1
     1  C    0.068415
     2  H    0.144504
     3  O   -0.342783
     4  H    0.129864
 Sum of Mulliken charges =  -0.00000

 Dipole moment (field-independent basis, Debye):
    X=             -2.2234    Y=              0.0001    Z=              0.0002  Tot=              2.2234
 Quadrupole moment (field-independent basis, Debye-Ang):
   XX=            -11.9702   YY=            -11.2965   ZZ=            -11.3929
   XY=              0.3425   XZ=              0.0001   YZ=             -0.0000

 Normal termination of Gaussian 16 at Fri Sep 22 17:01:42 2023.
