 Gaussian 16, Revision A.03,
 Gaussian 16:  ES64L-G16RevA.03 25-Dec-2016

 -------------------------
 #m062x/6-31g(d) scf=tight
 -------------------------

 -------------------
 tmpdir/M2_ref_3.gjf
 -------------------
 Symbolic Z-matrix:
 Charge =  0 Multiplicity = 1

                         Standard orientation:
 ---------------------------------------------------------------------
 Center     Atomic      Atomic             Coordinates (Angstroms)
 Number     Number       Type             X           Y           Z
 ---------------------------------------------------------------------
      1          6           0        0.735167    0.537111    0.000101
      2          6           0       -0.735164    0.537113    0.000016
      3          1           0       -1.348876    1.430760    0.000077
      4          1           0        1.348873    1.430761    0.000221
      5          8           0        1.124968   -0.581679   -0.000032
      6          8           0       -1.124969   -0.581679   -0.000094
 ---------------------------------------------------------------------

 SCF Done:  E(RM062X) =  -227.690873762     A.U. after   14 cycles

 The electronic state is 1-A.
 Alpha  occ. eigenvalues --  -19.66294 -19.66293 -10.64626 -10.64580  -1.23680
 Alpha  occ. eigenvalues --   -1.17562  -0.80319  -0.65941  -0.63681  -0.54950
 Alpha  occ. eigenvalues --   -0.52811  -0.52461  -0.44361  -0.36539  -0.34001
 Alpha virt. eigenvalues --   -0.05062   0.09692   0.17248   0.17619   0.23775
 Alpha virt. eigenvalues --    0.33410   0.42646   0.54644   0.55202   0.61330
 Alpha virt. eigenvalues --    0.72208   0.73251   0.78293   0.85831   0.88062

 Mulliken charges:
               1
     1  C    0.169166
     2  C    0.169163
     3  H    0.156523
     4  H    0.156523
     5  O   -0.325686
     6  O   -0.325688
 Sum of Mulliken charges =  -0.00000

 Dipole moment (field-independent basis, Debye):
    X=              0.0000    Y=              3.7626    Z=              0.0004  Tot=              3.7626
 Quadrupole moment (field-independent basis, Debye-Ang):
   XX=            -23.9856   YY=            -21.0738   ZZ=            -20.7942
   XY=             -0.0000   XZ=             -0.0001   YZ=             -0.0000

 Normal termination of Gaussian 16 at Fri Sep 22 17:01:04 2023.
