 Gaussian 16, Revision A.03,
 Gaussian 16:  ES64L-G16RevA.03 25-Dec-2016

 -------------------------
 #m062x/6-31g(d) scf=tight
 -------------------------

 --------------------
 tmpdir/M2_ref_32.gjf
 --------------------
 Symbolic Z-matrix:
 Charge =  0 Multiplicity = 1

                         Standard orientation:
 ---------------------------------------------------------------------
 Center     Atomic      Atomic             Coordinates (Angstroms)
 Number     Number       Type             X           Y           Z
 ---------------------------------------------------------------------
      1          6           0        1.171570   -0.186636   -0.000007
      2          6           0       -0.144452    0.554817    0.000025
      3          6           0       -1.208105   -0.253102   -0.000013
      4          1           0        0.878007   -1.259405   -0.000094
      5          1           0        1.767885    0.087410   -0.877327
      6          1           0        1.767852    0.087278    0.877376
      7          1           0       -0.186580    1.640023    0.000056
      8          1           0       -2.252554    0.033726   -0.000033
      9          1           0       -0.888682   -1.279502   -0.000002
 ---------------------------------------------------------------------

 SCF Done:  E(RM062X) =  -117.822309056     A.U. after   13 cycles

 The electronic state is 1-A.
 Alpha  occ. eigenvalues --  -10.54579 -10.53779 -10.53017  -0.88729  -0.75836
 Alpha  occ. eigenvalues --   -0.63275  -0.54540  -0.47320  -0.45751  -0.43287
 Alpha  occ. eigenvalues --   -0.40443  -0.30554
 Alpha virt. eigenvalues --    0.06987   0.15463   0.17833   0.20338   0.22081
 Alpha virt. eigenvalues --    0.22898   0.25762   0.33953   0.41193   0.53967
 Alpha virt. eigenvalues --    0.58231   0.62812   0.64931   0.67922   0.71604

 Mulliken charges:
               1
     1  C   -0.515181
     2  C   -0.084596
     3  C   -0.366670
     4  H    0.158710
     5  H    0.169270
     6  H    0.169270
     7  H    0.160933
     8  H    0.162980
     9  H    0.145284
 Sum of Mulliken charges =  -0.00000

 Dipole moment (field-independent basis, Debye):
    X=              0.2492    Y=              0.1797    Z=              0.0000  Tot=              0.3072
 Quadrupole moment (field-independent basis, Debye-Ang):
   XX=            -19.1797   YY=            -18.7464   ZZ=            -21.4925
   XY=              0.2146   XZ=              0.0000   YZ=              0.0000

 Normal termination of Gaussian 16 at Fri Sep 22 17:01:29 2023.
