 Gaussian 16, Revision A.03,
 Gaussian 16:  ES64L-G16RevA.03 25-Dec-2016

 -------------------------
 #m062x/6-31g(d) scf=tight
 -------------------------

 --------------------
 tmpdir/M2_ref_59.gjf
 --------------------
 Symbolic Z-matrix:
 Charge =  0 Multiplicity = 1

                         Standard orientation:
 ---------------------------------------------------------------------
 Center     Atomic      Atomic             Coordinates (Angstroms)
 Number     Number       Type             X           Y           Z
 ---------------------------------------------------------------------
      1          6           0        0.263116    0.499107   -0.000008
      2          6           0       -1.092276   -0.149793    0.000119
      3          1           0       -1.684953    0.139191   -0.878876
      4          8           0        1.097873   -0.341617   -0.000141
      5          1           0        0.419860    1.570818    0.000002
      6          1           0       -0.858190   -1.212102    0.000070
      7          1           0       -1.684743    0.139142    0.879273
 ---------------------------------------------------------------------

 SCF Done:  E(RM062X) =  -153.738215952     A.U. after   13 cycles

 The electronic state is 1-A.
 Alpha  occ. eigenvalues --  -19.63709 -10.63441 -10.54206  -1.18580  -0.83276
 Alpha  occ. eigenvalues --   -0.67571  -0.56340  -0.51161  -0.50256  -0.46023
 Alpha  occ. eigenvalues --   -0.42668  -0.31952
 Alpha virt. eigenvalues --    0.03594   0.16859   0.17987   0.20836   0.20958
 Alpha virt. eigenvalues --    0.27556   0.34891   0.57844   0.58859   0.64489
 Alpha virt. eigenvalues --    0.65617   0.73228   0.78230   0.82080   0.91454

 Mulliken charges:
               1
     1  C    0.255973
     2  C   -0.572370
     3  H    0.174403
     4  O   -0.384577
     5  H    0.144590
     6  H    0.207582
     7  H    0.174400
 Sum of Mulliken charges =  -0.00000

 Dipole moment (field-independent basis, Debye):
    X=             -1.8419    Y=              1.4917    Z=              0.0003  Tot=              2.3702
 Quadrupole moment (field-independent basis, Debye-Ang):
   XX=            -20.5608   YY=            -17.2492   ZZ=            -17.7067
   XY=              1.0678   XZ=              0.0004   YZ=             -0.0001

 Normal termination of Gaussian 16 at Fri Sep 22 17:01:56 2023.
