 Gaussian 16, Revision A.03,
 Gaussian 16:  ES64L-G16RevA.03 25-Dec-2016

 -------------------------
 #m062x/6-31g(d) scf=tight
 -------------------------

 --------------------
 tmpdir/M2_ref_22.gjf
 --------------------
 Symbolic Z-matrix:
 Charge =  0 Multiplicity = 1

                         Standard orientation:
 ---------------------------------------------------------------------
 Center     Atomic      Atomic             Coordinates (Angstroms)
 Number     Number       Type             X           Y           Z
 ---------------------------------------------------------------------
      1          6           0        0.003844    0.000000   -0.003923
      2          1           0        0.653075    0.877354   -0.099485
      3          1           0       -0.827319    0.000029   -0.742963
      4          1           0       -0.501890   -0.000035    0.965536
      5          1           0        0.653072   -0.877349   -0.099549
 ---------------------------------------------------------------------

 SCF Done:  E(RM062X) =  -40.4804563356     A.U. after   10 cycles

 The electronic state is 1-A.
 Alpha  occ. eigenvalues --  -10.52633  -0.77932  -0.46479  -0.44672  -0.44087
 Alpha virt. eigenvalues --    0.16547   0.21761   0.22120   0.22951   0.58060
 Alpha virt. eigenvalues --    0.58074   0.59639   0.95023   0.96033   0.97912
 Alpha virt. eigenvalues --    1.01711   1.13059   1.71938   1.71950   2.26824

 Mulliken charges:
               1
     1  C   -0.671946
     2  H    0.169288
     3  H    0.165285
     4  H    0.168086
     5  H    0.169288
 Sum of Mulliken charges =  -0.00000

 Dipole moment (field-independent basis, Debye):
    X=             -0.0041    Y=             -0.0000    Z=              0.0280  Tot=              0.0283
 Quadrupole moment (field-independent basis, Debye-Ang):
   XX=             -8.0374   YY=             -8.3876   ZZ=             -8.4712
   XY=             -0.0000   XZ=             -0.0190   YZ=              0.0000

 Normal termination of Gaussian 16 at Fri Sep 22 17:01:17 2023.
