 Gaussian 16, Revision A.03,
 Gaussian 16:  ES64L-G16RevA.03 25-Dec-2016

 -------------------------
 #m062x/6-31g(d) scf=tight
 -------------------------

 --------------------
 tmpdir/M2_ref_28.gjf
 --------------------
 Symbolic Z-matrix:
 Charge =  0 Multiplicity = 1

                         Standard orientation:
 ---------------------------------------------------------------------
 Center     Atomic      Atomic             Coordinates (Angstroms)
 Number     Number       Type             X           Y           Z
 ---------------------------------------------------------------------
      1          6           0       -0.259597    0.470873    0.000023
      2          6           0        1.117222   -0.150443   -0.000009
      3          1           0        1.686744    0.175480    0.877374
      4          8           0       -1.130178   -0.322075   -0.000011
      5          1           0       -0.398194    1.548017    0.000054
      6          1           0        0.920355   -1.245092   -0.000096
      7          1           0        1.686766    0.175615   -0.877329
 ---------------------------------------------------------------------

 SCF Done:  E(RM062X) =  -153.743701260     A.U. after   14 cycles

 The electronic state is 1-A.
 Alpha  occ. eigenvalues --  -19.63833 -10.63404 -10.54657  -1.18854  -0.83446
 Alpha  occ. eigenvalues --   -0.67095  -0.56291  -0.51318  -0.50464  -0.45990
 Alpha  occ. eigenvalues --   -0.43100  -0.32094
 Alpha virt. eigenvalues --    0.03911   0.16414   0.18068   0.20324   0.20709
 Alpha virt. eigenvalues --    0.28264   0.34398   0.57744   0.59318   0.64225
 Alpha virt. eigenvalues --    0.65800   0.73669   0.78271   0.82224   0.91463

 Mulliken charges:
               1
     1  C    0.254570
     2  C   -0.570820
     3  H    0.178462
     4  O   -0.376863
     5  H    0.136097
     6  H    0.200094
     7  H    0.178459
 Sum of Mulliken charges =  -0.00000

 Dipole moment (field-independent basis, Debye):
    X=              1.9430    Y=              1.3923    Z=              0.0001  Tot=              2.3904
 Quadrupole moment (field-independent basis, Debye-Ang):
   XX=            -20.6045   YY=            -17.3857   ZZ=            -17.6980
   XY=             -0.9258   XZ=             -0.0000   YZ=              0.0000

 Normal termination of Gaussian 16 at Fri Sep 22 17:01:26 2023.
