 Gaussian 16, Revision A.03,
 Gaussian 16:  ES64L-G16RevA.03 25-Dec-2016

 -------------------------
 #m062x/6-31g(d) scf=tight
 -------------------------

 --------------------
 tmpdir/M2_ref_41.gjf
 --------------------
 Symbolic Z-matrix:
 Charge =  0 Multiplicity = 1

                         Standard orientation:
 ---------------------------------------------------------------------
 Center     Atomic      Atomic             Coordinates (Angstroms)
 Number     Number       Type             X           Y           Z
 ---------------------------------------------------------------------
      1          6           0       -0.302243    1.358850    0.000075
      2          6           0       -0.541181   -0.155291   -0.000054
      3          6           0        0.791640   -0.810080   -0.000039
      4          1           0        0.802978    1.483344   -0.000012
      5          1           0       -0.783991    1.793916   -0.879622
      6          1           0       -0.783789    1.793701    0.879993
      7          8           0       -1.619888   -0.699695    0.000044
      8          8           0        1.640094    0.006500   -0.000073
      9          1           0        0.913852   -1.886281   -0.000019
 ---------------------------------------------------------------------

 SCF Done:  E(RM062X) =  -266.995550950     A.U. after   15 cycles

 The electronic state is 1-A.
 Alpha  occ. eigenvalues --  -19.68215 -19.66049 -10.66041 -10.64952 -10.53493
 Alpha  occ. eigenvalues --   -1.23965  -1.18403  -0.84931  -0.77334  -0.65426
 Alpha  occ. eigenvalues --   -0.58080  -0.57654  -0.54466  -0.50279  -0.48008
 Alpha  occ. eigenvalues --   -0.45565  -0.43176  -0.39428  -0.31338
 Alpha virt. eigenvalues --   -0.05197   0.08814   0.16447   0.17451   0.22987
 Alpha virt. eigenvalues --    0.23630   0.24728   0.29879   0.34895   0.39808
 Alpha virt. eigenvalues --    0.53368   0.60113   0.62649   0.64392   0.67404

 Mulliken charges:
               1
     1  C   -0.598840
     2  C    0.343916
     3  C    0.214169
     4  H    0.248636
     5  H    0.194049
     6  H    0.194055
     7  O   -0.417980
     8  O   -0.362471
     9  H    0.184465
 Sum of Mulliken charges =  -0.00000

 Dipole moment (field-independent basis, Debye):
    X=              0.9810    Y=             -0.2392    Z=             -0.0000  Tot=              1.0097
 Quadrupole moment (field-independent basis, Debye-Ang):
   XX=            -35.8075   YY=            -26.6344   ZZ=            -27.1103
   XY=             -3.5699   XZ=              0.0003   YZ=              0.0002

 Normal termination of Gaussian 16 at Fri Sep 22 17:01:41 2023.
