 Gaussian 16, Revision A.03,
 Gaussian 16:  ES64L-G16RevA.03 25-Dec-2016

 -------------------------
 #m062x/6-31g(d) scf=tight
 -------------------------

 --------------------
 tmpdir/M2_ref_39.gjf
 --------------------
 Symbolic Z-matrix:
 Charge =  0 Multiplicity = 1

                         Standard orientation:
 ---------------------------------------------------------------------
 Center     Atomic      Atomic             Coordinates (Angstroms)
 Number     Number       Type             X           Y           Z
 ---------------------------------------------------------------------
      1          1           0       -0.672540    1.560336    0.000007
      2          6           0       -0.669516    0.477222   -0.000013
      3          6           0        0.583142   -0.320278   -0.000028
      4          8           0       -1.602689   -0.241017   -0.000047
      5          1           0        0.290597   -1.390649    0.000065
      6          8           0        1.715212    0.102098    0.000070
 ---------------------------------------------------------------------

 SCF Done:  E(RM062X) =  -227.713374959     A.U. after   14 cycles

 The electronic state is 1-A.
 Alpha  occ. eigenvalues --  -19.68484 -19.67742 -10.66021 -10.65581  -1.23411
 Alpha  occ. eigenvalues --   -1.19497  -0.80560  -0.69685  -0.58438  -0.57363
 Alpha  occ. eigenvalues --   -0.53696  -0.53109  -0.46088  -0.40365  -0.33663
 Alpha virt. eigenvalues --   -0.05644   0.08402   0.15744   0.20082   0.24171
 Alpha virt. eigenvalues --    0.31979   0.38410   0.54237   0.59283   0.61417
 Alpha virt. eigenvalues --    0.67144   0.73392   0.78140   0.83580   0.86963

 Mulliken charges:
               1
     1  H    0.181264
     2  C    0.198377
     3  C    0.172672
     4  O   -0.348304
     5  H    0.165553
     6  O   -0.369562
 Sum of Mulliken charges =  -0.00000

 Dipole moment (field-independent basis, Debye):
    X=             -0.5838    Y=              0.6617    Z=             -0.0001  Tot=              0.8824
 Quadrupole moment (field-independent basis, Debye-Ang):
   XX=            -30.0514   YY=            -20.0424   ZZ=            -20.8737
   XY=             -2.0906   XZ=             -0.0003   YZ=             -0.0001

 Normal termination of Gaussian 16 at Fri Sep 22 17:01:27 2023.
