 Gaussian 16, Revision A.03,
 Gaussian 16:  ES64L-G16RevA.03 25-Dec-2016

 -------------------------
 #m062x/6-31g(d) scf=tight
 -------------------------

 --------------------
 tmpdir/M2_ref_56.gjf
 --------------------
 Symbolic Z-matrix:
 Charge =  0 Multiplicity = 1

                         Standard orientation:
 ---------------------------------------------------------------------
 Center     Atomic      Atomic             Coordinates (Angstroms)
 Number     Number       Type             X           Y           Z
 ---------------------------------------------------------------------
      1          6           0       -1.177312    0.222462    0.000054
      2          6           0       -0.000002    1.156322    0.000122
      3          6           0        1.177311    0.222462   -0.000005
      4          8           0       -0.787507   -0.896330   -0.000056
      5          1           0       -2.209303    0.551294    0.000117
      6          1           0       -0.000021    1.815699   -0.878873
      7          1           0        0.000027    1.815489    0.879276
      8          8           0        0.787510   -0.896328   -0.000138
      9          1           0        2.209297    0.551301    0.000005
 ---------------------------------------------------------------------

 SCF Done:  E(RM062X) =  -266.783425360     A.U. after   20 cycles

 The electronic state is 1-A.
 Alpha  occ. eigenvalues --  -19.61087 -19.61087 -10.62785 -10.62784 -10.55516
 Alpha  occ. eigenvalues --   -1.25203  -1.13494  -0.87119  -0.70022  -0.69326
 Alpha  occ. eigenvalues --   -0.60537  -0.55682  -0.54218  -0.50887  -0.44751
 Alpha  occ. eigenvalues --   -0.44058  -0.42247  -0.37779  -0.16043
 Alpha virt. eigenvalues --    0.01966   0.05450   0.15392   0.18008   0.19169
 Alpha virt. eigenvalues --    0.20271   0.24629   0.30100   0.38122   0.39233
 Alpha virt. eigenvalues --    0.57118   0.59645   0.60540   0.62086   0.68666

 Mulliken charges:
               1
     1  C    0.245608
     2  C   -0.574726
     3  C    0.245607
     4  O   -0.288864
     5  H    0.126793
     6  H    0.203826
     7  H    0.203825
     8  O   -0.288861
     9  H    0.126792
 Sum of Mulliken charges =  -0.00000

 Dipole moment (field-independent basis, Debye):
    X=             -0.0000    Y=              3.5680    Z=              0.0004  Tot=              3.5680
 Quadrupole moment (field-independent basis, Debye-Ang):
   XX=            -27.3109   YY=            -30.4370   ZZ=            -27.0174
   XY=              0.0000   XZ=             -0.0001   YZ=             -0.0004

 Normal termination of Gaussian 16 at Fri Sep 22 17:01:57 2023.
