 Gaussian 16, Revision A.03,
 Gaussian 16:  ES64L-G16RevA.03 25-Dec-2016

 -------------------------
 #m062x/6-31g(d) scf=tight
 -------------------------

 --------------------
 tmpdir/M2_ref_31.gjf
 --------------------
 Symbolic Z-matrix:
 Charge =  0 Multiplicity = 1

                         Standard orientation:
 ---------------------------------------------------------------------
 Center     Atomic      Atomic             Coordinates (Angstroms)
 Number     Number       Type             X           Y           Z
 ---------------------------------------------------------------------
      1          6           0       -0.522781   -0.001516    0.000016
      2          1           0       -1.155146   -0.884445    0.000047
      3          1           0       -0.945963    1.006717   -0.000007
      4          8           0        0.654724   -0.014147   -0.000017
 ---------------------------------------------------------------------

 SCF Done:  E(RM062X) =  -114.441141979     A.U. after   13 cycles

 The electronic state is 1-A.
 Alpha  occ. eigenvalues --  -19.65411 -10.63777  -1.19580  -0.71932  -0.58805
 Alpha  occ. eigenvalues --   -0.52817  -0.47496  -0.33401
 Alpha virt. eigenvalues --    0.02327   0.15652   0.23590   0.27570   0.56663
 Alpha virt. eigenvalues --    0.65915   0.70112   0.79452   0.90202   0.93898
 Alpha virt. eigenvalues --    0.96353   1.04799   1.13838   1.44335   1.54986

 Mulliken charges:
               1
     1  C    0.070206
     2  H    0.138347
     3  H    0.126285
     4  O   -0.334838
 Sum of Mulliken charges =   0.00000

 Dipole moment (field-independent basis, Debye):
    X=             -2.1884    Y=             -0.0150    Z=              0.0001  Tot=              2.1885
 Quadrupole moment (field-independent basis, Debye-Ang):
   XX=            -11.9846   YY=            -11.3370   ZZ=            -11.3773
   XY=              0.2242   XZ=              0.0000   YZ=             -0.0000

 Normal termination of Gaussian 16 at Fri Sep 22 17:01:22 2023.
