 Gaussian 16, Revision A.03,
 Gaussian 16:  ES64L-G16RevA.03 25-Dec-2016

 -------------------------
 #m062x/6-31g(d) scf=tight
 -------------------------

 --------------------
 tmpdir/M2_ref_18.gjf
 --------------------
 Symbolic Z-matrix:
 Charge =  0 Multiplicity = 1

                         Standard orientation:
 ---------------------------------------------------------------------
 Center     Atomic      Atomic             Coordinates (Angstroms)
 Number     Number       Type             X           Y           Z
 ---------------------------------------------------------------------
      1          1           0        0.632610    0.879951   -0.163388
      2          6           0        0.002095    0.000019   -0.010420
      3          1           0        0.632392   -0.879663   -0.165742
      4          1           0       -0.911521    0.000956   -0.644706
      5          1           0       -0.366048   -0.001356    1.036358
 ---------------------------------------------------------------------

 SCF Done:  E(RM062X) =  -40.4805439530     A.U. after   10 cycles

 The electronic state is 1-A.
 Alpha  occ. eigenvalues --  -10.52753  -0.77833  -0.46164  -0.44874  -0.44037
 Alpha virt. eigenvalues --    0.16481   0.21581   0.22267   0.22734   0.58018
 Alpha virt. eigenvalues --    0.58424   0.59474   0.94667   0.96336   0.97216
 Alpha virt. eigenvalues --    1.01486   1.13321   1.71688   1.71869   2.26632

 Mulliken charges:
               1
     1  H    0.170185
     2  C   -0.670753
     3  H    0.170182
     4  H    0.167027
     5  H    0.163359
 Sum of Mulliken charges =   0.00000

 Dipole moment (field-independent basis, Debye):
    X=              0.0104    Y=             -0.0001    Z=              0.0324  Tot=              0.0340
 Quadrupole moment (field-independent basis, Debye-Ang):
   XX=             -8.0844   YY=             -8.3777   ZZ=             -8.4573
   XY=              0.0000   XZ=              0.0017   YZ=              0.0001

 Normal termination of Gaussian 16 at Fri Sep 22 17:01:10 2023.
