 Gaussian 16, Revision A.03,
 Gaussian 16:  ES64L-G16RevA.03 25-Dec-2016

 -------------------------
 #m062x/6-31g(d) scf=tight
 -------------------------

 -------------------
 tmpdir/M2_ref_9.gjf
 -------------------
 Symbolic Z-matrix:
 Charge =  0 Multiplicity = 1

                         Standard orientation:
 ---------------------------------------------------------------------
 Center     Atomic      Atomic             Coordinates (Angstroms)
 Number     Number       Type             X           Y           Z
 ---------------------------------------------------------------------
      1          6           0       -0.839058    0.488974    0.000025
      2          6           0        0.614236    0.712155    0.000110
      3          6           0        1.243882   -0.475049   -0.000041
      4          1           0       -1.581307    1.279110    0.000086
      5          8           0       -1.054524   -0.676023   -0.000086
      6          1           0        1.085182    1.688606    0.000230
      7          1           0        2.313826   -0.643430   -0.000051
      8          1           0        0.504130   -1.272586   -0.000133
 ---------------------------------------------------------------------

 SCF Done:  E(RM062X) =  -191.778049065     A.U. after   16 cycles

 The electronic state is 1-A.
 Alpha  occ. eigenvalues --  -19.63394 -10.63690 -10.54853 -10.54566  -1.19603
 Alpha  occ. eigenvalues --   -0.87568  -0.73939  -0.62277  -0.59507  -0.54191
 Alpha  occ. eigenvalues --   -0.48741  -0.47769  -0.41926  -0.32646  -0.32348
 Alpha virt. eigenvalues --   -0.01675   0.12132   0.16671   0.19583   0.21280
 Alpha virt. eigenvalues --    0.26777   0.30105   0.35921   0.39679   0.56362
 Alpha virt. eigenvalues --    0.57017   0.61879   0.63645   0.69648   0.70149

 Mulliken charges:
               1
     1  C    0.249400
     2  C   -0.239703
     3  C   -0.332365
     4  H    0.159784
     5  O   -0.425310
     6  H    0.165290
     7  H    0.168606
     8  H    0.254297
 Sum of Mulliken charges =  -0.00000

 Dipole moment (field-independent basis, Debye):
    X=              0.7068    Y=              1.7605    Z=              0.0002  Tot=              1.8971
 Quadrupole moment (field-independent basis, Debye-Ang):
   XX=            -22.8681   YY=            -22.0912   ZZ=            -24.3793
   XY=             -3.0051   XZ=             -0.0003   YZ=              0.0002

 Normal termination of Gaussian 16 at Fri Sep 22 17:01:06 2023.
