 Gaussian 16, Revision A.03,
 Gaussian 16:  ES64L-G16RevA.03 25-Dec-2016

 -------------------------
 #m062x/6-31g(d) scf=tight
 -------------------------

 -------------------
 tmpdir/M2_ref_0.gjf
 -------------------
 Symbolic Z-matrix:
 Charge =  0 Multiplicity = 1

                         Standard orientation:
 ---------------------------------------------------------------------
 Center     Atomic      Atomic             Coordinates (Angstroms)
 Number     Number       Type             X           Y           Z
 ---------------------------------------------------------------------
      1          6           0       -0.735164    0.516963    0.000014
      2          6           0        0.735167    0.516959    0.000099
      3          1           0       -1.348876    1.410609    0.000075
      4          6           0       -1.177313   -0.752062   -0.000111
      5          1           0        1.348873    1.410610    0.000219
      6          6           0        1.177310   -0.752063   -0.000052
 ---------------------------------------------------------------------

 SCF Done:  E(RM062X) =  -153.231728786     A.U. after   14 cycles

 The electronic state is 1-A.
 Alpha  occ. eigenvalues --  -10.62571 -10.62569 -10.58577 -10.58534  -0.95791
 Alpha  occ. eigenvalues --   -0.80908  -0.67556  -0.56398  -0.54609  -0.42494
 Alpha  occ. eigenvalues --   -0.38834  -0.34701  -0.29233
 Alpha virt. eigenvalues --   -0.09017  -0.01100  -0.00417   0.12064   0.16878
 Alpha virt. eigenvalues --    0.18771   0.30580   0.36032   0.44653   0.51243
 Alpha virt. eigenvalues --    0.55942   0.58003   0.59758   0.63023   0.65660

 Mulliken charges:
               1
     1  C   -0.258237
     2  C   -0.258235
     3  H    0.245509
     4  C    0.012727
     5  H    0.245509
     6  C    0.012726
 Sum of Mulliken charges =  -0.00000

 Dipole moment (field-independent basis, Debye):
    X=              0.0000    Y=              3.7064    Z=              0.0004  Tot=              3.7064
 Quadrupole moment (field-independent basis, Debye-Ang):
   XX=            -21.6049   YY=            -24.0321   ZZ=            -25.3174
   XY=             -0.0000   XZ=              0.0004   YZ=              0.0001

 Normal termination of Gaussian 16 at Fri Sep 22 17:01:04 2023.
