 Gaussian 16, Revision A.03,
 Gaussian 16:  ES64L-G16RevA.03 25-Dec-2016

 -------------------------
 #m062x/6-31g(d) scf=tight
 -------------------------

 -------------------
 tmpdir/M2_ref_4.gjf
 -------------------
 Symbolic Z-matrix:
 Charge =  0 Multiplicity = 1

                         Standard orientation:
 ---------------------------------------------------------------------
 Center     Atomic      Atomic             Coordinates (Angstroms)
 Number     Number       Type             X           Y           Z
 ---------------------------------------------------------------------
      1          6           0        0.839061    0.488971    0.000109
      2          6           0       -0.614232    0.712157    0.000024
      3          6           0       -1.243884   -0.475049   -0.000101
      4          1           0        1.581304    1.279112    0.000229
      5          8           0        1.054522   -0.676023   -0.000024
      6          1           0       -1.085186    1.688605    0.000085
      7          1           0       -2.313830   -0.643423   -0.000164
      8          1           0       -0.504133   -1.272586   -0.000150
 ---------------------------------------------------------------------

 SCF Done:  E(RM062X) =  -191.778048602     A.U. after   16 cycles

 The electronic state is 1-A.
 Alpha  occ. eigenvalues --  -19.63394 -10.63690 -10.54853 -10.54566  -1.19603
 Alpha  occ. eigenvalues --   -0.87568  -0.73939  -0.62277  -0.59507  -0.54191
 Alpha  occ. eigenvalues --   -0.48741  -0.47769  -0.41926  -0.32646  -0.32348
 Alpha virt. eigenvalues --   -0.01675   0.12132   0.16671   0.19583   0.21280
 Alpha virt. eigenvalues --    0.26777   0.30105   0.35921   0.39679   0.56362
 Alpha virt. eigenvalues --    0.57017   0.61879   0.63645   0.69648   0.70149

 Mulliken charges:
               1
     1  C    0.249402
     2  C   -0.239706
     3  C   -0.332364
     4  H    0.159783
     5  O   -0.425308
     6  H    0.165290
     7  H    0.168606
     8  H    0.254297
 Sum of Mulliken charges =   0.00000

 Dipole moment (field-independent basis, Debye):
    X=             -0.7068    Y=              1.7605    Z=              0.0002  Tot=              1.8971
 Quadrupole moment (field-independent basis, Debye-Ang):
   XX=            -22.8681   YY=            -22.0912   ZZ=            -24.3793
   XY=              3.0050   XZ=              0.0004   YZ=              0.0004

 Normal termination of Gaussian 16 at Fri Sep 22 17:01:12 2023.
