 Gaussian 16, Revision A.03,
 Gaussian 16:  ES64L-G16RevA.03 25-Dec-2016

 -------------------------
 #m062x/6-31g(d) scf=tight
 -------------------------

 --------------------
 tmpdir/M2_ref_51.gjf
 --------------------
 Symbolic Z-matrix:
 Charge =  0 Multiplicity = 1

                         Standard orientation:
 ---------------------------------------------------------------------
 Center     Atomic      Atomic             Coordinates (Angstroms)
 Number     Number       Type             X           Y           Z
 ---------------------------------------------------------------------
      1          6           0       -0.672987   -0.015303   -0.000078
      2          6           0        0.670841   -0.021238    0.000073
      3          1           0        1.317077   -0.890439    0.000083
      4          1           0       -1.018733    0.991328   -0.000017
      5          1           0       -1.318817   -0.886020   -0.000198
      6          1           0        1.033347    1.004378    0.000165
 ---------------------------------------------------------------------

 SCF Done:  E(RM062X) =  -78.5278381954     A.U. after   12 cycles

 The electronic state is 1-A.
 Alpha  occ. eigenvalues --  -10.54234 -10.53995  -0.85404  -0.65071  -0.54962
 Alpha  occ. eigenvalues --   -0.45997  -0.41856  -0.32238
 Alpha virt. eigenvalues --    0.06117   0.15634   0.19689   0.21492   0.30017
 Alpha virt. eigenvalues --    0.35880   0.52561   0.60701   0.63323   0.69915
 Alpha virt. eigenvalues --    0.71966   0.75189   0.91804   0.95582   0.98775

 Mulliken charges:
               1
     1  C   -0.324659
     2  C   -0.328398
     3  H    0.169601
     4  H    0.158723
     5  H    0.169397
     6  H    0.155335
 Sum of Mulliken charges =  -0.00000

 Dipole moment (field-independent basis, Debye):
    X=             -0.0034    Y=              0.0239    Z=              0.0000  Tot=              0.0241
 Quadrupole moment (field-independent basis, Debye-Ang):
   XX=            -12.3924   YY=            -11.8062   ZZ=            -15.1951
   XY=             -0.0107   XZ=              0.0003   YZ=              0.0002

 Normal termination of Gaussian 16 at Fri Sep 22 17:01:33 2023.
