 Gaussian 16, Revision A.03,
 Gaussian 16:  ES64L-G16RevA.03 25-Dec-2016

 -------------------------
 #m062x/6-31g(d) scf=tight
 -------------------------

 --------------------
 tmpdir/M2_ref_36.gjf
 --------------------
 Symbolic Z-matrix:
 Charge =  0 Multiplicity = 1

                         Standard orientation:
 ---------------------------------------------------------------------
 Center     Atomic      Atomic             Coordinates (Angstroms)
 Number     Number       Type             X           Y           Z
 ---------------------------------------------------------------------
      1          6           0       -0.656739    0.489807   -0.000014
      2          6           0        0.578646   -0.334199   -0.000029
      3          6           0       -1.732334   -0.302144   -0.000052
      4          1           0       -0.636687    1.572739    0.000006
      5          1           0        0.263364   -1.398095    0.000065
      6          6           0        1.872647    0.117429    0.000082
 ---------------------------------------------------------------------

 SCF Done:  E(RM062X) =  -153.241968629     A.U. after   15 cycles

 The electronic state is 1-A.
 Alpha  occ. eigenvalues --  -10.63807 -10.63613 -10.59609 -10.59126  -0.94316
 Alpha  occ. eigenvalues --   -0.82918  -0.64431  -0.62310  -0.50442  -0.42110
 Alpha  occ. eigenvalues --   -0.38426  -0.36670  -0.30617
 Alpha virt. eigenvalues --   -0.07614  -0.05759   0.00620   0.09768   0.15569
 Alpha virt. eigenvalues --    0.20782   0.28516   0.38461   0.38618   0.53170
 Alpha virt. eigenvalues --    0.55393   0.56512   0.58518   0.61278   0.64400

 Mulliken charges:
               1
     1  C   -0.205076
     2  C   -0.301959
     3  C    0.003377
     4  H    0.239248
     5  H    0.238876
     6  C    0.025534
 Sum of Mulliken charges =  -0.00000

 Dipole moment (field-independent basis, Debye):
    X=             -0.5067    Y=              0.5609    Z=              0.0001  Tot=              0.7559
 Quadrupole moment (field-independent basis, Debye-Ang):
   XX=            -31.1087   YY=            -19.5096   ZZ=            -25.5461
   XY=             -3.8937   XZ=             -0.0002   YZ=             -0.0002

 Normal termination of Gaussian 16 at Fri Sep 22 17:01:26 2023.
