 Gaussian 16, Revision A.03,
 Gaussian 16:  ES64L-G16RevA.03 25-Dec-2016

 -------------------------
 #m062x/6-31g(d) scf=tight
 -------------------------

 --------------------
 tmpdir/M2_ref_14.gjf
 --------------------
 Symbolic Z-matrix:
 Charge =  0 Multiplicity = 1

                         Standard orientation:
 ---------------------------------------------------------------------
 Center     Atomic      Atomic             Coordinates (Angstroms)
 Number     Number       Type             X           Y           Z
 ---------------------------------------------------------------------
      1          6           0       -1.189179   -0.153415    0.000042
      2          6           0        0.241046    0.398104   -0.000087
      3          1           0       -1.850464    0.740852   -0.000045
      4          1           0       -1.324472   -0.788284   -0.879655
      5          1           0       -1.324387   -0.788002    0.879960
      6          1           0        0.168100    1.470581   -0.000076
      7          8           0        1.252503   -0.262910    0.000011
 ---------------------------------------------------------------------

 SCF Done:  E(RM062X) =  -153.745419925     A.U. after   14 cycles

 The electronic state is 1-A.
 Alpha  occ. eigenvalues --  -19.64708 -10.64119 -10.55447  -1.16989  -0.84582
 Alpha  occ. eigenvalues --   -0.67151  -0.55251  -0.51081  -0.50730  -0.46761
 Alpha  occ. eigenvalues --   -0.42914  -0.32429
 Alpha virt. eigenvalues --    0.02274   0.14413   0.17345   0.21865   0.23140
 Alpha virt. eigenvalues --    0.29338   0.30855   0.57234   0.59770   0.61821
 Alpha virt. eigenvalues --    0.65407   0.72785   0.76708   0.84570   0.90677

 Mulliken charges:
               1
     1  C   -0.559529
     2  C    0.242139
     3  H    0.162639
     4  H    0.205044
     5  H    0.205048
     6  H    0.133840
     7  O   -0.389180
 Sum of Mulliken charges =  -0.00000

 Dipole moment (field-independent basis, Debye):
    X=             -2.3414    Y=              0.9735    Z=             -0.0000  Tot=              2.5357
 Quadrupole moment (field-independent basis, Debye-Ang):
   XX=            -21.2049   YY=            -17.5146   ZZ=            -17.6221
   XY=              0.8422   XZ=             -0.0001   YZ=             -0.0000

 Normal termination of Gaussian 16 at Fri Sep 22 17:01:08 2023.
