 Gaussian 16, Revision A.03,
 Gaussian 16:  ES64L-G16RevA.03 25-Dec-2016

 -------------------------
 #m062x/6-31g(d) scf=tight
 -------------------------

 --------------------
 tmpdir/M2_ref_24.gjf
 --------------------
 Symbolic Z-matrix:
 Charge =  0 Multiplicity = 1

                         Standard orientation:
 ---------------------------------------------------------------------
 Center     Atomic      Atomic             Coordinates (Angstroms)
 Number     Number       Type             X           Y           Z
 ---------------------------------------------------------------------
      1          6           0       -1.266917   -0.499317    0.000092
      2          6           0       -0.498923    0.831414   -0.000028
      3          6           0        0.953824    0.417660   -0.000060
      4          1           0       -1.903015   -0.628708   -0.879605
      5          1           0       -1.902723   -0.628674    0.880010
      6          1           0       -0.487575   -1.289192   -0.000002
      7          1           0       -0.723636    1.448015    0.877292
      8          1           0       -0.723707    1.447899   -0.877411
      9          8           0        1.107250   -0.749875   -0.000027
     10          1           0        1.754750    1.151122   -0.000091
 ---------------------------------------------------------------------

 SCF Done:  E(RM062X) =  -193.016571800     A.U. after   14 cycles

 The electronic state is 1-A.
 Alpha  occ. eigenvalues --  -19.64395 -10.63699 -10.54823 -10.51307  -1.20074
 Alpha  occ. eigenvalues --   -0.86583  -0.74645  -0.64343  -0.58016  -0.53763
 Alpha  occ. eigenvalues --   -0.53425  -0.45464  -0.42378  -0.40305  -0.39562
 Alpha  occ. eigenvalues --   -0.32162
 Alpha virt. eigenvalues --    0.03304   0.15173   0.17541   0.17647   0.20679
 Alpha virt. eigenvalues --    0.26038   0.27531   0.27948   0.31814   0.37324
 Alpha virt. eigenvalues --    0.55480   0.58293   0.63828   0.64224   0.68206

 Mulliken charges:
               1
     1  C   -0.529915
     2  C   -0.420876
     3  C    0.258545
     4  H    0.155937
     5  H    0.155939
     6  H    0.249164
     7  H    0.182549
     8  H    0.182551
     9  O   -0.383648
    10  H    0.149753
 Sum of Mulliken charges =  -0.00000

 Dipole moment (field-independent basis, Debye):
    X=             -0.1582    Y=              2.1566    Z=             -0.0001  Tot=              2.1624
 Quadrupole moment (field-independent basis, Debye-Ang):
   XX=            -25.9927   YY=            -25.0918   ZZ=            -24.0975
   XY=              2.3929   XZ=              0.0000   YZ=             -0.0001

 Normal termination of Gaussian 16 at Fri Sep 22 17:01:20 2023.
