 Gaussian 16, Revision A.03,
 Gaussian 16:  ES64L-G16RevA.03 25-Dec-2016

 -------------------------
 #m062x/6-31g(d) scf=tight
 -------------------------

 --------------------
 tmpdir/M2_ref_48.gjf
 --------------------
 Symbolic Z-matrix:
 Charge =  0 Multiplicity = 1

                         Standard orientation:
 ---------------------------------------------------------------------
 Center     Atomic      Atomic             Coordinates (Angstroms)
 Number     Number       Type             X           Y           Z
 ---------------------------------------------------------------------
      1          1           0       -0.419865    1.570820    0.000069
      2          6           0       -0.263115    0.499110    0.000006
      3          6           0        1.092275   -0.149791    0.000074
      4          8           0       -1.097873   -0.341619   -0.000104
      5          1           0        0.858188   -1.212101   -0.000018
      6          1           0        1.684936    0.139227   -0.878921
      7          1           0        1.684768    0.139092    0.879228
 ---------------------------------------------------------------------

 SCF Done:  E(RM062X) =  -153.738216157     A.U. after   13 cycles

 The electronic state is 1-A.
 Alpha  occ. eigenvalues --  -19.63709 -10.63441 -10.54206  -1.18580  -0.83276
 Alpha  occ. eigenvalues --   -0.67571  -0.56340  -0.51161  -0.50256  -0.46022
 Alpha  occ. eigenvalues --   -0.42668  -0.31952
 Alpha virt. eigenvalues --    0.03594   0.16859   0.17987   0.20836   0.20958
 Alpha virt. eigenvalues --    0.27556   0.34891   0.57844   0.58859   0.64489
 Alpha virt. eigenvalues --    0.65617   0.73228   0.78230   0.82080   0.91454

 Mulliken charges:
               1
     1  H    0.144591
     2  C    0.255973
     3  C   -0.572371
     4  O   -0.384578
     5  H    0.207582
     6  H    0.174402
     7  H    0.174402
 Sum of Mulliken charges =  -0.00000

 Dipole moment (field-independent basis, Debye):
    X=              1.8419    Y=              1.4917    Z=              0.0002  Tot=              2.3702
 Quadrupole moment (field-independent basis, Debye-Ang):
   XX=            -20.5607   YY=            -17.2492   ZZ=            -17.7068
   XY=             -1.0678   XZ=             -0.0003   YZ=             -0.0001

 Normal termination of Gaussian 16 at Fri Sep 22 17:01:34 2023.
