 Gaussian 16, Revision A.03,
 Gaussian 16:  ES64L-G16RevA.03 25-Dec-2016

 -------------------------
 #m062x/6-31g(d) scf=tight
 -------------------------

 --------------------
 tmpdir/M2_ref_11.gjf
 --------------------
 Symbolic Z-matrix:
 Charge =  0 Multiplicity = 1

                         Standard orientation:
 ---------------------------------------------------------------------
 Center     Atomic      Atomic             Coordinates (Angstroms)
 Number     Number       Type             X           Y           Z
 ---------------------------------------------------------------------
      1          6           0        0.765663   -0.013112    0.000058
      2          6           0       -0.770753   -0.003791   -0.000062
      3          1           0        1.192728   -0.501967   -0.879639
      4          1           0        1.192553   -0.501730    0.879976
      5          1           0        1.066712    1.054899   -0.000036
      6          1           0       -1.030560    1.058338   -0.000085
      7          1           0       -1.195517   -0.504060    0.877258
      8          1           0       -1.195381   -0.504063   -0.877445
 ---------------------------------------------------------------------

 SCF Done:  E(RM062X) =  -79.7639201413     A.U. after   11 cycles

 The electronic state is 1-A.
 Alpha  occ. eigenvalues --  -10.52952 -10.52881  -0.84339  -0.69279  -0.50730
 Alpha  occ. eigenvalues --   -0.49581  -0.41538  -0.39785  -0.39698
 Alpha virt. eigenvalues --    0.14562   0.17906   0.17985   0.20785   0.28164
 Alpha virt. eigenvalues --    0.28752   0.29538   0.56232   0.57751   0.59714
 Alpha virt. eigenvalues --    0.71319   0.73289   0.74715   0.92155   0.92397

 Mulliken charges:
               1
     1  C   -0.486746
     2  C   -0.483875
     3  H    0.163669
     4  H    0.163667
     5  H    0.155643
     6  H    0.161354
     7  H    0.163143
     8  H    0.163144
 Sum of Mulliken charges =   0.00000

 Dipole moment (field-independent basis, Debye):
    X=             -0.0004    Y=              0.0027    Z=              0.0000  Tot=              0.0027
 Quadrupole moment (field-independent basis, Debye-Ang):
   XX=            -15.5520   YY=            -14.5656   ZZ=            -14.7499
   XY=              0.0335   XZ=             -0.0001   YZ=              0.0000

 Normal termination of Gaussian 16 at Fri Sep 22 17:01:14 2023.
