 Gaussian 16, Revision A.03,
 Gaussian 16:  ES64L-G16RevA.03 25-Dec-2016

 -------------------------
 #m062x/6-31g(d) scf=tight
 -------------------------

 --------------------
 tmpdir/M2_ref_55.gjf
 --------------------
 Symbolic Z-matrix:
 Charge =  0 Multiplicity = 1

                         Standard orientation:
 ---------------------------------------------------------------------
 Center     Atomic      Atomic             Coordinates (Angstroms)
 Number     Number       Type             X           Y           Z
 ---------------------------------------------------------------------
      1          6           0        0.003347   -0.000002   -0.000001
      2          1           0        0.662572    0.879108   -0.000038
      3          1           0       -0.672675   -0.000060   -0.852229
      4          1           0       -0.672647    0.000004    0.852250
      5          1           0        0.662666   -0.879041    0.000024
 ---------------------------------------------------------------------

 SCF Done:  E(RM062X) =  -40.4803828274     A.U. after   10 cycles

 The electronic state is 1-A.
 Alpha  occ. eigenvalues --  -10.52387  -0.78139  -0.46795  -0.44545  -0.44245
 Alpha virt. eigenvalues --    0.16697   0.21992   0.22182   0.23175   0.57639
 Alpha virt. eigenvalues --    0.58208   0.59487   0.95795   0.96081   0.98385
 Alpha virt. eigenvalues --    1.02608   1.13028   1.71925   1.72081   2.28222

 Mulliken charges:
               1
     1  C   -0.674514
     2  H    0.167985
     3  H    0.169272
     4  H    0.169271
     5  H    0.167986
 Sum of Mulliken charges =   0.00000

 Dipole moment (field-independent basis, Debye):
    X=             -0.0254    Y=              0.0000    Z=              0.0000  Tot=              0.0254
 Quadrupole moment (field-independent basis, Debye-Ang):
   XX=             -7.9957   YY=             -8.3656   ZZ=             -8.4880
   XY=             -0.0000   XZ=              0.0000   YZ=              0.0000

 Normal termination of Gaussian 16 at Fri Sep 22 17:01:42 2023.
