 Gaussian 16, Revision A.03,
 Gaussian 16:  ES64L-G16RevA.03 25-Dec-2016

 -------------------------
 #m062x/6-31g(d) scf=tight
 -------------------------

 --------------------
 tmpdir/M2_ref_49.gjf
 --------------------
 Symbolic Z-matrix:
 Charge =  0 Multiplicity = 1

                         Standard orientation:
 ---------------------------------------------------------------------
 Center     Atomic      Atomic             Coordinates (Angstroms)
 Number     Number       Type             X           Y           Z
 ---------------------------------------------------------------------
      1          6           0        0.529468    0.000574    0.000060
      2          1           0        1.196796   -0.852541    0.000070
      3          8           0       -0.655044   -0.023208   -0.000073
      4          1           0        0.866749    1.034760    0.000152
 ---------------------------------------------------------------------

 SCF Done:  E(RM062X) =  -114.437644916     A.U. after   13 cycles

 The electronic state is 1-A.
 Alpha  occ. eigenvalues --  -19.65276 -10.63726  -1.19132  -0.71955  -0.59005
 Alpha  occ. eigenvalues --   -0.52483  -0.47161  -0.33235
 Alpha virt. eigenvalues --    0.02173   0.15620   0.22943   0.28039   0.56752
 Alpha virt. eigenvalues --    0.65008   0.70917   0.78134   0.90123   0.95966
 Alpha virt. eigenvalues --    0.96354   1.04877   1.13686   1.44393   1.55176

 Mulliken charges:
               1
     1  C    0.068416
     2  H    0.144503
     3  O   -0.342780
     4  H    0.129862
 Sum of Mulliken charges =   0.00000

 Dipole moment (field-independent basis, Debye):
    X=              2.2233    Y=              0.0001    Z=              0.0002  Tot=              2.2233
 Quadrupole moment (field-independent basis, Debye-Ang):
   XX=            -11.9702   YY=            -11.2965   ZZ=            -11.3929
   XY=             -0.3425   XZ=             -0.0001   YZ=             -0.0000

 Normal termination of Gaussian 16 at Fri Sep 22 17:01:37 2023.
