 Gaussian 16, Revision A.03,
 Gaussian 16:  ES64L-G16RevA.03 25-Dec-2016

 -------------------------
 #m062x/6-31g(d) scf=tight
 -------------------------

 --------------------
 tmpdir/M2_ref_52.gjf
 --------------------
 Symbolic Z-matrix:
 Charge =  0 Multiplicity = 1

                         Standard orientation:
 ---------------------------------------------------------------------
 Center     Atomic      Atomic             Coordinates (Angstroms)
 Number     Number       Type             X           Y           Z
 ---------------------------------------------------------------------
      1          6           0        1.178703   -0.272599   -0.000151
      2          6           0        0.145290    0.586450    0.000000
      3          6           0       -1.142098   -0.188658    0.000127
      4          1           0        0.805494   -1.269373   -0.000089
      5          1           0        2.230808   -0.011214   -0.000271
      6          1           0        0.199192    1.668220    0.000010
      7          1           0       -0.807845   -1.223826    0.000078
      8          1           0       -1.759616    0.042532   -0.878868
      9          1           0       -1.759403    0.042503    0.879281
 ---------------------------------------------------------------------

 SCF Done:  E(RM062X) =  -117.814510902     A.U. after   12 cycles

 The electronic state is 1-A.
 Alpha  occ. eigenvalues --  -10.54626 -10.53398 -10.53006  -0.89262  -0.75448
 Alpha  occ. eigenvalues --   -0.63868  -0.54779  -0.47174  -0.45528  -0.43629
 Alpha  occ. eigenvalues --   -0.40422  -0.30395
 Alpha virt. eigenvalues --    0.06676   0.15833   0.17971   0.20318   0.22122
 Alpha virt. eigenvalues --    0.23058   0.26587   0.33955   0.41522   0.53692
 Alpha virt. eigenvalues --    0.58371   0.62887   0.65857   0.68014   0.71604

 Mulliken charges:
               1
     1  C   -0.371566
     2  C   -0.081542
     3  C   -0.515954
     4  H    0.150111
     5  H    0.160609
     6  H    0.165584
     7  H    0.161281
     8  H    0.165740
     9  H    0.165737
 Sum of Mulliken charges =  -0.00000

 Dipole moment (field-independent basis, Debye):
    X=             -0.2229    Y=              0.1789    Z=              0.0000  Tot=              0.2858
 Quadrupole moment (field-independent basis, Debye-Ang):
   XX=            -19.3540   YY=            -18.6361   ZZ=            -21.4847
   XY=             -0.1327   XZ=             -0.0002   YZ=              0.0000

 Normal termination of Gaussian 16 at Fri Sep 22 17:01:39 2023.
