 Gaussian 16, Revision A.03,
 Gaussian 16:  ES64L-G16RevA.03 25-Dec-2016

 -------------------------
 #m062x/6-31g(d) scf=tight
 -------------------------

 --------------------
 tmpdir/M2_ref_17.gjf
 --------------------
 Symbolic Z-matrix:
 Charge =  0 Multiplicity = 1

                         Standard orientation:
 ---------------------------------------------------------------------
 Center     Atomic      Atomic             Coordinates (Angstroms)
 Number     Number       Type             X           Y           Z
 ---------------------------------------------------------------------
      1          6           0        1.711979   -0.259183   -0.000055
      2          6           0        0.463508    0.636351    0.000065
      3          6           0       -0.728543   -0.327356   -0.000064
      4          1           0        1.310180   -1.276127   -0.000078
      5          1           0        2.347742   -0.096397    0.877265
      6          1           0        2.347633   -0.096315   -0.877438
      7          1           0        0.397503    1.282111   -0.879632
      8          1           0        0.397509    1.281817    0.879983
      9          1           0       -0.330085   -1.325735   -0.000053
     10          8           0       -1.894018   -0.008528    0.000034
 ---------------------------------------------------------------------

 SCF Done:  E(RM062X) =  -193.029613472     A.U. after   14 cycles

 The electronic state is 1-A.
 Alpha  occ. eigenvalues --  -19.64674 -10.63768 -10.55556 -10.54817  -1.16948
 Alpha  occ. eigenvalues --   -0.89210  -0.74027  -0.67997  -0.54150  -0.53624
 Alpha  occ. eigenvalues --   -0.52269  -0.45852  -0.45109  -0.43657  -0.40905
 Alpha  occ. eigenvalues --   -0.32440
 Alpha virt. eigenvalues --    0.02041   0.14552   0.15291   0.17564   0.20018
 Alpha virt. eigenvalues --    0.22731   0.26663   0.28436   0.32266   0.38633
 Alpha virt. eigenvalues --    0.53799   0.57832   0.60478   0.65435   0.68157

 Mulliken charges:
               1
     1  C   -0.516912
     2  C   -0.383697
     3  C    0.247961
     4  H    0.163775
     5  H    0.178534
     6  H    0.178536
     7  H    0.201324
     8  H    0.201327
     9  H    0.127423
    10  O   -0.398270
 Sum of Mulliken charges =  -0.00000

 Dipole moment (field-independent basis, Debye):
    X=              2.6246    Y=             -0.1339    Z=             -0.0001  Tot=              2.6280
 Quadrupole moment (field-independent basis, Debye-Ang):
   XX=            -30.7395   YY=            -24.2746   ZZ=            -23.9308
   XY=              0.6107   XZ=              0.0002   YZ=             -0.0000

 Normal termination of Gaussian 16 at Fri Sep 22 17:01:17 2023.
