 Gaussian 16, Revision A.03,
 Gaussian 16:  ES64L-G16RevA.03 25-Dec-2016

 ----------------
 # b3lyp/6-31g(d)
 ----------------

 ----------------------
 tmpdir/M1_conf_0_3.gjf
 ----------------------
 Symbolic Z-matrix:
 Charge =  0 Multiplicity = 1

                         Standard orientation:
 ---------------------------------------------------------------------
 Center     Atomic      Atomic             Coordinates (Angstroms)
 Number     Number       Type             X           Y           Z
 ---------------------------------------------------------------------
      1          6           0       -0.013881    0.008238    0.000963
      2          1           0       -0.296311   -0.708702    0.775790
      3          1           0       -0.917300    0.315405   -0.540957
      4          1           0        0.750160   -0.530890   -0.662223
      5          1           0        0.546736    0.874762    0.421610
 ---------------------------------------------------------------------

 SCF Done:  E(RB3LYP) =  -40.5152586733     A.U. after    9 cycles

 The electronic state is 1-A.
 Alpha  occ. eigenvalues --  -10.17509  -0.68493  -0.39721  -0.38968  -0.37053
 Alpha virt. eigenvalues --    0.11229   0.15908   0.17498   0.17642   0.53032
 Alpha virt. eigenvalues --    0.54040   0.54855   0.85932   0.89098   0.89569
 Alpha virt. eigenvalues --    0.92486   1.09150   1.65817   1.66847   2.19163

 Mulliken charges:
               1
     1  C   -0.619754
     2  H    0.159818
     3  H    0.160870
     4  H    0.143889
     5  H    0.155177
 Sum of Mulliken charges =  -0.00000

 Dipole moment (field-independent basis, Debye):
    X=              0.0020    Y=             -0.0188    Z=              0.0268  Tot=              0.0328
 Quadrupole moment (field-independent basis, Debye-Ang):
   XX=             -8.1032   YY=             -8.3074   ZZ=             -8.5059
   XY=              0.0289   XZ=              0.0621   YZ=             -0.0640

 Normal termination of Gaussian 16 at Fri Sep 22 09:31:49 2023.
