 Gaussian 16, Revision A.03,
 Gaussian 16:  ES64L-G16RevA.03 25-Dec-2016

 ----------------
 # b3lyp/6-31g(d)
 ----------------

 ----------------------
 tmpdir/M1_conf_0_1.gjf
 ----------------------
 Symbolic Z-matrix:
 Charge =  0 Multiplicity = 1

                         Standard orientation:
 ---------------------------------------------------------------------
 Center     Atomic      Atomic             Coordinates (Angstroms)
 Number     Number       Type             X           Y           Z
 ---------------------------------------------------------------------
      1          8           0       -0.000000    0.139977   -0.000000
      2          1           0        0.793816   -0.609354    0.000000
      3          1           0       -0.793816   -0.510466   -0.000000
 ---------------------------------------------------------------------

 SCF Done:  E(RB3LYP) =  -76.3959032952     A.U. after    9 cycles

 The electronic state is 1-A'.
 Alpha  occ. eigenvalues --  -19.15656  -0.96907  -0.47642  -0.37994  -0.28838
 Alpha virt. eigenvalues --    0.03405   0.11261   0.71852   0.79828   0.88945
 Alpha virt. eigenvalues --    0.89056   1.04368   1.20803   1.73266   1.76759
 Alpha virt. eigenvalues --    1.78575   2.17374   2.42026   3.49956

 Mulliken charges:
               1
     1  O   -0.728275
     2  H    0.354571
     3  H    0.373704
 Sum of Mulliken charges =  -0.00000

 Dipole moment (field-independent basis, Debye):
    X=             -0.0731    Y=             -2.1970    Z=             -0.0000  Tot=              2.1983
 Quadrupole moment (field-independent basis, Debye-Ang):
   XX=             -4.4963   YY=             -5.8276   ZZ=             -7.3754
   XY=             -0.1243   XZ=             -0.0000   YZ=              0.0000

 Normal termination of Gaussian 16 at Fri Sep 22 09:31:48 2023.
