 Gaussian 16, Revision A.03,
 Gaussian 16:  ES64L-G16RevA.03 25-Dec-2016

 ----------------
 # b3lyp/6-31g(d)
 ----------------

 ----------------------
 tmpdir/M1_conf_0_4.gjf
 ----------------------
 Symbolic Z-matrix:
 Charge =  0 Multiplicity = 1

                         Standard orientation:
 ---------------------------------------------------------------------
 Center     Atomic      Atomic             Coordinates (Angstroms)
 Number     Number       Type             X           Y           Z
 ---------------------------------------------------------------------
      1          6           0       -0.000021   -0.000568   -0.003902
      2          1           0       -0.500163   -0.216405    0.948096
      3          1           0       -0.698424   -0.288609   -0.795335
      4          1           0        0.967740   -0.579883   -0.069769
      5          1           0        0.230971    1.088304   -0.059578
 ---------------------------------------------------------------------

 SCF Done:  E(RB3LYP) =  -40.5169605221     A.U. after    9 cycles

 The electronic state is 1-A.
 Alpha  occ. eigenvalues --  -10.17340  -0.68586  -0.39280  -0.38412  -0.38242
 Alpha virt. eigenvalues --    0.11357   0.16627   0.17325   0.17545   0.53028
 Alpha virt. eigenvalues --    0.53947   0.54477   0.87394   0.88713   0.89234
 Alpha virt. eigenvalues --    0.93126   1.09411   1.65898   1.66152   2.19986

 Mulliken charges:
               1
     1  C   -0.621175
     2  H    0.157487
     3  H    0.159260
     4  H    0.150509
     5  H    0.153920
 Sum of Mulliken charges =   0.00000

 Dipole moment (field-independent basis, Debye):
    X=             -0.0354    Y=              0.0008    Z=              0.0152  Tot=              0.0386
 Quadrupole moment (field-independent basis, Debye-Ang):
   XX=             -8.1802   YY=             -8.2987   ZZ=             -8.3994
   XY=              0.0279   XZ=              0.0128   YZ=              0.0034

 Normal termination of Gaussian 16 at Fri Sep 22 09:31:49 2023.
