 Gaussian 16, Revision A.03,
 Gaussian 16:  ES64L-G16RevA.03 25-Dec-2016

 ----------------
 # b3lyp/6-31g(d)
 ----------------

 ----------------------
 tmpdir/M1_conf_0_5.gjf
 ----------------------
 Symbolic Z-matrix:
 Charge =  0 Multiplicity = 1

                         Standard orientation:
 ---------------------------------------------------------------------
 Center     Atomic      Atomic             Coordinates (Angstroms)
 Number     Number       Type             X           Y           Z
 ---------------------------------------------------------------------
      1          6           0        0.002837    0.005616   -0.004391
      2          1           0       -0.506030   -0.078595    0.963703
      3          1           0       -0.368415   -0.824416   -0.618732
      4          1           0       -0.264158    0.951552   -0.445357
      5          1           0        1.121583   -0.082235    0.126733
 ---------------------------------------------------------------------

 SCF Done:  E(RB3LYP) =  -40.5170313196     A.U. after    9 cycles

 The electronic state is 1-A.
 Alpha  occ. eigenvalues --  -10.16987  -0.68854  -0.39376  -0.38732  -0.38244
 Alpha virt. eigenvalues --    0.11547   0.16926   0.17333   0.18045   0.52921
 Alpha virt. eigenvalues --    0.53237   0.54513   0.87642   0.88919   0.90580
 Alpha virt. eigenvalues --    0.94501   1.09786   1.65659   1.65975   2.20037

 Mulliken charges:
               1
     1  C   -0.625055
     2  H    0.155961
     3  H    0.156524
     4  H    0.162696
     5  H    0.149874
 Sum of Mulliken charges =   0.00000

 Dipole moment (field-independent basis, Debye):
    X=             -0.0485    Y=              0.0004    Z=              0.0037  Tot=              0.0486
 Quadrupole moment (field-independent basis, Debye-Ang):
   XX=             -8.1789   YY=             -8.2409   ZZ=             -8.3915
   XY=             -0.0087   XZ=              0.0011   YZ=             -0.0232

 Normal termination of Gaussian 16 at Fri Sep 22 09:31:49 2023.
