 Gaussian 16, Revision A.03,
 Gaussian 16:  ES64L-G16RevA.03 25-Dec-2016

 ----------------
 # b3lyp/6-31g(d)
 ----------------

 ----------------------
 tmpdir/M1_conf_0_2.gjf
 ----------------------
 Symbolic Z-matrix:
 Charge =  0 Multiplicity = 1

                         Standard orientation:
 ---------------------------------------------------------------------
 Center     Atomic      Atomic             Coordinates (Angstroms)
 Number     Number       Type             X           Y           Z
 ---------------------------------------------------------------------
      1          7           0        0.010663   -0.005827   -0.075040
      2          1           0        0.072466    0.982856    0.169216
      3          1           0       -0.981911   -0.393925    0.167283
      4          1           0        0.834801   -0.548140    0.188782
 ---------------------------------------------------------------------

 SCF Done:  E(RB3LYP) =  -56.5377946417     A.U. after   10 cycles

 The electronic state is 1-A.
 Alpha  occ. eigenvalues --  -14.30382  -0.81747  -0.46166  -0.44125  -0.22650
 Alpha virt. eigenvalues --    0.07169   0.15745   0.17262   0.69302   0.72033
 Alpha virt. eigenvalues --    0.73899   0.81317   0.89682   0.92196   1.09198
 Alpha virt. eigenvalues --    1.69337   1.70313   2.05204   2.29615   2.38006

 Mulliken charges:
               1
     1  N   -0.917955
     2  H    0.306893
     3  H    0.296591
     4  H    0.314471
 Sum of Mulliken charges =  -0.00000

 Dipole moment (field-independent basis, Debye):
    X=             -0.0597    Y=              0.0663    Z=              1.3097  Tot=              1.3127
 Quadrupole moment (field-independent basis, Debye-Ang):
   XX=             -5.5021   YY=             -5.9412   ZZ=             -9.1929
   XY=             -0.0628   XZ=              0.0460   YZ=             -0.0048

 Normal termination of Gaussian 16 at Fri Sep 22 09:31:49 2023.
