 Gaussian 16, Revision A.03,
 Gaussian 16:  ES64L-G16RevA.03 25-Dec-2016

 ----------------
 # b3lyp/6-31g(d)
 ----------------

 -------------------
 tmpdir/M1_ref_1.gjf
 -------------------
 Symbolic Z-matrix:
 Charge =  0 Multiplicity = 1

                         Standard orientation:
 ---------------------------------------------------------------------
 Center     Atomic      Atomic             Coordinates (Angstroms)
 Number     Number       Type             X           Y           Z
 ---------------------------------------------------------------------
      1          8           0       -0.000000    0.129892    0.000000
      2          1           0        0.797904   -0.421513   -0.000000
      3          1           0       -0.797904   -0.617621   -0.000000
 ---------------------------------------------------------------------

 SCF Done:  E(RB3LYP) =  -76.3982446040     A.U. after   10 cycles

 The electronic state is 1-A'.
 Alpha  occ. eigenvalues --  -19.14902  -0.97706  -0.49277  -0.37125  -0.28816
 Alpha virt. eigenvalues --    0.03842   0.12837   0.72843   0.82895   0.89079
 Alpha virt. eigenvalues --    0.89213   1.05557   1.19105   1.73799   1.75869
 Alpha virt. eigenvalues --    1.78787   2.18222   2.49886   3.52189

 Mulliken charges:
               1
     1  O   -0.747932
     2  H    0.389193
     3  H    0.358739
 Sum of Mulliken charges =  -0.00000

 Dipole moment (field-independent basis, Debye):
    X=              0.1290    Y=             -2.1227    Z=             -0.0000  Tot=              2.1266
 Quadrupole moment (field-independent basis, Debye-Ang):
   XX=             -4.2991   YY=             -5.9342   ZZ=             -7.3216
   XY=              0.2728   XZ=              0.0000   YZ=             -0.0000

 Normal termination of Gaussian 16 at Fri Sep 22 09:31:47 2023.
