 Gaussian 16, Revision A.03,
 Gaussian 16:  ES64L-G16RevA.03 25-Dec-2016

 ----------------
 # b3lyp/6-31g(d)
 ----------------

 -----------------------
 tmpdir/M2_conf_0_18.gjf
 -----------------------
 Symbolic Z-matrix:
 Charge =  0 Multiplicity = 1

                         Standard orientation:
 ---------------------------------------------------------------------
 Center     Atomic      Atomic             Coordinates (Angstroms)
 Number     Number       Type             X           Y           Z
 ---------------------------------------------------------------------
      1          8           0        1.265629   -0.246539    0.140106
      2          7           0        0.043827    0.469277   -0.168093
      3          6           0       -1.244729   -0.208813    0.006357
      4          1           0        1.752230   -0.192070   -0.697122
      5          1           0        0.027040    1.196714    0.548572
      6          1           0       -2.006798    0.583003   -0.016354
      7          1           0       -1.309877   -0.708722    0.987185
      8          1           0       -1.426044   -0.938668   -0.804617
 ---------------------------------------------------------------------

 SCF Done:  E(RB3LYP) =  -171.011420179     A.U. after   13 cycles

 The electronic state is 1-A.
 Alpha  occ. eigenvalues --  -19.16418 -14.36374 -10.20874  -1.03918  -0.83242
 Alpha  occ. eigenvalues --   -0.65154  -0.50147  -0.47430  -0.42576  -0.40316
 Alpha  occ. eigenvalues --   -0.38232  -0.27977  -0.22711
 Alpha virt. eigenvalues --    0.07799   0.08999   0.13485   0.14170   0.17430
 Alpha virt. eigenvalues --    0.18245   0.23079   0.53909   0.56583   0.58467
 Alpha virt. eigenvalues --    0.70556   0.75259   0.78200   0.81540   0.84127

 Mulliken charges:
               1
     1  O   -0.534862
     2  N   -0.344242
     3  C   -0.294165
     4  H    0.411303
     5  H    0.308181
     6  H    0.155442
     7  H    0.141812
     8  H    0.156532
 Sum of Mulliken charges =  -0.00000

 Dipole moment (field-independent basis, Debye):
    X=             -0.6752    Y=              0.4358    Z=             -0.2599  Tot=              0.8446
 Quadrupole moment (field-independent basis, Debye-Ang):
   XX=            -16.6377   YY=            -18.8760   ZZ=            -18.7866
   XY=             -0.0266   XZ=             -2.6846   YZ=              2.1168

 Normal termination of Gaussian 16 at Wed Jun  5 15:18:38 2019.
