 Gaussian 16, Revision A.03,
 Gaussian 16:  ES64L-G16RevA.03 25-Dec-2016

 ----------------
 # b3lyp/6-31g(d)
 ----------------

 ----------------------
 tmpdir/M2_conf_0_3.gjf
 ----------------------
 Symbolic Z-matrix:
 Charge =  0 Multiplicity = 1

                         Standard orientation:
 ---------------------------------------------------------------------
 Center     Atomic      Atomic             Coordinates (Angstroms)
 Number     Number       Type             X           Y           Z
 ---------------------------------------------------------------------
      1          6           0        0.000161    0.479087   -0.000000
      2          1           0       -0.002096    1.556585   -0.000000
      3          7           0        0.000161   -0.633015    0.000000
 ---------------------------------------------------------------------

 SCF Done:  E(RB3LYP) =  -93.4173794661     A.U. after   10 cycles

 The electronic state is 1-A'.
 Alpha  occ. eigenvalues --  -14.34802 -10.23582  -0.93563  -0.60246  -0.37576
 Alpha  occ. eigenvalues --   -0.36897  -0.36897
 Alpha virt. eigenvalues --    0.03795   0.03795   0.08215   0.27533   0.51596
 Alpha virt. eigenvalues --    0.51596   0.63380   0.70744   0.77796   0.77796
 Alpha virt. eigenvalues --    0.82149   1.15134   1.46429   1.49366   1.49366

 Mulliken charges:
               1
     1  C    0.106464
     2  H    0.246112
     3  N   -0.352575
 Sum of Mulliken charges =   0.00000

 Dipole moment (field-independent basis, Debye):
    X=             -0.0026    Y=              2.9075    Z=             -0.0000  Tot=              2.9075
 Quadrupole moment (field-independent basis, Debye-Ang):
   XX=            -11.2505   YY=             -9.5696   ZZ=            -11.2505
   XY=             -0.0037   XZ=              0.0000   YZ=              0.0000

 Normal termination of Gaussian 16 at Wed Jun  5 15:18:31 2019.
