 Gaussian 16, Revision A.03,
 Gaussian 16:  ES64L-G16RevA.03 25-Dec-2016

 ----------------
 # b3lyp/6-31g(d)
 ----------------

 -----------------------
 tmpdir/M2_conf_0_33.gjf
 -----------------------
 Symbolic Z-matrix:
 Charge =  0 Multiplicity = 1

                         Standard orientation:
 ---------------------------------------------------------------------
 Center     Atomic      Atomic             Coordinates (Angstroms)
 Number     Number       Type             X           Y           Z
 ---------------------------------------------------------------------
      1          6           0       -1.255135   -0.259583    0.004816
      2          6           0        0.008285    0.624762   -0.004518
      3          6           0        1.239270   -0.280133   -0.006459
      4          1           0       -2.153475    0.301921    0.000503
      5          1           0       -1.240662   -0.928133   -0.867709
      6          1           0       -1.240977   -0.914049    0.888328
      7          1           0        0.005349    1.285363    0.870147
      8          1           0       -0.004123    1.264043   -0.893686
      9          1           0        2.211876    0.338539   -0.008893
     10          1           0        1.269387   -0.884388    0.911257
     11          1           0        1.198101   -0.973568   -0.862980
 ---------------------------------------------------------------------

 SCF Done:  E(RB3LYP) =  -119.140171115     A.U. after   11 cycles

 The electronic state is 1-A.
 Alpha  occ. eigenvalues --  -10.17799 -10.17625 -10.16681  -0.77566  -0.67124
 Alpha  occ. eigenvalues --   -0.58086  -0.45358  -0.43329  -0.39071  -0.37244
 Alpha  occ. eigenvalues --   -0.33876  -0.32844  -0.32426
 Alpha virt. eigenvalues --    0.09421   0.14406   0.14487   0.15248   0.16682
 Alpha virt. eigenvalues --    0.19240   0.19922   0.20148   0.22817   0.26065
 Alpha virt. eigenvalues --    0.51753   0.52746   0.55115   0.55420   0.57840

 Mulliken charges:
               1
     1  C   -0.437706
     2  C   -0.241360
     3  C   -0.426930
     4  H    0.148540
     5  H    0.138157
     6  H    0.138609
     7  H    0.134505
     8  H    0.135081
     9  H    0.126666
    10  H    0.142389
    11  H    0.142049
 Sum of Mulliken charges =   0.00000

 Dipole moment (field-independent basis, Debye):
    X=             -0.0692    Y=              0.0406    Z=              0.0218  Tot=              0.0831
 Quadrupole moment (field-independent basis, Debye-Ang):
   XX=            -22.1176   YY=            -21.5506   ZZ=            -21.2622
   XY=             -0.0584   XZ=              0.1066   YZ=              0.0587

 Normal termination of Gaussian 16 at Wed Jun  5 15:18:43 2019.
