 Gaussian 16, Revision A.03,
 Gaussian 16:  ES64L-G16RevA.03 25-Dec-2016

 ----------------
 # b3lyp/6-31g(d)
 ----------------

 -----------------------
 tmpdir/M2_conf_0_35.gjf
 -----------------------
 Symbolic Z-matrix:
 Charge =  0 Multiplicity = 1

                         Standard orientation:
 ---------------------------------------------------------------------
 Center     Atomic      Atomic             Coordinates (Angstroms)
 Number     Number       Type             X           Y           Z
 ---------------------------------------------------------------------
      1          6           0        0.773384   -0.011556   -0.004075
      2          6           0       -0.768742    0.002373    0.001880
      3          1           0       -1.180368   -0.347138   -0.950946
      4          1           0        1.177940   -0.972543   -0.191598
      5          1           0        1.143059    0.692440   -0.763151
      6          1           0        1.149507    0.358106    0.960806
      7          1           0       -1.174824    1.013307    0.192545
      8          1           0       -1.143166   -0.689075    0.765517
 ---------------------------------------------------------------------

 SCF Done:  E(RB3LYP) =  -79.8288982098     A.U. after   10 cycles

 The electronic state is 1-A.
 Alpha  occ. eigenvalues --  -10.17330 -10.16995  -0.74631  -0.61304  -0.43465
 Alpha  occ. eigenvalues --   -0.42652  -0.36033  -0.34567  -0.33657
 Alpha virt. eigenvalues --    0.10465   0.15677   0.16519   0.16649   0.18556
 Alpha virt. eigenvalues --    0.19514   0.23810   0.51567   0.54018   0.54488
 Alpha virt. eigenvalues --    0.62628   0.64411   0.66355   0.88235   0.88525

 Mulliken charges:
               1
     1  C   -0.434583
     2  C   -0.434852
     3  H    0.144011
     4  H    0.154206
     5  H    0.142108
     6  H    0.142574
     7  H    0.142905
     8  H    0.143630
 Sum of Mulliken charges =   0.00000

 Dipole moment (field-independent basis, Debye):
    X=              0.0160    Y=             -0.0237    Z=             -0.0058  Tot=              0.0292
 Quadrupole moment (field-independent basis, Debye-Ang):
   XX=            -15.2555   YY=            -14.5659   ZZ=            -14.8052
   XY=             -0.0681   XZ=              0.0320   YZ=              0.0218

 Normal termination of Gaussian 16 at Wed Jun  5 15:18:41 2019.
