 Gaussian 16, Revision A.03,
 Gaussian 16:  ES64L-G16RevA.03 25-Dec-2016

 ----------------
 # b3lyp/6-31g(d)
 ----------------

 -----------------------
 tmpdir/M2_conf_0_14.gjf
 -----------------------
 Symbolic Z-matrix:
 Charge =  0 Multiplicity = 1

                         Standard orientation:
 ---------------------------------------------------------------------
 Center     Atomic      Atomic             Coordinates (Angstroms)
 Number     Number       Type             X           Y           Z
 ---------------------------------------------------------------------
      1          7           0        0.644990   -0.012562    0.150029
      2          8           0       -0.683222    0.010468   -0.142782
      3          1           0        0.974523    0.868108   -0.248568
      4          1           0        1.064579   -0.776751   -0.392443
      5          1           0       -1.088251   -0.087163    0.733069
 ---------------------------------------------------------------------

 SCF Done:  E(RB3LYP) =  -131.699695920     A.U. after   11 cycles

 The electronic state is 1-A.
 Alpha  occ. eigenvalues --  -19.16137 -14.35875  -1.07618  -0.78592  -0.50718
 Alpha  occ. eigenvalues --   -0.49830  -0.43791  -0.27720  -0.23843
 Alpha virt. eigenvalues --    0.08570   0.09611   0.15625   0.20487   0.63313
 Alpha virt. eigenvalues --    0.72409   0.73515   0.81053   0.83706   0.88385
 Alpha virt. eigenvalues --    0.95036   0.95937   1.02999   1.21575   1.34220

 Mulliken charges:
               1
     1  N   -0.488603
     2  O   -0.537414
     3  H    0.309092
     4  H    0.307089
     5  H    0.409835
 Sum of Mulliken charges =  -0.00000

 Dipole moment (field-independent basis, Debye):
    X=              0.4752    Y=             -0.0128    Z=              0.0494  Tot=              0.4779
 Quadrupole moment (field-independent basis, Debye-Ang):
   XX=            -10.9249   YY=            -11.2394   ZZ=            -12.4988
   XY=              0.2839   XZ=             -3.6216   YZ=              0.0318

 Normal termination of Gaussian 16 at Wed Jun  5 15:18:34 2019.
