 Gaussian 16, Revision A.03,
 Gaussian 16:  ES64L-G16RevA.03 25-Dec-2016

 ----------------
 # b3lyp/6-31g(d)
 ----------------

 ----------------------
 tmpdir/M2_conf_0_0.gjf
 ----------------------
 Symbolic Z-matrix:
 Charge =  0 Multiplicity = 1

                         Standard orientation:
 ---------------------------------------------------------------------
 Center     Atomic      Atomic             Coordinates (Angstroms)
 Number     Number       Type             X           Y           Z
 ---------------------------------------------------------------------
      1          6           0       -0.629531   -0.002398    0.000047
      2          6           0        0.628565    0.000765   -0.000142
      3          1           0       -1.688872    0.008438    0.000077
      4          1           0        1.694667    0.001362    0.000497
 ---------------------------------------------------------------------

 SCF Done:  E(RB3LYP) =  -77.3204133615     A.U. after   10 cycles

 The electronic state is 1-A.
 Alpha  occ. eigenvalues --  -10.20440 -10.20270  -0.73299  -0.57273  -0.49146
 Alpha  occ. eigenvalues --   -0.27444  -0.27444
 Alpha virt. eigenvalues --    0.03649   0.03652   0.09863   0.14921   0.40319
 Alpha virt. eigenvalues --    0.47680   0.54031   0.54031   0.64326   0.64329
 Alpha virt. eigenvalues --    0.74648   0.83107   1.01226   1.13488   1.46826

 Mulliken charges:
               1
     1  C   -0.194575
     2  C   -0.194879
     3  H    0.193638
     4  H    0.195816
 Sum of Mulliken charges =   0.00000

 Dipole moment (field-independent basis, Debye):
    X=              0.0068    Y=              0.0110    Z=              0.0006  Tot=              0.0130
 Quadrupole moment (field-independent basis, Debye-Ang):
   XX=             -6.5950   YY=            -13.2051   ZZ=            -13.2053
   XY=             -0.0153   XZ=              0.0009   YZ=              0.0000

 Normal termination of Gaussian 16 at Wed Jun  5 15:18:31 2019.
