 Gaussian 16, Revision A.03,
 Gaussian 16:  ES64L-G16RevA.03 25-Dec-2016

 ----------------
 # b3lyp/6-31g(d)
 ----------------

 ----------------------
 tmpdir/M2_conf_0_4.gjf
 ----------------------
 Symbolic Z-matrix:
 Charge =  0 Multiplicity = 1

                         Standard orientation:
 ---------------------------------------------------------------------
 Center     Atomic      Atomic             Coordinates (Angstroms)
 Number     Number       Type             X           Y           Z
 ---------------------------------------------------------------------
      1          6           0        0.586578    0.018808   -0.000858
      2          6           0       -0.612708   -0.122645    0.000390
      3          1           0       -1.483300    0.492693    0.000049
      4          1           0        1.640082    0.130326    0.002759
 ---------------------------------------------------------------------

 SCF Done:  E(RB3LYP) =  -77.3102153753     A.U. after   12 cycles

 The electronic state is 1-A.
 Alpha  occ. eigenvalues --  -10.19795 -10.18601  -0.75098  -0.56560  -0.47854
 Alpha  occ. eigenvalues --   -0.28687  -0.28496
 Alpha virt. eigenvalues --   -0.00186   0.05142   0.12382   0.17415   0.40058
 Alpha virt. eigenvalues --    0.46916   0.53063   0.55610   0.63292   0.65379
 Alpha virt. eigenvalues --    0.71337   0.80392   0.93840   1.15118   1.23598

 Mulliken charges:
               1
     1  C   -0.078033
     2  C   -0.301491
     3  H    0.193526
     4  H    0.185998
 Sum of Mulliken charges =   0.00000

 Dipole moment (field-independent basis, Debye):
    X=              0.4713    Y=              0.7447    Z=              0.0031  Tot=              0.8813
 Quadrupole moment (field-independent basis, Debye-Ang):
   XX=             -7.9211   YY=            -12.5656   ZZ=            -13.0630
   XY=             -0.7385   XZ=              0.0058   YZ=              0.0004

 Normal termination of Gaussian 16 at Wed Jun  5 15:18:32 2019.
