 Gaussian 16, Revision A.03,
 Gaussian 16:  ES64L-G16RevA.03 25-Dec-2016

 ----------------
 # b3lyp/6-31g(d)
 ----------------

 -----------------------
 tmpdir/M2_conf_0_26.gjf
 -----------------------
 Symbolic Z-matrix:
 Charge =  0 Multiplicity = 1

                         Standard orientation:
 ---------------------------------------------------------------------
 Center     Atomic      Atomic             Coordinates (Angstroms)
 Number     Number       Type             X           Y           Z
 ---------------------------------------------------------------------
      1          7           0        0.747150    0.024381   -0.151228
      2          6           0       -0.709404   -0.010551    0.015663
      3          1           0       -1.023801   -0.211443    1.053435
      4          1           0        1.179412   -0.919567    0.375970
      5          1           0        1.107468    0.785080    0.427182
      6          1           0       -1.065434    0.998089   -0.237576
      7          1           0       -1.171270   -0.759516   -0.654392
 ---------------------------------------------------------------------

 SCF Done:  E(RB3LYP) =  -95.8400989653     A.U. after   11 cycles

 The electronic state is 1-A.
 Alpha  occ. eigenvalues --  -14.32329 -10.20134  -0.86117  -0.64688  -0.46969
 Alpha  occ. eigenvalues --   -0.43363  -0.39365  -0.35591  -0.23383
 Alpha virt. eigenvalues --    0.06236   0.12571   0.14119   0.17535   0.17982
 Alpha virt. eigenvalues --    0.23308   0.54607   0.56564   0.58792   0.72063
 Alpha virt. eigenvalues --    0.74648   0.80158   0.83274   0.86960   0.91507

 Mulliken charges:
               1
     1  N   -0.676639
     2  C   -0.299618
     3  H    0.124092
     4  H    0.248137
     5  H    0.297834
     6  H    0.150831
     7  H    0.155363
 Sum of Mulliken charges =   0.00000

 Dipole moment (field-independent basis, Debye):
    X=             -0.3480    Y=             -0.0256    Z=              1.5853  Tot=              1.6232
 Quadrupole moment (field-independent basis, Debye-Ang):
   XX=            -14.0984   YY=            -12.5933   ZZ=            -15.0914
   XY=             -0.1074   XZ=              2.2340   YZ=              0.1968

 Normal termination of Gaussian 16 at Wed Jun  5 15:18:38 2019.
