 Gaussian 16, Revision A.03,
 Gaussian 16:  ES64L-G16RevA.03 25-Dec-2016

 ----------------
 # b3lyp/6-31g(d)
 ----------------

 ----------------------
 tmpdir/M2_conf_0_1.gjf
 ----------------------
 Symbolic Z-matrix:
 Charge =  0 Multiplicity = 1

                         Standard orientation:
 ---------------------------------------------------------------------
 Center     Atomic      Atomic             Coordinates (Angstroms)
 Number     Number       Type             X           Y           Z
 ---------------------------------------------------------------------
      1          6           0        0.307788   -0.002927   -0.000066
      2          6           0       -1.180380    0.006761   -0.000235
      3          7           0        1.419867    0.004003    0.000039
      4          1           0       -1.547129   -0.529409    0.886598
      5          1           0       -1.546501   -0.558736   -0.869312
      6          1           0       -1.609890    1.037118   -0.015751
 ---------------------------------------------------------------------

 SCF Done:  E(RB3LYP) =  -132.747853909     A.U. after   12 cycles

 The electronic state is 1-A.
 Alpha  occ. eigenvalues --  -14.32221 -10.24418 -10.22197  -0.91962  -0.76930
 Alpha  occ. eigenvalues --   -0.50963  -0.46201  -0.45824  -0.35515  -0.33841
 Alpha  occ. eigenvalues --   -0.33701
 Alpha virt. eigenvalues --    0.04871   0.05247   0.08204   0.16066   0.16325
 Alpha virt. eigenvalues --    0.17796   0.28247   0.52263   0.52734   0.57237
 Alpha virt. eigenvalues --    0.61815   0.63985   0.68880   0.78172   0.80820

 Mulliken charges:
               1
     1  C    0.338181
     2  C   -0.521164
     3  N   -0.432874
     4  H    0.205610
     5  H    0.205556
     6  H    0.204691
 Sum of Mulliken charges =  -0.00000

 Dipole moment (field-independent basis, Debye):
    X=             -3.7611    Y=             -0.0373    Z=              0.0011  Tot=              3.7613
 Quadrupole moment (field-independent basis, Debye-Ang):
   XX=            -20.3296   YY=            -17.0577   ZZ=            -17.2426
   XY=             -0.0134   XZ=             -0.0025   YZ=              0.0001

 Normal termination of Gaussian 16 at Wed Jun  5 15:18:33 2019.
