 Gaussian 16, Revision A.03,
 Gaussian 16:  ES64L-G16RevA.03 25-Dec-2016

 ----------------
 # b3lyp/6-31g(d)
 ----------------

 -----------------------
 tmpdir/M2_conf_0_20.gjf
 -----------------------
 Symbolic Z-matrix:
 Charge =  0 Multiplicity = 1

                         Standard orientation:
 ---------------------------------------------------------------------
 Center     Atomic      Atomic             Coordinates (Angstroms)
 Number     Number       Type             X           Y           Z
 ---------------------------------------------------------------------
      1          8           0        0.000000    0.137180   -0.000000
      2          1           0        0.850352   -0.547284   -0.000000
      3          1           0       -0.850352   -0.550159    0.000000
 ---------------------------------------------------------------------

 SCF Done:  E(RB3LYP) =  -76.3882187221     A.U. after   10 cycles

 The electronic state is 1-A'.
 Alpha  occ. eigenvalues --  -19.15935  -0.95394  -0.47353  -0.36821  -0.28513
 Alpha virt. eigenvalues --    0.02577   0.09992   0.72519   0.75718   0.89083
 Alpha virt. eigenvalues --    0.89100   1.04669   1.18073   1.75057   1.77133
 Alpha virt. eigenvalues --    1.79478   2.14251   2.36920   3.49211

 Mulliken charges:
               1
     1  O   -0.720099
     2  H    0.360319
     3  H    0.359780
 Sum of Mulliken charges =   0.00000

 Dipole moment (field-independent basis, Debye):
    X=              0.0020    Y=             -2.1243    Z=              0.0000  Tot=              2.1243
 Quadrupole moment (field-independent basis, Debye-Ang):
   XX=             -4.2014   YY=             -5.9789   ZZ=             -7.4351
   XY=              0.0040   XZ=             -0.0000   YZ=              0.0000

 Normal termination of Gaussian 16 at Wed Jun  5 15:18:34 2019.
