 Gaussian 16, Revision A.03,
 Gaussian 16:  ES64L-G16RevA.03 25-Dec-2016

 ----------------
 # b3lyp/6-31g(d)
 ----------------

 -----------------------
 tmpdir/M2_conf_0_15.gjf
 -----------------------
 Symbolic Z-matrix:
 Charge =  0 Multiplicity = 1

                         Standard orientation:
 ---------------------------------------------------------------------
 Center     Atomic      Atomic             Coordinates (Angstroms)
 Number     Number       Type             X           Y           Z
 ---------------------------------------------------------------------
      1          7           0       -0.027550    0.001692   -0.122967
      2          1           0       -0.180448    0.916311    0.302598
      3          1           0        1.046872   -0.267085    0.236483
      4          1           0       -0.673571   -0.661069    0.321686
 ---------------------------------------------------------------------

 SCF Done:  E(RB3LYP) =  -56.5353151994     A.U. after   10 cycles

 The electronic state is 1-A.
 Alpha  occ. eigenvalues --  -14.32043  -0.82878  -0.45593  -0.42233  -0.25223
 Alpha virt. eigenvalues --    0.05912   0.13694   0.16724   0.68396   0.70042
 Alpha virt. eigenvalues --    0.72615   0.81967   0.90568   0.91228   1.14547
 Alpha virt. eigenvalues --    1.68401   1.68914   1.90674   2.27673   2.39800

 Mulliken charges:
               1
     1  N   -0.863701
     2  H    0.302072
     3  H    0.257947
     4  H    0.303682
 Sum of Mulliken charges =  -0.00000

 Dipole moment (field-independent basis, Debye):
    X=              0.1431    Y=              0.0229    Z=              1.8861  Tot=              1.8917
 Quadrupole moment (field-independent basis, Debye-Ang):
   XX=             -6.1013   YY=             -6.2680   ZZ=             -8.9052
   XY=              0.0932   XZ=             -0.1454   YZ=              0.0251

 Normal termination of Gaussian 16 at Wed Jun  5 15:18:33 2019.
