 Gaussian 16, Revision A.03,
 Gaussian 16:  ES64L-G16RevA.03 25-Dec-2016

 ----------------
 # b3lyp/6-31g(d)
 ----------------

 ----------------------
 tmpdir/M2_conf_0_7.gjf
 ----------------------
 Symbolic Z-matrix:
 Charge =  0 Multiplicity = 1

                         Standard orientation:
 ---------------------------------------------------------------------
 Center     Atomic      Atomic             Coordinates (Angstroms)
 Number     Number       Type             X           Y           Z
 ---------------------------------------------------------------------
      1          6           0       -0.780316   -0.010851    0.000305
      2          6           0        0.780428    0.002321   -0.000917
      3          1           0       -1.185980   -0.987762    0.058653
      4          1           0       -1.150945    0.587227    0.844936
      5          1           0       -1.154250    0.483255   -0.908073
      6          1           0        1.187664    1.029152   -0.055790
      7          1           0        1.155825   -0.582569   -0.848509
      8          1           0        1.147011   -0.478125    0.912459
 ---------------------------------------------------------------------

 SCF Done:  E(RB3LYP) =  -79.8285239667     A.U. after   10 cycles

 The electronic state is 1-A.
 Alpha  occ. eigenvalues --  -10.17463 -10.17063  -0.74318  -0.61338  -0.43319
 Alpha  occ. eigenvalues --   -0.42612  -0.35724  -0.34568  -0.33869
 Alpha virt. eigenvalues --    0.10430   0.15603   0.16699   0.16729   0.18442
 Alpha virt. eigenvalues --    0.19460   0.23098   0.52035   0.53882   0.54375
 Alpha virt. eigenvalues --    0.62470   0.64446   0.65481   0.88534   0.88716

 Mulliken charges:
               1
     1  C   -0.437011
     2  C   -0.434745
     3  H    0.154357
     4  H    0.142290
     5  H    0.142184
     6  H    0.143800
     7  H    0.144533
     8  H    0.144592
 Sum of Mulliken charges =   0.00000

 Dipole moment (field-independent basis, Debye):
    X=             -0.0173    Y=             -0.0249    Z=              0.0052  Tot=              0.0308
 Quadrupole moment (field-independent basis, Debye-Ang):
   XX=            -15.2838   YY=            -14.5625   ZZ=            -14.7829
   XY=              0.0881   XZ=             -0.0079   YZ=             -0.0059

 Normal termination of Gaussian 16 at Wed Jun  5 15:18:33 2019.
