 Gaussian 16, Revision A.03,
 Gaussian 16:  ES64L-G16RevA.03 25-Dec-2016

 ----------------
 # b3lyp/6-31g(d)
 ----------------

 -------------------
 tmpdir/M2_ref_3.gjf
 -------------------
 Symbolic Z-matrix:
 Charge =  0 Multiplicity = 1

                         Standard orientation:
 ---------------------------------------------------------------------
 Center     Atomic      Atomic             Coordinates (Angstroms)
 Number     Number       Type             X           Y           Z
 ---------------------------------------------------------------------
      1          6           0        0.000000   -0.000000    0.479922
      2          1           0        0.000000   -0.000000    1.546046
      3          7           0       -0.000000    0.000000   -0.632225
 ---------------------------------------------------------------------

 SCF Done:  E(RB3LYP) =  -93.4174358537     A.U. after   10 cycles

 The electronic state is 1-SG.
 Alpha  occ. eigenvalues --  -14.34817 -10.23510  -0.93574  -0.60570  -0.37595
 Alpha  occ. eigenvalues --   -0.36913  -0.36913
 Alpha virt. eigenvalues --    0.03765   0.03765   0.08643   0.27415   0.51597
 Alpha virt. eigenvalues --    0.51597   0.63373   0.70601   0.77786   0.77786
 Alpha virt. eigenvalues --    0.82667   1.16041   1.46418   1.49348   1.49348

 Mulliken charges:
               1
     1  C    0.107692
     2  H    0.244750
     3  N   -0.352442
 Sum of Mulliken charges =   0.00000

 Dipole moment (field-independent basis, Debye):
    X=              0.0000    Y=             -0.0000    Z=              2.8951  Tot=              2.8951
 Quadrupole moment (field-independent basis, Debye-Ang):
   XX=            -11.2380   YY=            -11.2380   ZZ=             -9.5995
   XY=              0.0000   XZ=             -0.0000   YZ=              0.0000

 Normal termination of Gaussian 16 at Wed Jun  5 15:18:17 2019.
