 Gaussian 16, Revision A.03,
 Gaussian 16:  ES64L-G16RevA.03 25-Dec-2016

 ----------------
 # b3lyp/6-31g(d)
 ----------------

 --------------------
 tmpdir/M2_ref_18.gjf
 --------------------
 Symbolic Z-matrix:
 Charge =  0 Multiplicity = 1

                         Standard orientation:
 ---------------------------------------------------------------------
 Center     Atomic      Atomic             Coordinates (Angstroms)
 Number     Number       Type             X           Y           Z
 ---------------------------------------------------------------------
      1          8           0        1.174829   -0.289784    0.133605
      2          7           0        0.045112    0.568029   -0.163242
      3          6           0       -1.169615   -0.236961    0.001103
      4          1           0        1.696621   -0.231648   -0.681901
      5          1           0        0.074606    1.244743    0.601097
      6          1           0       -2.002000    0.479777    0.043070
      7          1           0       -1.159979   -0.795424    0.951947
      8          1           0       -1.305971   -0.933614   -0.846977
 ---------------------------------------------------------------------

 SCF Done:  E(RB3LYP) =  -171.017930188     A.U. after   13 cycles

 The electronic state is 1-A.
 Alpha  occ. eigenvalues --  -19.16125 -14.36748 -10.20480  -1.04253  -0.82834
 Alpha  occ. eigenvalues --   -0.65257  -0.50374  -0.47493  -0.42554  -0.39575
 Alpha  occ. eigenvalues --   -0.38093  -0.27871  -0.23634
 Alpha virt. eigenvalues --    0.08209   0.09246   0.13661   0.14571   0.17704
 Alpha virt. eigenvalues --    0.18259   0.21978   0.54686   0.57422   0.58782
 Alpha virt. eigenvalues --    0.68925   0.74536   0.78570   0.81113   0.83894

 Mulliken charges:
               1
     1  O   -0.539359
     2  N   -0.344027
     3  C   -0.285515
     4  H    0.407863
     5  H    0.314598
     6  H    0.143685
     7  H    0.145286
     8  H    0.157468
 Sum of Mulliken charges =  -0.00000

 Dipole moment (field-independent basis, Debye):
    X=             -0.4827    Y=              0.3915    Z=             -0.1570  Tot=              0.6410
 Quadrupole moment (field-independent basis, Debye-Ang):
   XX=            -16.8254   YY=            -18.9566   ZZ=            -18.6687
   XY=              0.1340   XZ=             -2.4984   YZ=              2.3528

 Normal termination of Gaussian 16 at Wed Jun  5 15:18:24 2019.
