 Gaussian 16, Revision A.03,
 Gaussian 16:  ES64L-G16RevA.03 25-Dec-2016

 ----------------
 # b3lyp/6-31g(d)
 ----------------

 -------------------
 tmpdir/M2_ref_2.gjf
 -------------------
 Symbolic Z-matrix:
 Charge =  0 Multiplicity = 1

                         Standard orientation:
 ---------------------------------------------------------------------
 Center     Atomic      Atomic             Coordinates (Angstroms)
 Number     Number       Type             X           Y           Z
 ---------------------------------------------------------------------
      1          6           0        1.426393    0.003146   -0.000091
      2          6           0        0.218817   -0.003425   -0.000125
      3          6           0       -1.244593    0.007256   -0.000191
      4          1           0        2.492512    0.006911    0.000697
      5          1           0       -1.611713   -0.528789    0.886611
      6          1           0       -1.611286   -0.557937   -0.869284
      7          1           0       -1.673215    1.037952   -0.015581
 ---------------------------------------------------------------------

 SCF Done:  E(RB3LYP) =  -116.652506025     A.U. after   12 cycles

 The electronic state is 1-A.
 Alpha  occ. eigenvalues --  -10.20966 -10.18413 -10.17182  -0.77267  -0.69342
 Alpha  occ. eigenvalues --   -0.52337  -0.44686  -0.43059  -0.42654  -0.25982
 Alpha  occ. eigenvalues --   -0.25855
 Alpha virt. eigenvalues --    0.06033   0.06326   0.10756   0.13248   0.17896
 Alpha virt. eigenvalues --    0.18102   0.23638   0.40234   0.46369   0.52797
 Alpha virt. eigenvalues --    0.53164   0.62197   0.63723   0.72027   0.72953

 Mulliken charges:
               1
     1  C   -0.459671
     2  C    0.302656
     3  C   -0.571794
     4  H    0.183229
     5  H    0.182733
     6  H    0.182674
     7  H    0.180173
 Sum of Mulliken charges =  -0.00000

 Dipole moment (field-independent basis, Debye):
    X=             -0.6813    Y=             -0.0314    Z=              0.0021  Tot=              0.6820
 Quadrupole moment (field-independent basis, Debye-Ang):
   XX=            -13.8016   YY=            -18.9602   ZZ=            -19.1325
   XY=              0.0188   XZ=             -0.0000   YZ=              0.0001

 Normal termination of Gaussian 16 at Wed Jun  5 15:18:19 2019.
