 Gaussian 16, Revision A.03,
 Gaussian 16:  ES64L-G16RevA.03 25-Dec-2016

 ----------------
 # b3lyp/6-31g(d)
 ----------------

 --------------------
 tmpdir/M2_ref_33.gjf
 --------------------
 Symbolic Z-matrix:
 Charge =  0 Multiplicity = 1

                         Standard orientation:
 ---------------------------------------------------------------------
 Center     Atomic      Atomic             Coordinates (Angstroms)
 Number     Number       Type             X           Y           Z
 ---------------------------------------------------------------------
      1          6           0       -1.282747   -0.247945    0.004869
      2          6           0        0.007489    0.596780   -0.004881
      3          6           0        1.263577   -0.272969   -0.006173
      4          1           0       -2.163180    0.341188   -0.000263
      5          1           0       -1.288693   -0.917451   -0.867063
      6          1           0       -1.289114   -0.901775    0.889004
      7          1           0        0.024773    1.257890    0.869219
      8          1           0        0.015231    1.235319   -0.894614
      9          1           0        2.218287    0.372923   -0.008973
     10          1           0        1.310779   -0.875491    0.912021
     11          1           0        1.242005   -0.967800   -0.862224
 ---------------------------------------------------------------------

 SCF Done:  E(RB3LYP) =  -119.140770673     A.U. after   11 cycles

 The electronic state is 1-A.
 Alpha  occ. eigenvalues --  -10.17771 -10.17625 -10.16771  -0.77430  -0.67374
 Alpha  occ. eigenvalues --   -0.57931  -0.45291  -0.43240  -0.39226  -0.37421
 Alpha  occ. eigenvalues --   -0.33609  -0.32938  -0.32421
 Alpha virt. eigenvalues --    0.09361   0.14534   0.14678   0.15302   0.16703
 Alpha virt. eigenvalues --    0.19155   0.19547   0.19877   0.22608   0.26457
 Alpha virt. eigenvalues --    0.51534   0.51993   0.55127   0.55738   0.58038

 Mulliken charges:
               1
     1  C   -0.437608
     2  C   -0.241199
     3  C   -0.427679
     4  H    0.150664
     5  H    0.138331
     6  H    0.138747
     7  H    0.133468
     8  H    0.134177
     9  H    0.128310
    10  H    0.141518
    11  H    0.141270
 Sum of Mulliken charges =  -0.00000

 Dipole moment (field-independent basis, Debye):
    X=             -0.0675    Y=              0.0433    Z=              0.0206  Tot=              0.0828
 Quadrupole moment (field-independent basis, Debye-Ang):
   XX=            -21.9961   YY=            -21.6073   ZZ=            -21.2763
   XY=             -0.0083   XZ=              0.1040   YZ=              0.0609

 Normal termination of Gaussian 16 at Wed Jun  5 15:18:29 2019.
