 Gaussian 16, Revision A.03,
 Gaussian 16:  ES64L-G16RevA.03 25-Dec-2016

 ----------------
 # b3lyp/6-31g(d)
 ----------------

 --------------------
 tmpdir/M2_ref_15.gjf
 --------------------
 Symbolic Z-matrix:
 Charge =  0 Multiplicity = 1

                         Standard orientation:
 ---------------------------------------------------------------------
 Center     Atomic      Atomic             Coordinates (Angstroms)
 Number     Number       Type             X           Y           Z
 ---------------------------------------------------------------------
      1          7           0       -0.027534    0.001502   -0.123011
      2          1           0       -0.181465    0.917134    0.302370
      3          1           0        1.047124   -0.265992    0.236697
      4          1           0       -0.672924   -0.661655    0.322012
 ---------------------------------------------------------------------

 SCF Done:  E(RB3LYP) =  -56.5353141974     A.U. after   10 cycles

 The electronic state is 1-A.
 Alpha  occ. eigenvalues --  -14.32053  -0.82863  -0.45582  -0.42227  -0.25223
 Alpha virt. eigenvalues --    0.05906   0.13685   0.16707   0.68411   0.70042
 Alpha virt. eigenvalues --    0.72612   0.81962   0.90546   0.91163   1.14539
 Alpha virt. eigenvalues --    1.68410   1.68921   1.90665   2.27642   2.39723

 Mulliken charges:
               1
     1  N   -0.863568
     2  H    0.301861
     3  H    0.257979
     4  H    0.303728
 Sum of Mulliken charges =  -0.00000

 Dipole moment (field-independent basis, Debye):
    X=              0.1430    Y=              0.0240    Z=              1.8860  Tot=              1.8916
 Quadrupole moment (field-independent basis, Debye-Ang):
   XX=             -6.1025   YY=             -6.2672   ZZ=             -8.9061
   XY=              0.0932   XZ=             -0.1453   YZ=              0.0239

 Normal termination of Gaussian 16 at Wed Jun  5 15:18:19 2019.
