 Gaussian 16, Revision A.03,
 Gaussian 16:  ES64L-G16RevA.03 25-Dec-2016

 ----------------
 # b3lyp/6-31g(d)
 ----------------

 -------------------
 tmpdir/M2_ref_1.gjf
 -------------------
 Symbolic Z-matrix:
 Charge =  0 Multiplicity = 1

                         Standard orientation:
 ---------------------------------------------------------------------
 Center     Atomic      Atomic             Coordinates (Angstroms)
 Number     Number       Type             X           Y           Z
 ---------------------------------------------------------------------
      1          6           0        0.297648   -0.002875   -0.000068
      2          6           0       -1.165769    0.006754   -0.000232
      3          7           0        1.409774    0.003977    0.000038
      4          1           0       -1.532563   -0.529601    0.886518
      5          1           0       -1.531997   -0.558658   -0.869378
      6          1           0       -1.595132    1.037143   -0.015599
 ---------------------------------------------------------------------

 SCF Done:  E(RB3LYP) =  -132.748298102     A.U. after   13 cycles

 The electronic state is 1-A.
 Alpha  occ. eigenvalues --  -14.32153 -10.24185 -10.22049  -0.91979  -0.77335
 Alpha  occ. eigenvalues --   -0.51224  -0.46379  -0.46012  -0.35493  -0.33721
 Alpha  occ. eigenvalues --   -0.33573
 Alpha virt. eigenvalues --    0.04815   0.05193   0.08269   0.16224   0.16492
 Alpha virt. eigenvalues --    0.19001   0.27981   0.52386   0.52887   0.57403
 Alpha virt. eigenvalues --    0.61825   0.64039   0.68886   0.78761   0.80923

 Mulliken charges:
               1
     1  C    0.341936
     2  C   -0.524084
     3  N   -0.434584
     4  H    0.205900
     5  H    0.205841
     6  H    0.204990
 Sum of Mulliken charges =  -0.00000

 Dipole moment (field-independent basis, Debye):
    X=             -3.7450    Y=             -0.0376    Z=              0.0011  Tot=              3.7452
 Quadrupole moment (field-independent basis, Debye-Ang):
   XX=            -20.3697   YY=            -17.0268   ZZ=            -17.2113
   XY=             -0.0135   XZ=             -0.0025   YZ=              0.0001

 Normal termination of Gaussian 16 at Wed Jun  5 15:18:19 2019.
