 Gaussian 16, Revision A.03,
 Gaussian 16:  ES64L-G16RevA.03 25-Dec-2016

 ----------------
 # b3lyp/6-31g(d)
 ----------------

 --------------------
 tmpdir/M2_ref_31.gjf
 --------------------
 Symbolic Z-matrix:
 Charge =  0 Multiplicity = 1

                         Standard orientation:
 ---------------------------------------------------------------------
 Center     Atomic      Atomic             Coordinates (Angstroms)
 Number     Number       Type             X           Y           Z
 ---------------------------------------------------------------------
      1          6           0       -0.001016    0.005637   -0.001547
      2          1           0        0.139368   -0.728502   -0.803263
      3          1           0       -1.025341    0.444779   -0.066356
      4          1           0        0.787650    0.777952   -0.070067
      5          1           0        0.104420   -0.528052    0.948966
 ---------------------------------------------------------------------

 SCF Done:  E(RB3LYP) =  -40.5176729320     A.U. after    9 cycles

 The electronic state is 1-A.
 Alpha  occ. eigenvalues --  -10.17115  -0.68740  -0.38990  -0.38688  -0.38519
 Alpha virt. eigenvalues --    0.11507   0.17167   0.17370   0.17470   0.53151
 Alpha virt. eigenvalues --    0.53535   0.54236   0.88416   0.89047   0.89222
 Alpha virt. eigenvalues --    0.93708   1.09729   1.65832   1.65864   2.20943

 Mulliken charges:
               1
     1  C   -0.623889
     2  H    0.157169
     3  H    0.153599
     4  H    0.155981
     5  H    0.157141
 Sum of Mulliken charges =  -0.00000

 Dipole moment (field-independent basis, Debye):
    X=              0.0155    Y=             -0.0360    Z=              0.0085  Tot=              0.0401
 Quadrupole moment (field-independent basis, Debye-Ang):
   XX=             -8.1839   YY=             -8.2884   ZZ=             -8.3634
   XY=              0.0074   XZ=             -0.0015   YZ=              0.0015

 Normal termination of Gaussian 16 at Wed Jun  5 15:18:23 2019.
