 Gaussian 16, Revision A.03,
 Gaussian 16:  ES64L-G16RevA.03 25-Dec-2016

 ----------------------------------------------------------------------
 #p b3lyp/gen scrf=(cpcm,solvent=toluene) pop=hirshfeld empiricaldisper
 sion=gd3bj
 ----------------------------------------------------------------------

 -----------------------
 tmpdir/M1_conf_0_14.gjf
 -----------------------
 Symbolic Z-matrix:
 Charge =  0 Multiplicity = 1

                         Standard orientation:
 ---------------------------------------------------------------------
 Center     Atomic      Atomic             Coordinates (Angstroms)
 Number     Number       Type             X           Y           Z
 ---------------------------------------------------------------------
      1          6           0       -0.004951    0.000347   -0.010520
      2          1           0       -0.152053   -0.388241    1.002908
      3          1           0        0.778790   -0.601663   -0.483928
      4          1           0        0.355712    1.032278    0.072410
      5          1           0       -0.952741   -0.044453   -0.528270
 ---------------------------------------------------------------------

 SCF Done:  E(RB3LYP) =  -40.5135763186     A.U. after    7 cycles

 The electronic state is 1-A.
 Alpha  occ. eigenvalues --  -10.16104  -0.69504  -0.40190  -0.39102  -0.38758
 Alpha virt. eigenvalues --    0.05760   0.12561   0.12602   0.12785   0.36942
 Alpha virt. eigenvalues --    0.37472   0.38599   0.63696   0.63806   0.64801
 Alpha virt. eigenvalues --    0.68337   0.96232   1.28414   1.29364   1.83989

 Mulliken charges:
               1
     1  C   -0.346546
     2  H    0.082094
     3  H    0.088117
     4  H    0.086405
     5  H    0.089930
 Sum of Mulliken charges =  -0.00000

 Dipole moment (field-independent basis, Debye):
    X=              0.0076    Y=             -0.0035    Z=              0.0387  Tot=              0.0396
 Quadrupole moment (field-independent basis, Debye-Ang):
   XX=             -8.2907   YY=             -8.4715   ZZ=             -8.5540
   XY=             -0.0018   XZ=              0.0269   YZ=              0.0089

 Normal termination of Gaussian 16 at Fri Sep 22 16:27:28 2023.
