 Gaussian 16, Revision A.03,
 Gaussian 16:  ES64L-G16RevA.03 25-Dec-2016

 ----------------------------------------------------------------------
 #p b3lyp/gen scrf=(cpcm,solvent=toluene) pop=hirshfeld empiricaldisper
 sion=gd3bj
 ----------------------------------------------------------------------

 -----------------------
 tmpdir/M1_conf_0_25.gjf
 -----------------------
 Symbolic Z-matrix:
 Charge =  0 Multiplicity = 1

                         Standard orientation:
 ---------------------------------------------------------------------
 Center     Atomic      Atomic             Coordinates (Angstroms)
 Number     Number       Type             X           Y           Z
 ---------------------------------------------------------------------
      1          8           0        0.000000    0.107554   -0.000000
      2          1           0        0.802245   -0.384297   -0.000000
      3          1           0       -0.802245   -0.476134    0.000000
 ---------------------------------------------------------------------

 SCF Done:  E(RB3LYP) =  -76.4103639406     A.U. after    8 cycles

 The electronic state is 1-A'.
 Alpha  occ. eigenvalues --  -19.11393  -1.00067  -0.53701  -0.36773  -0.30455
 Alpha virt. eigenvalues --    0.03683   0.11059   0.54189   0.59142   0.79443
 Alpha virt. eigenvalues --    0.80042   0.90447   1.35676   1.55518   1.70442
 Alpha virt. eigenvalues --    1.79708   2.02056   2.34536   2.45992   2.64442

 Mulliken charges:
               1
     1  O   -0.470771
     2  H    0.222707
     3  H    0.248064
 Sum of Mulliken charges =  -0.00000

 Dipole moment (field-independent basis, Debye):
    X=              0.0269    Y=             -2.0315    Z=              0.0000  Tot=              2.0317
 Quadrupole moment (field-independent basis, Debye-Ang):
   XX=             -3.9470   YY=             -6.3089   ZZ=             -7.3261
   XY=              0.1643   XZ=              0.0000   YZ=             -0.0000

 Normal termination of Gaussian 16 at Fri Sep 22 16:27:26 2023.
