 Gaussian 16, Revision A.03,
 Gaussian 16:  ES64L-G16RevA.03 25-Dec-2016

 ----------------------------------------------------------------------
 #p b3lyp/gen scrf=(cpcm,solvent=toluene) pop=hirshfeld empiricaldisper
 sion=gd3bj
 ----------------------------------------------------------------------

 -----------------------
 tmpdir/M1_conf_0_18.gjf
 -----------------------
 Symbolic Z-matrix:
 Charge =  0 Multiplicity = 1

                         Standard orientation:
 ---------------------------------------------------------------------
 Center     Atomic      Atomic             Coordinates (Angstroms)
 Number     Number       Type             X           Y           Z
 ---------------------------------------------------------------------
      1          6           0        0.012032    0.010939   -0.000371
      2          1           0        0.550687   -0.325600    0.894796
      3          1           0        0.626470   -0.245627   -0.871034
      4          1           0       -1.017719   -0.571820   -0.061014
      5          1           0       -0.231629    1.077412    0.039476
 ---------------------------------------------------------------------

 SCF Done:  E(RB3LYP) =  -40.5097224665     A.U. after    8 cycles

 The electronic state is 1-A.
 Alpha  occ. eigenvalues --  -10.17139  -0.68809  -0.40199  -0.39097  -0.37581
 Alpha virt. eigenvalues --    0.05279   0.11261   0.12519   0.12598   0.37096
 Alpha virt. eigenvalues --    0.37387   0.38859   0.59193   0.63568   0.64148
 Alpha virt. eigenvalues --    0.66109   0.95473   1.28801   1.30177   1.81188

 Mulliken charges:
               1
     1  C   -0.369644
     2  H    0.091476
     3  H    0.092277
     4  H    0.091103
     5  H    0.094788
 Sum of Mulliken charges =   0.00000

 Dipole moment (field-independent basis, Debye):
    X=              0.0416    Y=              0.0113    Z=              0.0066  Tot=              0.0436
 Quadrupole moment (field-independent basis, Debye-Ang):
   XX=             -8.4621   YY=             -8.5025   ZZ=             -8.5919
   XY=             -0.1274   XZ=             -0.0173   YZ=             -0.0051

 Normal termination of Gaussian 16 at Fri Sep 22 16:27:14 2023.
