 Gaussian 16, Revision A.03,
 Gaussian 16:  ES64L-G16RevA.03 25-Dec-2016

 ----------------------------------------------------------------------
 #p b3lyp/gen scrf=(cpcm,solvent=toluene) pop=hirshfeld empiricaldisper
 sion=gd3bj
 ----------------------------------------------------------------------

 -----------------------
 tmpdir/M1_conf_0_16.gjf
 -----------------------
 Symbolic Z-matrix:
 Charge =  0 Multiplicity = 1

                         Standard orientation:
 ---------------------------------------------------------------------
 Center     Atomic      Atomic             Coordinates (Angstroms)
 Number     Number       Type             X           Y           Z
 ---------------------------------------------------------------------
      1          6           0       -0.535043   -0.009864   -0.003007
      2          8           0        0.685209    0.003665    0.000744
      3          1           0       -1.125836   -0.888705    0.006257
      4          1           0       -1.145577    0.918571    0.005836
 ---------------------------------------------------------------------

 SCF Done:  E(RB3LYP) =  -114.486780190     A.U. after    9 cycles

 The electronic state is 1-A.
 Alpha  occ. eigenvalues --  -19.14452 -10.27850  -1.06331  -0.64964  -0.49799
 Alpha  occ. eigenvalues --   -0.45942  -0.40354  -0.27676
 Alpha virt. eigenvalues --   -0.05644   0.06086   0.11901   0.17666   0.40219
 Alpha virt. eigenvalues --    0.49051   0.50107   0.58007   0.61552   0.71707
 Alpha virt. eigenvalues --    0.77966   0.87331   0.97364   1.33357   1.48934

 Mulliken charges:
               1
     1  C    0.205136
     2  O   -0.358374
     3  H    0.075646
     4  H    0.077592
 Sum of Mulliken charges =  -0.00000

 Dipole moment (field-independent basis, Debye):
    X=             -2.7639    Y=             -0.0882    Z=              0.0008  Tot=              2.7653
 Quadrupole moment (field-independent basis, Debye-Ang):
   XX=            -11.9401   YY=            -11.7308   ZZ=            -11.5770
   XY=              0.0794   XZ=             -0.0067   YZ=              0.0004

 Normal termination of Gaussian 16 at Fri Sep 22 16:27:14 2023.
