 Gaussian 16, Revision A.03,
 Gaussian 16:  ES64L-G16RevA.03 25-Dec-2016

 ----------------------------------------------------------------------
 #p b3lyp/gen scrf=(cpcm,solvent=toluene) pop=hirshfeld empiricaldisper
 sion=gd3bj
 ----------------------------------------------------------------------

 ----------------------
 tmpdir/M1_conf_0_4.gjf
 ----------------------
 Symbolic Z-matrix:
 Charge =  0 Multiplicity = 1

                         Standard orientation:
 ---------------------------------------------------------------------
 Center     Atomic      Atomic             Coordinates (Angstroms)
 Number     Number       Type             X           Y           Z
 ---------------------------------------------------------------------
      1          6           0       -0.004306   -0.009626   -0.002832
      2          1           0        0.251232    0.703595   -0.796975
      3          1           0       -0.134598    0.586873    0.907611
      4          1           0       -0.952094   -0.531439   -0.222220
      5          1           0        0.861298   -0.701270    0.128574
 ---------------------------------------------------------------------

 SCF Done:  E(RB3LYP) =  -40.5132700036     A.U. after    7 cycles

 The electronic state is 1-A.
 Alpha  occ. eigenvalues --  -10.16551  -0.69180  -0.39822  -0.39035  -0.38631
 Alpha virt. eigenvalues --    0.05577   0.12290   0.12462   0.12564   0.36898
 Alpha virt. eigenvalues --    0.37462   0.38688   0.62891   0.63440   0.63714
 Alpha virt. eigenvalues --    0.67146   0.96068   1.28618   1.29411   1.82948

 Mulliken charges:
               1
     1  C   -0.358269
     2  H    0.085831
     3  H    0.084512
     4  H    0.094823
     5  H    0.093102
 Sum of Mulliken charges =  -0.00000

 Dipole moment (field-independent basis, Debye):
    X=              0.0083    Y=              0.0575    Z=              0.0126  Tot=              0.0594
 Quadrupole moment (field-independent basis, Debye-Ang):
   XX=             -8.3067   YY=             -8.4883   ZZ=             -8.6228
   XY=              0.0207   XZ=              0.0014   YZ=              0.0034

 Normal termination of Gaussian 16 at Fri Sep 22 16:26:52 2023.
