 Gaussian 16, Revision A.03,
 Gaussian 16:  ES64L-G16RevA.03 25-Dec-2016

 ----------------------------------------------------------------------
 #p b3lyp/gen scrf=(cpcm,solvent=toluene) pop=hirshfeld empiricaldisper
 sion=gd3bj
 ----------------------------------------------------------------------

 -----------------------
 tmpdir/M1_conf_0_10.gjf
 -----------------------
 Symbolic Z-matrix:
 Charge =  0 Multiplicity = 1

                         Standard orientation:
 ---------------------------------------------------------------------
 Center     Atomic      Atomic             Coordinates (Angstroms)
 Number     Number       Type             X           Y           Z
 ---------------------------------------------------------------------
      1          7           0       -0.016674   -0.015917   -0.007651
      2          1           0       -0.867761   -0.408136    0.020461
      3          1           0        0.093594    1.027089    0.015832
      4          1           0        0.890882   -0.507533    0.017265
 ---------------------------------------------------------------------

 SCF Done:  E(RB3LYP) =  -56.5326042661     A.U. after    8 cycles

 The electronic state is 1-A.
 Alpha  occ. eigenvalues --  -14.27688  -0.82894  -0.49519  -0.45014  -0.23132
 Alpha virt. eigenvalues --    0.04857   0.11992   0.13046   0.49209   0.55195
 Alpha virt. eigenvalues --    0.61064   0.66044   0.76140   0.77790   1.07840
 Alpha virt. eigenvalues --    1.47804   1.50503   1.83442   1.97867   1.99259

 Mulliken charges:
               1
     1  N   -0.511709
     2  H    0.148824
     3  H    0.180115
     4  H    0.182771
 Sum of Mulliken charges =  -0.00000

 Dipole moment (field-independent basis, Debye):
    X=              0.1574    Y=              0.1339    Z=              0.1449  Tot=              0.2524
 Quadrupole moment (field-independent basis, Debye-Ang):
   XX=             -5.4905   YY=             -5.8065   ZZ=             -9.3731
   XY=              0.0538   XZ=             -0.0078   YZ=             -0.0063

 Normal termination of Gaussian 16 at Fri Sep 22 16:26:58 2023.
