 Gaussian 16, Revision A.03,
 Gaussian 16:  ES64L-G16RevA.03 25-Dec-2016

 ----------------------------------------------------------------------
 #p b3lyp/gen scrf=(cpcm,solvent=toluene) pop=hirshfeld empiricaldisper
 sion=gd3bj
 ----------------------------------------------------------------------

 -----------------------
 tmpdir/M1_conf_0_11.gjf
 -----------------------
 Symbolic Z-matrix:
 Charge =  0 Multiplicity = 1

                         Standard orientation:
 ---------------------------------------------------------------------
 Center     Atomic      Atomic             Coordinates (Angstroms)
 Number     Number       Type             X           Y           Z
 ---------------------------------------------------------------------
      1          6           0       -1.195144   -0.284723    0.011394
      2          6           0        1.195504   -0.277717    0.003997
      3          6           0       -0.004307    0.667265   -0.002185
      4          1           0       -1.418810   -0.630957    1.029582
      5          1           0       -2.090669    0.155105   -0.433089
      6          1           0        1.392084   -0.625174    1.026941
      7          1           0        2.114653    0.177018   -0.377317
      8          1           0       -0.013261    1.349560    0.854574
      9          1           0       -0.022756    1.274763   -0.914855
     10          1           0       -0.825339   -1.171787   -0.636410
     11          1           0        0.887781   -1.157475   -0.628665
 ---------------------------------------------------------------------

 SCF Done:  E(RB3LYP) =  -119.116954494     A.U. after   10 cycles

 The electronic state is 1-A.
 Alpha  occ. eigenvalues --  -10.16744 -10.16606 -10.16397  -0.79003  -0.66918
 Alpha  occ. eigenvalues --   -0.58510  -0.46625  -0.44948  -0.38967  -0.36473
 Alpha  occ. eigenvalues --   -0.34831  -0.33218  -0.32874
 Alpha virt. eigenvalues --    0.04767   0.07833   0.08266   0.08954   0.11318
 Alpha virt. eigenvalues --    0.14209   0.14970   0.17067   0.19892   0.23983
 Alpha virt. eigenvalues --    0.36087   0.37666   0.40579   0.41130   0.44679

 Mulliken charges:
               1
     1  C   -0.230698
     2  C   -0.223758
     3  C   -0.232872
     4  H    0.091210
     5  H    0.084263
     6  H    0.087370
     7  H    0.084256
     8  H    0.091496
     9  H    0.087419
    10  H    0.080159
    11  H    0.081156
 Sum of Mulliken charges =  -0.00000

 Dipole moment (field-independent basis, Debye):
    X=              0.0078    Y=              0.1589    Z=              0.0534  Tot=              0.1678
 Quadrupole moment (field-independent basis, Debye-Ang):
   XX=            -23.0407   YY=            -22.4666   ZZ=            -21.5326
   XY=             -0.1092   XZ=             -0.0120   YZ=             -0.0200

 Normal termination of Gaussian 16 at Fri Sep 22 16:27:04 2023.
