 Gaussian 16, Revision A.03,
 Gaussian 16:  ES64L-G16RevA.03 25-Dec-2016

 ----------------------------------------------------------------------
 #p b3lyp/gen scrf=(cpcm,solvent=toluene) pop=hirshfeld empiricaldisper
 sion=gd3bj
 ----------------------------------------------------------------------

 -----------------------
 tmpdir/M1_conf_0_22.gjf
 -----------------------
 Symbolic Z-matrix:
 Charge =  0 Multiplicity = 1

                         Standard orientation:
 ---------------------------------------------------------------------
 Center     Atomic      Atomic             Coordinates (Angstroms)
 Number     Number       Type             X           Y           Z
 ---------------------------------------------------------------------
      1          6           0       -0.006094   -0.012638   -0.005351
      2          1           0        0.335925    0.275330    1.000444
      3          1           0        0.144728    0.876429   -0.635552
      4          1           0       -1.067344   -0.266639    0.021813
      5          1           0        0.623253   -0.809290   -0.354600
 ---------------------------------------------------------------------

 SCF Done:  E(RB3LYP) =  -40.5132502785     A.U. after    7 cycles

 The electronic state is 1-A.
 Alpha  occ. eigenvalues --  -10.16083  -0.69531  -0.40266  -0.39276  -0.38538
 Alpha virt. eigenvalues --    0.05765   0.12498   0.12587   0.12881   0.37020
 Alpha virt. eigenvalues --    0.37421   0.38552   0.63379   0.63933   0.64999
 Alpha virt. eigenvalues --    0.68547   0.96351   1.28664   1.29048   1.83996

 Mulliken charges:
               1
     1  C   -0.345632
     2  H    0.082543
     3  H    0.083727
     4  H    0.091981
     5  H    0.087380
 Sum of Mulliken charges =  -0.00000

 Dipole moment (field-independent basis, Debye):
    X=              0.0313    Y=              0.0313    Z=              0.0140  Tot=              0.0464
 Quadrupole moment (field-independent basis, Debye-Ang):
   XX=             -8.2860   YY=             -8.4548   ZZ=             -8.5728
   XY=             -0.0284   XZ=             -0.0221   YZ=              0.0237

 Normal termination of Gaussian 16 at Fri Sep 22 16:27:20 2023.
