 Gaussian 16, Revision A.03,
 Gaussian 16:  ES64L-G16RevA.03 25-Dec-2016

 ----------------------------------------------------------------------
 #p b3lyp/gen scrf=(cpcm,solvent=toluene) pop=hirshfeld empiricaldisper
 sion=gd3bj
 ----------------------------------------------------------------------

 -----------------------
 tmpdir/M1_conf_0_17.gjf
 -----------------------
 Symbolic Z-matrix:
 Charge =  0 Multiplicity = 1

                         Standard orientation:
 ---------------------------------------------------------------------
 Center     Atomic      Atomic             Coordinates (Angstroms)
 Number     Number       Type             X           Y           Z
 ---------------------------------------------------------------------
      1          8           0       -0.000000    0.098853    0.000000
      2          1           0        0.821682   -0.335660   -0.000000
      3          1           0       -0.821682   -0.455168   -0.000000
 ---------------------------------------------------------------------

 SCF Done:  E(RB3LYP) =  -76.4068799971     A.U. after    8 cycles

 The electronic state is 1-A'.
 Alpha  occ. eigenvalues --  -19.11037  -0.99965  -0.54809  -0.35801  -0.30375
 Alpha virt. eigenvalues --    0.03779   0.11178   0.53589   0.60729   0.79126
 Alpha virt. eigenvalues --    0.80113   0.90832   1.35094   1.54406   1.75123
 Alpha virt. eigenvalues --    1.82378   1.98317   2.34987   2.50600   2.60687

 Mulliken charges:
               1
     1  O   -0.475212
     2  H    0.221130
     3  H    0.254083
 Sum of Mulliken charges =   0.00000

 Dipole moment (field-independent basis, Debye):
    X=              0.0267    Y=             -1.9183    Z=             -0.0000  Tot=              1.9184
 Quadrupole moment (field-independent basis, Debye-Ang):
   XX=             -3.7334   YY=             -6.4443   ZZ=             -7.3181
   XY=              0.2283   XZ=             -0.0000   YZ=             -0.0000

 Normal termination of Gaussian 16 at Fri Sep 22 16:27:16 2023.
