 Gaussian 16, Revision A.03,
 Gaussian 16:  ES64L-G16RevA.03 25-Dec-2016

 ----------------------------------------------------------------------
 #p b3lyp/gen scrf=(cpcm,solvent=toluene) pop=hirshfeld empiricaldisper
 sion=gd3bj
 ----------------------------------------------------------------------

 ----------------------
 tmpdir/M1_conf_0_0.gjf
 ----------------------
 Symbolic Z-matrix:
 Charge =  0 Multiplicity = 1

                         Standard orientation:
 ---------------------------------------------------------------------
 Center     Atomic      Atomic             Coordinates (Angstroms)
 Number     Number       Type             X           Y           Z
 ---------------------------------------------------------------------
      1          6           0        0.595161   -0.005064   -0.105057
      2          1           0        1.022156    0.944799    0.214865
      3          8           0       -0.720180   -0.007988    0.021835
      4          1           0        1.168317   -0.850515    0.240797
 ---------------------------------------------------------------------

 SCF Done:  E(RB3LYP) =  -114.451635969     A.U. after   10 cycles

 The electronic state is 1-A.
 Alpha  occ. eigenvalues --  -19.15162 -10.28617  -1.01801  -0.65686  -0.48786
 Alpha  occ. eigenvalues --   -0.44343  -0.37746  -0.27749
 Alpha virt. eigenvalues --   -0.10211   0.06162   0.11055   0.16053   0.40488
 Alpha virt. eigenvalues --    0.45685   0.49797   0.52593   0.58480   0.72261
 Alpha virt. eigenvalues --    0.80994   0.87247   0.91105   1.35526   1.42299

 Mulliken charges:
               1
     1  C    0.187282
     2  H    0.105001
     3  O   -0.404200
     4  H    0.111917
 Sum of Mulliken charges =  -0.00000

 Dipole moment (field-independent basis, Debye):
    X=              2.9837    Y=             -0.0009    Z=              0.1559  Tot=              2.9878
 Quadrupole moment (field-independent basis, Debye-Ang):
   XX=            -12.0055   YY=            -11.7006   ZZ=            -11.6430
   XY=             -0.1609   XZ=              0.2806   YZ=              0.0357

 Normal termination of Gaussian 16 at Fri Sep 22 16:26:50 2023.
