 Gaussian 16, Revision A.03,
 Gaussian 16:  ES64L-G16RevA.03 25-Dec-2016

 ----------------------------------------------------------------------
 #p b3lyp/gen scrf=(cpcm,solvent=toluene) pop=hirshfeld empiricaldisper
 sion=gd3bj
 ----------------------------------------------------------------------

 ----------------------
 tmpdir/M1_conf_0_6.gjf
 ----------------------
 Symbolic Z-matrix:
 Charge =  0 Multiplicity = 1

                         Standard orientation:
 ---------------------------------------------------------------------
 Center     Atomic      Atomic             Coordinates (Angstroms)
 Number     Number       Type             X           Y           Z
 ---------------------------------------------------------------------
      1          6           0        0.010006    0.003088    0.000329
      2          1           0        0.082891   -0.072708    1.086315
      3          1           0       -0.784957   -0.751550   -0.349638
      4          1           0       -0.365853    1.016335   -0.276588
      5          1           0        1.007882   -0.210604   -0.462065
 ---------------------------------------------------------------------

 SCF Done:  E(RB3LYP) =  -40.5115804167     A.U. after    7 cycles

 The electronic state is 1-A.
 Alpha  occ. eigenvalues --  -10.17183  -0.68722  -0.39446  -0.39237  -0.38080
 Alpha virt. eigenvalues --    0.05307   0.11693   0.12168   0.12517   0.37184
 Alpha virt. eigenvalues --    0.37466   0.38549   0.60954   0.62623   0.63108
 Alpha virt. eigenvalues --    0.65763   0.95664   1.28931   1.29707   1.82315

 Mulliken charges:
               1
     1  C   -0.373133
     2  H    0.089559
     3  H    0.092310
     4  H    0.092989
     5  H    0.098275
 Sum of Mulliken charges =  -0.00000

 Dipole moment (field-independent basis, Debye):
    X=             -0.0145    Y=              0.0143    Z=              0.0392  Tot=              0.0442
 Quadrupole moment (field-independent basis, Debye-Ang):
   XX=             -8.3948   YY=             -8.5926   ZZ=             -8.5732
   XY=             -0.0541   XZ=             -0.0236   YZ=             -0.0266

 Normal termination of Gaussian 16 at Fri Sep 22 16:26:50 2023.
