 Gaussian 16, Revision A.03,
 Gaussian 16:  ES64L-G16RevA.03 25-Dec-2016

 ----------------------------------------------------------------------
 #p b3lyp/gen scrf=(cpcm,solvent=toluene) pop=hirshfeld empiricaldisper
 sion=gd3bj
 ----------------------------------------------------------------------

 -----------------------
 tmpdir/M1_conf_0_23.gjf
 -----------------------
 Symbolic Z-matrix:
 Charge =  0 Multiplicity = 1

                         Standard orientation:
 ---------------------------------------------------------------------
 Center     Atomic      Atomic             Coordinates (Angstroms)
 Number     Number       Type             X           Y           Z
 ---------------------------------------------------------------------
      1          6           0        0.697684   -0.006178   -0.071640
      2          1           0        1.174946    0.947529    0.145296
      3          6           0       -0.695172   -0.006338    0.010749
      4          1           0        1.295364   -0.888034    0.176092
      5          1           0       -1.273072   -0.911176    0.013212
      6          1           0       -1.212304    0.926776    0.030746
 ---------------------------------------------------------------------

 SCF Done:  E(RB3LYP) =  -78.5711730420     A.U. after    9 cycles

 The electronic state is 1-A.
 Alpha  occ. eigenvalues --  -10.18908 -10.18727  -0.75633  -0.59003  -0.47055
 Alpha  occ. eigenvalues --   -0.41569  -0.36696  -0.27389
 Alpha virt. eigenvalues --   -0.02374   0.06382   0.09223   0.09556   0.15959
 Alpha virt. eigenvalues --    0.26869   0.36127   0.40833   0.43900   0.50747
 Alpha virt. eigenvalues --    0.51871   0.55052   0.62349   0.63939   0.68644

 Mulliken charges:
               1
     1  C   -0.217778
     2  H    0.099684
     3  C   -0.193015
     4  H    0.106121
     5  H    0.103800
     6  H    0.101189
 Sum of Mulliken charges =   0.00000

 Dipole moment (field-independent basis, Debye):
    X=             -0.1586    Y=              0.0232    Z=              0.3959  Tot=              0.4272
 Quadrupole moment (field-independent basis, Debye-Ang):
   XX=            -12.4667   YY=            -12.4897   ZZ=            -15.7219
   XY=             -0.0642   XZ=              0.3879   YZ=              0.0053

 Normal termination of Gaussian 16 at Fri Sep 22 16:27:22 2023.
