 Gaussian 16, Revision A.03,
 Gaussian 16:  ES64L-G16RevA.03 25-Dec-2016

 ----------------------------------------------------------------------
 #p b3lyp/gen scrf=(cpcm,solvent=toluene) pop=hirshfeld empiricaldisper
 sion=gd3bj
 ----------------------------------------------------------------------

 ----------------------
 tmpdir/M1_conf_0_3.gjf
 ----------------------
 Symbolic Z-matrix:
 Charge =  0 Multiplicity = 1

                         Standard orientation:
 ---------------------------------------------------------------------
 Center     Atomic      Atomic             Coordinates (Angstroms)
 Number     Number       Type             X           Y           Z
 ---------------------------------------------------------------------
      1          6           0       -0.005977   -0.010854   -0.004770
      2          1           0       -0.068847    0.560802    0.932849
      3          1           0        0.248904    0.719312   -0.782705
      4          1           0        0.840874   -0.732592    0.076214
      5          1           0       -0.985067   -0.482401   -0.197738
 ---------------------------------------------------------------------

 SCF Done:  E(RB3LYP) =  -40.5130903644     A.U. after    7 cycles

 The electronic state is 1-A.
 Alpha  occ. eigenvalues --  -10.16579  -0.69165  -0.39947  -0.38904  -0.38597
 Alpha virt. eigenvalues --    0.05564   0.12289   0.12431   0.12546   0.36905
 Alpha virt. eigenvalues --    0.37301   0.38856   0.62851   0.63346   0.63726
 Alpha virt. eigenvalues --    0.67070   0.96112   1.28664   1.29362   1.82276

 Mulliken charges:
               1
     1  C   -0.358928
     2  H    0.083986
     3  H    0.085832
     4  H    0.093087
     5  H    0.096022
 Sum of Mulliken charges =   0.00000

 Dipole moment (field-independent basis, Debye):
    X=              0.0157    Y=              0.0611    Z=              0.0179  Tot=              0.0655
 Quadrupole moment (field-independent basis, Debye-Ang):
   XX=             -8.2810   YY=             -8.5137   ZZ=             -8.6313
   XY=              0.0235   XZ=              0.0034   YZ=             -0.0046

 Normal termination of Gaussian 16 at Fri Sep 22 16:26:50 2023.
