 Gaussian 16, Revision A.03,
 Gaussian 16:  ES64L-G16RevA.03 25-Dec-2016

 ----------------------------------------------------------------------
 #p b3lyp/gen scrf=(cpcm,solvent=toluene) pop=hirshfeld empiricaldisper
 sion=gd3bj
 ----------------------------------------------------------------------

 ----------------------
 tmpdir/M1_conf_0_2.gjf
 ----------------------
 Symbolic Z-matrix:
 Charge =  0 Multiplicity = 1

                         Standard orientation:
 ---------------------------------------------------------------------
 Center     Atomic      Atomic             Coordinates (Angstroms)
 Number     Number       Type             X           Y           Z
 ---------------------------------------------------------------------
      1          6           0        0.004455    0.000538    0.000813
      2          1           0       -0.669395    0.091525    0.862644
      3          1           0       -0.603223   -0.377632   -0.836317
      4          1           0        0.421552    0.992422   -0.244963
      5          1           0        0.824333   -0.709546    0.213757
 ---------------------------------------------------------------------

 SCF Done:  E(RB3LYP) =  -40.5138724625     A.U. after    7 cycles

 The electronic state is 1-A.
 Alpha  occ. eigenvalues --  -10.16499  -0.69197  -0.39585  -0.39268  -0.38720
 Alpha virt. eigenvalues --    0.05609   0.12406   0.12483   0.12524   0.37027
 Alpha virt. eigenvalues --    0.37807   0.38206   0.63309   0.63502   0.63680
 Alpha virt. eigenvalues --    0.67038   0.95955   1.28554   1.29491   1.85142

 Mulliken charges:
               1
     1  C   -0.357225
     2  H    0.087429
     3  H    0.087348
     4  H    0.090750
     5  H    0.091698
 Sum of Mulliken charges =  -0.00000

 Dipole moment (field-independent basis, Debye):
    X=             -0.0252    Y=             -0.0017    Z=             -0.0005  Tot=              0.0252
 Quadrupole moment (field-independent basis, Debye-Ang):
   XX=             -8.3901   YY=             -8.4365   ZZ=             -8.5767
   XY=             -0.0012   XZ=             -0.0054   YZ=             -0.0019

 Normal termination of Gaussian 16 at Fri Sep 22 16:26:54 2023.
