 Gaussian 16, Revision A.03,
 Gaussian 16:  ES64L-G16RevA.03 25-Dec-2016

 ----------------------------------------------------------------------
 #p b3lyp/gen scrf=(cpcm,solvent=toluene) pop=hirshfeld empiricaldisper
 sion=gd3bj
 ----------------------------------------------------------------------

 -----------------------
 tmpdir/M1_conf_0_12.gjf
 -----------------------
 Symbolic Z-matrix:
 Charge =  0 Multiplicity = 1

                         Standard orientation:
 ---------------------------------------------------------------------
 Center     Atomic      Atomic             Coordinates (Angstroms)
 Number     Number       Type             X           Y           Z
 ---------------------------------------------------------------------
      1          6           0        0.760871   -0.025167    0.003323
      2          6           0       -0.771210   -0.001608   -0.003824
      3          1           0       -1.172092   -0.445907   -0.918360
      4          1           0       -1.167995   -0.541069    0.863649
      5          1           0       -1.113700    1.037229    0.067865
      6          1           0        1.159428    0.408490    0.963542
      7          1           0        1.170041    0.733813   -0.798819
      8          1           0        1.186349   -1.031905   -0.174870
 ---------------------------------------------------------------------

 SCF Done:  E(RB3LYP) =  -79.8174043350     A.U. after    9 cycles

 The electronic state is 1-A.
 Alpha  occ. eigenvalues --  -10.17688 -10.16626  -0.75108  -0.60941  -0.43923
 Alpha  occ. eigenvalues --   -0.42899  -0.36814  -0.34868  -0.33417
 Alpha virt. eigenvalues --    0.04742   0.08914   0.09960   0.10373   0.13382
 Alpha virt. eigenvalues --    0.13925   0.21314   0.37362   0.38285   0.39409
 Alpha virt. eigenvalues --    0.46478   0.48146   0.58048   0.60766   0.63374

 Mulliken charges:
               1
     1  C   -0.295698
     2  C   -0.242314
     3  H    0.089801
     4  H    0.087544
     5  H    0.086524
     6  H    0.089418
     7  H    0.087348
     8  H    0.097378
 Sum of Mulliken charges =  -0.00000

 Dipole moment (field-independent basis, Debye):
    X=             -0.0670    Y=              0.0164    Z=              0.0469  Tot=              0.0834
 Quadrupole moment (field-independent basis, Debye-Ang):
   XX=            -16.0416   YY=            -14.9325   ZZ=            -15.2353
   XY=             -0.0059   XZ=              0.0599   YZ=              0.0984

 Normal termination of Gaussian 16 at Fri Sep 22 16:26:57 2023.
