 Gaussian 16, Revision A.03,
 Gaussian 16:  ES64L-G16RevA.03 25-Dec-2016

 ----------------------------------------------------------------------
 #p b3lyp/gen scrf=(cpcm,solvent=toluene) pop=hirshfeld empiricaldisper
 sion=gd3bj
 ----------------------------------------------------------------------

 ----------------------
 tmpdir/M1_conf_0_7.gjf
 ----------------------
 Symbolic Z-matrix:
 Charge = -1 Multiplicity = 1

                         Standard orientation:
 ---------------------------------------------------------------------
 Center     Atomic      Atomic             Coordinates (Angstroms)
 Number     Number       Type             X           Y           Z
 ---------------------------------------------------------------------
      1         17           0        2.847785   -0.008030   -0.123346
      2          6           0       -0.902378    0.012723    0.117831
      3          7           0       -0.166746   -1.120354    0.233578
      4          1           0        0.854311   -1.001306    0.204768
      5          7           0       -0.177739    1.149121    0.268686
      6          1           0        0.836805    0.980167    0.291593
      7         16           0       -2.581232   -0.008780   -0.165174
      8          1           0       -0.552622   -2.051971    0.121641
      9          1           0       -0.425449    2.072403   -0.101160
 ---------------------------------------------------------------------

 SCF Done:  E(RB3LYP) =  -1008.58471404     A.U. after   12 cycles

 The electronic state is 1-A.
 Alpha  occ. eigenvalues -- -101.34312 -88.73321 -14.28228 -14.28196 -10.23993
 Alpha  occ. eigenvalues --   -9.27938  -7.81934  -7.04223  -7.04179  -7.04137
 Alpha  occ. eigenvalues --   -5.78926  -5.78226  -5.77988  -0.92362  -0.82249
 Alpha  occ. eigenvalues --   -0.66763  -0.63240  -0.55961  -0.47750  -0.47061
 Alpha  occ. eigenvalues --   -0.42713  -0.35294  -0.31333  -0.22304  -0.18553
 Alpha  occ. eigenvalues --   -0.18306  -0.18031  -0.16904  -0.16171
 Alpha virt. eigenvalues --    0.05144   0.10174   0.13103   0.13753   0.20163
 Alpha virt. eigenvalues --    0.20954   0.30665   0.31223   0.37357   0.38821
 Alpha virt. eigenvalues --    0.42222   0.43597   0.46482   0.47173   0.51822

 Mulliken charges:
               1
     1  Cl  -0.864369
     2  C    0.252490
     3  N   -0.328170
     4  H    0.198948
     5  N   -0.339888
     6  H    0.192801
     7  S   -0.506133
     8  H    0.194476
     9  H    0.199845
 Sum of Mulliken charges =  -1.00000

 Dipole moment (field-independent basis, Debye):
    X=             -3.7798    Y=             -0.0610    Z=              0.4656  Tot=              3.8088
 Quadrupole moment (field-independent basis, Debye-Ang):
   XX=            -99.7616   YY=            -42.2226   ZZ=            -52.0290
   XY=              0.4669   XZ=              0.9981   YZ=             -0.9930

 Normal termination of Gaussian 16 at Fri Sep 22 16:26:57 2023.
