 Gaussian 16, Revision A.03,
 Gaussian 16:  ES64L-G16RevA.03 25-Dec-2016

 ----------------------------------------------------------------------
 #p b3lyp/gen scrf=(cpcm,solvent=toluene) pop=hirshfeld empiricaldisper
 sion=gd3bj
 ----------------------------------------------------------------------

 ----------------------
 tmpdir/M1_conf_0_9.gjf
 ----------------------
 Symbolic Z-matrix:
 Charge =  1 Multiplicity = 1

                         Standard orientation:
 ---------------------------------------------------------------------
 Center     Atomic      Atomic             Coordinates (Angstroms)
 Number     Number       Type             X           Y           Z
 ---------------------------------------------------------------------
      1          6           0       -0.659526    0.040716    0.042522
      2          8           0        0.568165   -0.127916   -0.121411
      3          1           0        1.789744    0.510022    0.541053
      4          1           0       -1.105899    1.034928   -0.153520
      5          1           0       -1.272012   -0.765919    0.328622
 ---------------------------------------------------------------------

 SCF Done:  E(RB3LYP) =  -114.716077281     A.U. after   10 cycles

 The electronic state is 1-A.
 Alpha  occ. eigenvalues --  -19.35577 -10.46264  -1.24670  -0.81658  -0.67583
 Alpha  occ. eigenvalues --   -0.66226  -0.58634  -0.46435
 Alpha virt. eigenvalues --   -0.30147  -0.20891  -0.03158   0.02374   0.06585
 Alpha virt. eigenvalues --    0.23063   0.28427   0.33961   0.39818   0.40931
 Alpha virt. eigenvalues --    0.46050   0.59779   0.65599   0.75347   0.87806

 Mulliken charges:
               1
     1  C    0.367668
     2  O   -0.367676
     3  H    0.615438
     4  H    0.195832
     5  H    0.188739
 Sum of Mulliken charges =   1.00000

 Dipole moment (field-independent basis, Debye):
    X=              1.1845    Y=              1.8907    Z=              1.9314  Tot=              2.9509
 Quadrupole moment (field-independent basis, Debye-Ang):
   XX=              0.7055   YY=             -9.4213   ZZ=             -9.8603
   XY=              2.9579   XZ=              2.9395   YZ=              0.5877

 Normal termination of Gaussian 16 at Fri Sep 22 16:26:56 2023.
