 Gaussian 16, Revision A.03,
 Gaussian 16:  ES64L-G16RevA.03 25-Dec-2016

 ----------------------------------------------------------------------
 #p b3lyp/gen scrf=(cpcm,solvent=toluene) pop=hirshfeld empiricaldisper
 sion=gd3bj
 ----------------------------------------------------------------------

 ----------------------
 tmpdir/M1_conf_0_8.gjf
 ----------------------
 Symbolic Z-matrix:
 Charge =  0 Multiplicity = 1

                         Standard orientation:
 ---------------------------------------------------------------------
 Center     Atomic      Atomic             Coordinates (Angstroms)
 Number     Number       Type             X           Y           Z
 ---------------------------------------------------------------------
      1          6           0       -1.289198    0.030793   -0.887012
      2          1           0       -2.125233    0.180475   -0.200585
      3          6           0        0.012502   -0.001647   -0.019586
      4          6           0        0.176576    1.366067    0.662688
      5          1           0        0.347017    2.170500   -0.063568
      6          1           0       -0.705175    1.624164    1.263538
      7          1           0        1.041649    1.339674    1.336871
      8          6           0        1.272404   -0.309586   -0.845848
      9          1           0        1.240382   -1.320991   -1.268086
     10          1           0        1.410155    0.409981   -1.659642
     11          1           0        2.151671   -0.265538   -0.189330
     12          6           0       -0.172763   -1.081934    1.060042
     13          1           0       -1.065324   -0.881762    1.667846
     14          1           0       -0.267412   -2.081670    0.621507
     15          1           0        0.698491   -1.091845    1.727877
     16          1           0       -1.454752   -0.957267   -1.428738
     17          1           0       -1.268602    0.852118   -1.629399
 ---------------------------------------------------------------------

 SCF Done:  E(RB3LYP) =  -197.758126916     A.U. after   10 cycles

 The electronic state is 1-A.
 Alpha  occ. eigenvalues --  -10.18452 -10.16695 -10.16185 -10.16135 -10.16123
 Alpha  occ. eigenvalues --   -0.81925  -0.68496  -0.68267  -0.67760  -0.53139
 Alpha  occ. eigenvalues --   -0.44917  -0.44686  -0.44422  -0.40128  -0.39747
 Alpha  occ. eigenvalues --   -0.36504  -0.36356  -0.36068  -0.32474  -0.32291
 Alpha  occ. eigenvalues --   -0.31663
 Alpha virt. eigenvalues --    0.03651   0.08723   0.08836   0.08934   0.10038
 Alpha virt. eigenvalues --    0.10437   0.10524   0.13646   0.14294   0.16304
 Alpha virt. eigenvalues --    0.16770   0.17006   0.17157   0.20941   0.21536

 Mulliken charges:
               1
     1  C   -0.109957
     2  H    0.077977
     3  C   -0.570991
     4  C   -0.094450
     5  H    0.080659
     6  H    0.078327
     7  H    0.076669
     8  C   -0.084013
     9  H    0.078885
    10  H    0.080915
    11  H    0.076687
    12  C   -0.095774
    13  H    0.079212
    14  H    0.080492
    15  H    0.076494
    16  H    0.085188
    17  H    0.083681
 Sum of Mulliken charges =   0.00000

 Dipole moment (field-independent basis, Debye):
    X=              0.0423    Y=              0.0135    Z=              0.0479  Tot=              0.0653
 Quadrupole moment (field-independent basis, Debye-Ang):
   XX=            -36.0882   YY=            -35.8890   ZZ=            -36.0706
   XY=             -0.0254   XZ=             -0.1569   YZ=             -0.0400

 Normal termination of Gaussian 16 at Fri Sep 22 16:27:12 2023.
