 Gaussian 16, Revision A.03,
 Gaussian 16:  ES64L-G16RevA.03 25-Dec-2016

 ----------------------------------------------------------------------
 #p b3lyp/gen scrf=(cpcm,solvent=toluene) pop=hirshfeld empiricaldisper
 sion=gd3bj
 ----------------------------------------------------------------------

 -----------------------
 tmpdir/M1_conf_0_13.gjf
 -----------------------
 Symbolic Z-matrix:
 Charge =  0 Multiplicity = 1

                         Standard orientation:
 ---------------------------------------------------------------------
 Center     Atomic      Atomic             Coordinates (Angstroms)
 Number     Number       Type             X           Y           Z
 ---------------------------------------------------------------------
      1          6           0        2.446473   -0.712214    0.014343
      2          6           0        1.248558   -1.392136   -0.030712
      3          6           0        2.423147    0.710256    0.028721
      4          6           0        0.003076   -0.709599   -0.027218
      5          1           0        1.225757   -2.478846   -0.044253
      6          6           0        1.238633    1.403450   -0.006271
      7          1           0        3.351565    1.268924    0.109541
      8          6           0       -0.006814    0.720442   -0.027495
      9          1           0        1.252044    2.492541    0.009725
     10          6           0       -1.252241    1.399351   -0.023055
     11          6           0       -2.437143    0.700203    0.008633
     12          1           0       -1.251178    2.483590   -0.032185
     13          1           0       -3.385588    1.233476    0.022493
     14          6           0       -1.236092   -1.403806    0.006417
     15          6           0       -2.428805   -0.715376    0.030328
     16          1           0       -1.227857   -2.493043    0.019985
     17          1           0       -3.371369   -1.258939    0.062164
     18          1           0        3.413870   -1.251133    0.010386
 ---------------------------------------------------------------------

 SCF Done:  E(RB3LYP) =  -385.862810303     A.U. after   12 cycles

 The electronic state is 1-A.
 Alpha  occ. eigenvalues --  -10.19465 -10.19425 -10.19018 -10.18765 -10.18738
 Alpha  occ. eigenvalues --  -10.18725 -10.18674 -10.18672 -10.18637 -10.18610
 Alpha  occ. eigenvalues --   -0.88666  -0.83242  -0.78467  -0.75191  -0.72966
 Alpha  occ. eigenvalues --   -0.63509  -0.62155  -0.60568  -0.52296  -0.51847
 Alpha  occ. eigenvalues --   -0.50260  -0.45576  -0.45126  -0.42804  -0.42641
 Alpha  occ. eigenvalues --   -0.40898  -0.40302  -0.37815  -0.34979  -0.34068
 Alpha  occ. eigenvalues --   -0.33910  -0.29807  -0.25729  -0.22935
 Alpha virt. eigenvalues --   -0.05355  -0.02584   0.01192   0.04693   0.06061
 Alpha virt. eigenvalues --    0.06563   0.08172   0.09749   0.09867   0.11514
 Alpha virt. eigenvalues --    0.12850   0.15763   0.17518   0.20814   0.23897

 Mulliken charges:
               1
     1  C   -0.044310
     2  C    0.001328
     3  C   -0.049906
     4  C   -0.144966
     5  H    0.048600
     6  C   -0.004902
     7  H    0.065411
     8  C   -0.138406
     9  H    0.049213
    10  C    0.003943
    11  C   -0.041823
    12  H    0.046698
    13  H    0.065886
    14  C   -0.003130
    15  C   -0.043787
    16  H    0.049810
    17  H    0.065633
    18  H    0.074706
 Sum of Mulliken charges =  -0.00000

 Dipole moment (field-independent basis, Debye):
    X=             -0.0202    Y=              0.0044    Z=              0.0930  Tot=              0.0953
 Quadrupole moment (field-independent basis, Debye-Ang):
   XX=            -51.1183   YY=            -51.4869   ZZ=            -65.2329
   XY=             -0.0024   XZ=              0.0891   YZ=              0.0821

 Normal termination of Gaussian 16 at Fri Sep 22 16:27:26 2023.
