 Gaussian 16, Revision A.03,
 Gaussian 16:  ES64L-G16RevA.03 25-Dec-2016

 ----------------------------------------------------------------------
 #p b3lyp/gen scrf=(cpcm,solvent=toluene) pop=hirshfeld empiricaldisper
 sion=gd3bj
 ----------------------------------------------------------------------

 -----------------------
 tmpdir/M1_conf_0_21.gjf
 -----------------------
 Symbolic Z-matrix:
 Charge =  0 Multiplicity = 1

                         Standard orientation:
 ---------------------------------------------------------------------
 Center     Atomic      Atomic             Coordinates (Angstroms)
 Number     Number       Type             X           Y           Z
 ---------------------------------------------------------------------
      1          6           0       -0.011743   -0.007967   -0.007392
      2          1           0       -1.080203   -0.114880    0.190171
      3          1           0        0.571749   -0.025018    0.930184
      4          1           0        0.195952    0.974461   -0.455248
      5          1           0        0.382959   -0.786764   -0.620753
 ---------------------------------------------------------------------

 SCF Done:  E(RB3LYP) =  -40.5127839124     A.U. after    7 cycles

 The electronic state is 1-A.
 Alpha  occ. eigenvalues --  -10.16051  -0.69567  -0.40306  -0.39515  -0.38293
 Alpha virt. eigenvalues --    0.05771   0.12443   0.12586   0.12962   0.36720
 Alpha virt. eigenvalues --    0.37709   0.38596   0.63199   0.64037   0.65049
 Alpha virt. eigenvalues --    0.68844   0.96306   1.28340   1.29455   1.84456

 Mulliken charges:
               1
     1  C   -0.344458
     2  H    0.093230
     3  H    0.081703
     4  H    0.084661
     5  H    0.084865
 Sum of Mulliken charges =  -0.00000

 Dipole moment (field-independent basis, Debye):
    X=              0.0495    Y=              0.0094    Z=              0.0099  Tot=              0.0514
 Quadrupole moment (field-independent basis, Debye-Ang):
   XX=             -8.2733   YY=             -8.4280   ZZ=             -8.6064
   XY=             -0.0201   XZ=             -0.0452   YZ=              0.0455

 Normal termination of Gaussian 16 at Fri Sep 22 16:27:18 2023.
