 Gaussian 16, Revision A.03,
 Gaussian 16:  ES64L-G16RevA.03 25-Dec-2016

 ----------------------------------------------------------------------
 #p b3lyp/gen scrf=(cpcm,solvent=toluene) pop=hirshfeld empiricaldisper
 sion=gd3bj
 ----------------------------------------------------------------------

 -----------------------
 tmpdir/M1_conf_0_24.gjf
 -----------------------
 Symbolic Z-matrix:
 Charge =  0 Multiplicity = 1

                         Standard orientation:
 ---------------------------------------------------------------------
 Center     Atomic      Atomic             Coordinates (Angstroms)
 Number     Number       Type             X           Y           Z
 ---------------------------------------------------------------------
      1          6           0       -0.013994   -0.006082   -0.000330
      2          1           0       -0.330768    0.818452   -0.650614
      3          1           0        0.097484    0.378062    1.017578
      4          1           0        1.073783   -0.351986   -0.322650
      5          1           0       -0.756535   -0.808036   -0.042336
 ---------------------------------------------------------------------

 SCF Done:  E(RB3LYP) =  -40.5092973510     A.U. after    8 cycles

 The electronic state is 1-A.
 Alpha  occ. eigenvalues --  -10.17104  -0.68851  -0.40017  -0.39212  -0.37645
 Alpha virt. eigenvalues --    0.05266   0.11262   0.12550   0.12614   0.36942
 Alpha virt. eigenvalues --    0.37280   0.39080   0.59108   0.63700   0.64050
 Alpha virt. eigenvalues --    0.66484   0.95591   1.28853   1.30040   1.78970

 Mulliken charges:
               1
     1  C   -0.368662
     2  H    0.089701
     3  H    0.088206
     4  H    0.094451
     5  H    0.096304
 Sum of Mulliken charges =  -0.00000

 Dipole moment (field-independent basis, Debye):
    X=             -0.0374    Y=              0.0590    Z=              0.0377  Tot=              0.0794
 Quadrupole moment (field-independent basis, Debye-Ang):
   XX=             -8.3647   YY=             -8.5626   ZZ=             -8.6199
   XY=              0.0934   XZ=              0.0691   YZ=             -0.0207

 Normal termination of Gaussian 16 at Fri Sep 22 16:27:24 2023.
