 Gaussian 16, Revision A.03,
 Gaussian 16:  ES64L-G16RevA.03 25-Dec-2016

 ----------------------------------------------------------------------
 #p b3lyp/gen scrf=(cpcm,solvent=toluene) pop=hirshfeld empiricaldisper
 sion=gd3bj
 ----------------------------------------------------------------------

 -----------------------
 tmpdir/M1_conf_0_19.gjf
 -----------------------
 Symbolic Z-matrix:
 Charge =  0 Multiplicity = 1

                         Standard orientation:
 ---------------------------------------------------------------------
 Center     Atomic      Atomic             Coordinates (Angstroms)
 Number     Number       Type             X           Y           Z
 ---------------------------------------------------------------------
      1          6           0        0.005555   -0.001745   -0.000250
      2          1           0       -0.072400    1.090267   -0.070418
      3          1           0       -0.513147   -0.447914   -0.856366
      4          1           0       -0.506231   -0.331036    0.912054
      5          1           0        1.058450   -0.300849    0.016230
 ---------------------------------------------------------------------

 SCF Done:  E(RB3LYP) =  -40.5140696107     A.U. after    7 cycles

 The electronic state is 1-A.
 Alpha  occ. eigenvalues --  -10.16261  -0.69373  -0.39678  -0.39161  -0.39024
 Alpha virt. eigenvalues --    0.05703   0.12571   0.12577   0.12610   0.37347
 Alpha virt. eigenvalues --    0.37525   0.38104   0.63740   0.63791   0.64080
 Alpha virt. eigenvalues --    0.67776   0.96144   1.28729   1.29092   1.85424

 Mulliken charges:
               1
     1  C   -0.351007
     2  H    0.086743
     3  H    0.086786
     4  H    0.086601
     5  H    0.090877
 Sum of Mulliken charges =  -0.00000

 Dipole moment (field-independent basis, Debye):
    X=             -0.0218    Y=              0.0060    Z=              0.0006  Tot=              0.0226
 Quadrupole moment (field-independent basis, Debye-Ang):
   XX=             -8.3676   YY=             -8.4759   ZZ=             -8.5053
   XY=             -0.0060   XZ=              0.0015   YZ=              0.0010

 Normal termination of Gaussian 16 at Fri Sep 22 16:27:16 2023.
