 Gaussian 16, Revision A.03,
 Gaussian 16:  ES64L-G16RevA.03 25-Dec-2016

 ----------------------------------------------------------------------
 #p b3lyp/gen scrf=(cpcm,solvent=toluene) pop=hirshfeld empiricaldisper
 sion=gd3bj
 ----------------------------------------------------------------------

 -----------------------
 tmpdir/M1_conf_0_15.gjf
 -----------------------
 Symbolic Z-matrix:
 Charge =  0 Multiplicity = 1

                         Standard orientation:
 ---------------------------------------------------------------------
 Center     Atomic      Atomic             Coordinates (Angstroms)
 Number     Number       Type             X           Y           Z
 ---------------------------------------------------------------------
      1          7           0       -0.955154   -0.622393   -0.017369
      2          6           0       -0.911669    0.756922   -0.011727
      3          6           0        0.352754   -1.127644    0.000631
      4          6           0        0.431926    1.138959   -0.002151
      5          6           0        1.209460   -0.054828   -0.007639
      6          1           0        2.291569   -0.105279    0.006164
      7          1           0       -1.818070   -1.160672    0.160230
      8          1           0       -1.758048    1.408669   -0.034167
      9          1           0        0.628423   -2.172813    0.002978
     10          1           0        0.847375    2.106392    0.111691
 ---------------------------------------------------------------------

 SCF Done:  E(RB3LYP) =  -210.147680637     A.U. after   12 cycles

 The electronic state is 1-A.
 Alpha  occ. eigenvalues --  -14.36630 -10.19945 -10.19815 -10.15967 -10.15865
 Alpha  occ. eigenvalues --   -0.97256  -0.77437  -0.72229  -0.59038  -0.56413
 Alpha  occ. eigenvalues --   -0.54898  -0.43692  -0.43177  -0.40616  -0.39347
 Alpha  occ. eigenvalues --   -0.37378  -0.25197  -0.22027
 Alpha virt. eigenvalues --    0.02081   0.04442   0.06808   0.08387   0.09395
 Alpha virt. eigenvalues --    0.10347   0.12094   0.20157   0.20849   0.27318
 Alpha virt. eigenvalues --    0.28036   0.37028   0.38072   0.43236   0.44891

 Mulliken charges:
               1
     1  N   -0.396206
     2  C    0.126343
     3  C    0.120024
     4  C   -0.148877
     5  C   -0.159084
     6  H    0.052740
     7  H    0.203449
     8  H    0.078396
     9  H    0.081164
    10  H    0.042050
 Sum of Mulliken charges =  -0.00000

 Dipole moment (field-independent basis, Debye):
    X=             -1.7241    Y=             -1.1362    Z=              0.3959  Tot=              2.1024
 Quadrupole moment (field-independent basis, Debye-Ang):
   XX=            -24.4661   YY=            -26.0946   ZZ=            -34.3937
   XY=              1.2577   XZ=             -0.4019   YZ=             -0.1777

 Normal termination of Gaussian 16 at Fri Sep 22 16:27:12 2023.
