 Gaussian 16, Revision A.03,
 Gaussian 16:  ES64L-G16RevA.03 25-Dec-2016

 ----------------------------------------------------------------------
 #p b3lyp/gen scrf=(cpcm,solvent=toluene) pop=hirshfeld empiricaldisper
 sion=gd3bj
 ----------------------------------------------------------------------

 ----------------------
 tmpdir/M1_conf_0_5.gjf
 ----------------------
 Symbolic Z-matrix:
 Charge =  0 Multiplicity = 1

                         Standard orientation:
 ---------------------------------------------------------------------
 Center     Atomic      Atomic             Coordinates (Angstroms)
 Number     Number       Type             X           Y           Z
 ---------------------------------------------------------------------
      1          6           0        0.007400    0.006369   -0.013058
      2          1           0        0.157533   -0.119822    1.064120
      3          1           0        1.000924   -0.196951   -0.489296
      4          1           0       -0.387370    1.034505   -0.191947
      5          1           0       -0.815488   -0.755943   -0.304529
 ---------------------------------------------------------------------

 SCF Done:  E(RB3LYP) =  -40.5099948826     A.U. after    8 cycles

 The electronic state is 1-A.
 Alpha  occ. eigenvalues --  -10.17299  -0.68678  -0.39915  -0.38684  -0.37962
 Alpha virt. eigenvalues --    0.05221   0.11577   0.12160   0.12402   0.36351
 Alpha virt. eigenvalues --    0.37623   0.39333   0.60483   0.62431   0.62962
 Alpha virt. eigenvalues --    0.65774   0.95697   1.28711   1.30068   1.80072

 Mulliken charges:
               1
     1  C   -0.375673
     2  H    0.083903
     3  H    0.099908
     4  H    0.096598
     5  H    0.095264
 Sum of Mulliken charges =  -0.00000

 Dipole moment (field-independent basis, Debye):
    X=              0.0056    Y=              0.0053    Z=              0.0976  Tot=              0.0980
 Quadrupole moment (field-independent basis, Debye-Ang):
   XX=             -8.3057   YY=             -8.5234   ZZ=             -8.7633
   XY=             -0.0665   XZ=             -0.0273   YZ=             -0.0263

 Normal termination of Gaussian 16 at Fri Sep 22 16:26:54 2023.
