 Gaussian 16, Revision A.03,
 Gaussian 16:  ES64L-G16RevA.03 25-Dec-2016

 ----------------------------------------------------------------------
 #p b3lyp/gen scrf=(cpcm,solvent=toluene) pop=hirshfeld empiricaldisper
 sion=gd3bj
 ----------------------------------------------------------------------

 --------------------
 tmpdir/M1_ref_24.gjf
 --------------------
 Symbolic Z-matrix:
 Charge =  0 Multiplicity = 1

                         Standard orientation:
 ---------------------------------------------------------------------
 Center     Atomic      Atomic             Coordinates (Angstroms)
 Number     Number       Type             X           Y           Z
 ---------------------------------------------------------------------
      1          6           0       -0.015053    0.010160   -0.005174
      2          1           0       -0.487217   -0.046233    0.986460
      3          1           0       -0.653211   -0.507705   -0.729033
      4          1           0        1.033963   -0.537825    0.057920
      5          1           0        0.196784    1.030802   -0.284304
 ---------------------------------------------------------------------

 SCF Done:  E(RB3LYP) =  -40.5095544560     A.U. after    8 cycles

 The electronic state is 1-A.
 Alpha  occ. eigenvalues --  -10.17004  -0.68921  -0.40323  -0.39245  -0.37493
 Alpha virt. eigenvalues --    0.05328   0.11279   0.12511   0.12775   0.37250
 Alpha virt. eigenvalues --    0.37338   0.38724   0.59194   0.63603   0.64631
 Alpha virt. eigenvalues --    0.66698   0.95586   1.28848   1.30036   1.81525

 Mulliken charges:
               1
     1  C   -0.365699
     2  H    0.091238
     3  H    0.093669
     4  H    0.089207
     5  H    0.091585
 Sum of Mulliken charges =   0.00000

 Dipole moment (field-independent basis, Debye):
    X=             -0.0299    Y=              0.0262    Z=              0.0076  Tot=              0.0405
 Quadrupole moment (field-independent basis, Debye-Ang):
   XX=             -8.4792   YY=             -8.5122   ZZ=             -8.5371
   XY=              0.1359   XZ=             -0.0054   YZ=             -0.0024

 Normal termination of Gaussian 16 at Fri Sep 22 16:26:27 2023.
