 Gaussian 16, Revision A.03,
 Gaussian 16:  ES64L-G16RevA.03 25-Dec-2016

 ----------------------------------------------------------------------
 #p b3lyp/gen scrf=(cpcm,solvent=toluene) pop=hirshfeld empiricaldisper
 sion=gd3bj
 ----------------------------------------------------------------------

 --------------------
 tmpdir/M1_ref_13.gjf
 --------------------
 Symbolic Z-matrix:
 Charge =  0 Multiplicity = 1

                         Standard orientation:
 ---------------------------------------------------------------------
 Center     Atomic      Atomic             Coordinates (Angstroms)
 Number     Number       Type             X           Y           Z
 ---------------------------------------------------------------------
      1          6           0       -2.445442   -0.713679    0.023505
      2          6           0       -1.246652   -1.391816    0.024316
      3          6           0       -2.425186    0.708732   -0.033827
      4          6           0       -0.002836   -0.708473    0.003995
      5          1           0       -1.221178   -2.477984    0.038379
      6          6           0       -1.239988    1.403782   -0.025214
      7          1           0       -3.356908    1.263015   -0.115648
      8          6           0        0.006628    0.721830    0.012993
      9          1           0       -1.248475    2.492129   -0.072589
     10          6           0        1.252304    1.401901    0.039040
     11          6           0        2.435723    0.699148    0.012821
     12          1           0        1.254557    2.487195    0.096171
     13          1           0        3.385745    1.229434    0.031130
     14          6           0        1.236238   -1.404004   -0.025248
     15          6           0        2.428449   -0.715683   -0.030851
     16          1           0        1.227250   -2.493160   -0.043781
     17          1           0        3.371567   -1.258324   -0.060027
     18          1           0       -3.407984   -1.252727    0.117174
 ---------------------------------------------------------------------

 SCF Done:  E(RB3LYP) =  -385.862432219     A.U. after   12 cycles

 The electronic state is 1-A.
 Alpha  occ. eigenvalues --  -10.19474 -10.19429 -10.19010 -10.18763 -10.18735
 Alpha  occ. eigenvalues --  -10.18713 -10.18706 -10.18681 -10.18653 -10.18638
 Alpha  occ. eigenvalues --   -0.88654  -0.83233  -0.78462  -0.75176  -0.72964
 Alpha  occ. eigenvalues --   -0.63497  -0.62146  -0.60558  -0.52278  -0.51850
 Alpha  occ. eigenvalues --   -0.50248  -0.45581  -0.45118  -0.42782  -0.42655
 Alpha  occ. eigenvalues --   -0.40942  -0.40274  -0.37814  -0.34994  -0.34100
 Alpha  occ. eigenvalues --   -0.33830  -0.29797  -0.25706  -0.22940
 Alpha virt. eigenvalues --   -0.05351  -0.02610   0.01189   0.04682   0.06062
 Alpha virt. eigenvalues --    0.06558   0.08150   0.09752   0.09862   0.11502
 Alpha virt. eigenvalues --    0.12820   0.15721   0.17511   0.20781   0.23913

 Mulliken charges:
               1
     1  C   -0.044409
     2  C    0.001158
     3  C   -0.049399
     4  C   -0.145787
     5  H    0.048347
     6  C   -0.005287
     7  H    0.066158
     8  C   -0.138195
     9  H    0.049366
    10  C    0.002592
    11  C   -0.043422
    12  H    0.048554
    13  H    0.065893
    14  C   -0.002897
    15  C   -0.043458
    16  H    0.049901
    17  H    0.065518
    18  H    0.075367
 Sum of Mulliken charges =  -0.00000

 Dipole moment (field-independent basis, Debye):
    X=              0.0277    Y=             -0.0031    Z=              0.0063  Tot=              0.0286
 Quadrupole moment (field-independent basis, Debye-Ang):
   XX=            -51.1445   YY=            -51.4928   ZZ=            -65.2182
   XY=             -0.0011   XZ=             -0.0124   YZ=             -0.1036

 Normal termination of Gaussian 16 at Fri Sep 22 16:26:29 2023.
