 Gaussian 16, Revision A.03,
 Gaussian 16:  ES64L-G16RevA.03 25-Dec-2016

 ----------------------------------------------------------------------
 #p b3lyp/gen scrf=(cpcm,solvent=toluene) pop=hirshfeld empiricaldisper
 sion=gd3bj
 ----------------------------------------------------------------------

 -------------------
 tmpdir/M1_ref_9.gjf
 -------------------
 Symbolic Z-matrix:
 Charge =  1 Multiplicity = 1

                         Standard orientation:
 ---------------------------------------------------------------------
 Center     Atomic      Atomic             Coordinates (Angstroms)
 Number     Number       Type             X           Y           Z
 ---------------------------------------------------------------------
      1          6           0       -0.649970    0.048990    0.027383
      2          8           0        0.582404   -0.167923   -0.093191
      3          1           0        1.588508    0.725270    0.465661
      4          1           0       -1.059946    1.047604   -0.218723
      5          1           0       -1.287969   -0.723426    0.334291
 ---------------------------------------------------------------------

 SCF Done:  E(RB3LYP) =  -114.738591596     A.U. after   10 cycles

 The electronic state is 1-A.
 Alpha  occ. eigenvalues --  -19.37383 -10.46972  -1.25958  -0.82689  -0.68869
 Alpha  occ. eigenvalues --   -0.66892  -0.59821  -0.48493
 Alpha virt. eigenvalues --   -0.28274  -0.21215  -0.03504   0.01960   0.06075
 Alpha virt. eigenvalues --    0.23989   0.27759   0.33288   0.38506   0.39389
 Alpha virt. eigenvalues --    0.45594   0.59291   0.64916   0.72992   0.91180

 Mulliken charges:
               1
     1  C    0.367207
     2  O   -0.332590
     3  H    0.564545
     4  H    0.205672
     5  H    0.195165
 Sum of Mulliken charges =   1.00000

 Dipole moment (field-independent basis, Debye):
    X=              0.2493    Y=              2.4425    Z=              1.4722  Tot=              2.8628
 Quadrupole moment (field-independent basis, Debye-Ang):
   XX=             -1.8296   YY=             -8.5348   ZZ=            -10.0655
   XY=              3.4571   XZ=              2.0499   YZ=              0.6854

 Normal termination of Gaussian 16 at Fri Sep 22 16:25:59 2023.
