 Gaussian 16, Revision A.03,
 Gaussian 16:  ES64L-G16RevA.03 25-Dec-2016

 ----------------------------------------------------------------------
 #p b3lyp/gen scrf=(cpcm,solvent=toluene) pop=hirshfeld empiricaldisper
 sion=gd3bj
 ----------------------------------------------------------------------

 --------------------
 tmpdir/M1_ref_15.gjf
 --------------------
 Symbolic Z-matrix:
 Charge =  0 Multiplicity = 1

                         Standard orientation:
 ---------------------------------------------------------------------
 Center     Atomic      Atomic             Coordinates (Angstroms)
 Number     Number       Type             X           Y           Z
 ---------------------------------------------------------------------
      1          7           0       -0.942668   -0.642227   -0.013172
      2          6           0       -0.927158    0.740755   -0.007066
      3          6           0        0.374921   -1.120082   -0.005406
      4          6           0        0.408777    1.146187    0.007981
      5          6           0        1.211266   -0.030708   -0.007224
      6          1           0        2.294287   -0.060180    0.001094
      7          1           0       -1.785538   -1.196623    0.204183
      8          1           0       -1.781548    1.371437   -0.120620
      9          1           0        0.665680   -2.160965   -0.028946
     10          1           0        0.798957    2.125014    0.106780
 ---------------------------------------------------------------------

 SCF Done:  E(RB3LYP) =  -210.146998127     A.U. after   12 cycles

 The electronic state is 1-A.
 Alpha  occ. eigenvalues --  -14.36554 -10.19908 -10.19845 -10.16015 -10.15913
 Alpha  occ. eigenvalues --   -0.97193  -0.77439  -0.72234  -0.59015  -0.56418
 Alpha  occ. eigenvalues --   -0.54870  -0.43719  -0.43250  -0.40435  -0.39384
 Alpha  occ. eigenvalues --   -0.37399  -0.25215  -0.22047
 Alpha virt. eigenvalues --    0.01849   0.04544   0.06777   0.08394   0.09401
 Alpha virt. eigenvalues --    0.10348   0.12049   0.20217   0.20790   0.27181
 Alpha virt. eigenvalues --    0.28098   0.37103   0.38190   0.43230   0.45111

 Mulliken charges:
               1
     1  N   -0.397179
     2  C    0.122536
     3  C    0.119538
     4  C   -0.146974
     5  C   -0.157611
     6  H    0.052927
     7  H    0.204054
     8  H    0.079507
     9  H    0.081375
    10  H    0.041826
 Sum of Mulliken charges =  -0.00000

 Dipole moment (field-independent basis, Debye):
    X=             -1.6556    Y=             -1.1589    Z=              0.3205  Tot=              2.0462
 Quadrupole moment (field-independent basis, Debye-Ang):
   XX=            -24.6246   YY=            -26.0261   ZZ=            -34.3415
   XY=              1.2760   XZ=             -0.4055   YZ=             -0.3876

 Normal termination of Gaussian 16 at Fri Sep 22 16:26:15 2023.
