 Gaussian 16, Revision A.03,
 Gaussian 16:  ES64L-G16RevA.03 25-Dec-2016

 ----------------------------------------------------------------------
 #p b3lyp/gen scrf=(cpcm,solvent=toluene) pop=hirshfeld empiricaldisper
 sion=gd3bj
 ----------------------------------------------------------------------

 --------------------
 tmpdir/M1_ref_19.gjf
 --------------------
 Symbolic Z-matrix:
 Charge =  0 Multiplicity = 1

                         Standard orientation:
 ---------------------------------------------------------------------
 Center     Atomic      Atomic             Coordinates (Angstroms)
 Number     Number       Type             X           Y           Z
 ---------------------------------------------------------------------
      1          6           0        0.005316   -0.001671    0.000257
      2          1           0       -0.100491    1.079553   -0.154500
      3          1           0       -0.464145   -0.525838   -0.839611
      4          1           0       -0.532053   -0.277664    0.915629
      5          1           0        1.064794   -0.266022    0.076942
 ---------------------------------------------------------------------

 SCF Done:  E(RB3LYP) =  -40.5140838517     A.U. after    7 cycles

 The electronic state is 1-A.
 Alpha  occ. eigenvalues --  -10.16262  -0.69371  -0.39658  -0.39158  -0.39047
 Alpha virt. eigenvalues --    0.05703   0.12567   0.12580   0.12610   0.37372
 Alpha virt. eigenvalues --    0.37529   0.38075   0.63740   0.63793   0.64073
 Alpha virt. eigenvalues --    0.67770   0.96143   1.28749   1.29072   1.85477

 Mulliken charges:
               1
     1  C   -0.351037
     2  H    0.086755
     3  H    0.086769
     4  H    0.086788
     5  H    0.090725
 Sum of Mulliken charges =  -0.00000

 Dipole moment (field-independent basis, Debye):
    X=             -0.0207    Y=              0.0052    Z=             -0.0017  Tot=              0.0214
 Quadrupole moment (field-independent basis, Debye-Ang):
   XX=             -8.3721   YY=             -8.4764   ZZ=             -8.5005
   XY=             -0.0048   XZ=              0.0027   YZ=              0.0011

 Normal termination of Gaussian 16 at Fri Sep 22 16:26:20 2023.
