 Gaussian 16, Revision A.03,
 Gaussian 16:  ES64L-G16RevA.03 25-Dec-2016

 ----------------------------------------------------------------------
 #p b3lyp/gen scrf=(cpcm,solvent=toluene) pop=hirshfeld empiricaldisper
 sion=gd3bj
 ----------------------------------------------------------------------

 --------------------
 tmpdir/M1_ref_17.gjf
 --------------------
 Symbolic Z-matrix:
 Charge =  0 Multiplicity = 1

                         Standard orientation:
 ---------------------------------------------------------------------
 Center     Atomic      Atomic             Coordinates (Angstroms)
 Number     Number       Type             X           Y           Z
 ---------------------------------------------------------------------
      1          8           0        0.000000    0.097939    0.000000
      2          1           0        0.822671   -0.329300    0.000000
      3          1           0       -0.822671   -0.454216   -0.000000
 ---------------------------------------------------------------------

 SCF Done:  E(RB3LYP) =  -76.4063711437     A.U. after    8 cycles

 The electronic state is 1-A'.
 Alpha  occ. eigenvalues --  -19.10993  -0.99991  -0.54945  -0.35717  -0.30375
 Alpha virt. eigenvalues --    0.03801   0.11205   0.53474   0.61096   0.79093
 Alpha virt. eigenvalues --    0.80116   0.90878   1.35042   1.54319   1.75557
 Alpha virt. eigenvalues --    1.82650   1.98028   2.35059   2.51342   2.60355

 Mulliken charges:
               1
     1  O   -0.474691
     2  H    0.220090
     3  H    0.254602
 Sum of Mulliken charges =  -0.00000

 Dipole moment (field-independent basis, Debye):
    X=              0.0271    Y=             -1.9065    Z=              0.0000  Tot=              1.9067
 Quadrupole moment (field-independent basis, Debye-Ang):
   XX=             -3.7169   YY=             -6.4553   ZZ=             -7.3156
   XY=              0.2399   XZ=             -0.0000   YZ=              0.0000

 Normal termination of Gaussian 16 at Fri Sep 22 16:26:19 2023.
