 Gaussian 16, Revision A.03,
 Gaussian 16:  ES64L-G16RevA.03 25-Dec-2016

 ----------------------------------------------------------------------
 #p b3lyp/gen scrf=(cpcm,solvent=toluene) pop=hirshfeld empiricaldisper
 sion=gd3bj
 ----------------------------------------------------------------------

 -------------------
 tmpdir/M1_ref_8.gjf
 -------------------
 Symbolic Z-matrix:
 Charge =  0 Multiplicity = 1

                         Standard orientation:
 ---------------------------------------------------------------------
 Center     Atomic      Atomic             Coordinates (Angstroms)
 Number     Number       Type             X           Y           Z
 ---------------------------------------------------------------------
      1          6           0       -1.266726    0.042980   -0.916409
      2          1           0       -2.096803    0.361814   -0.284210
      3          6           0        0.013871   -0.002500   -0.018488
      4          6           0        0.236273    1.391939    0.587768
      5          1           0        0.424393    2.149395   -0.183601
      6          1           0       -0.627528    1.713038    1.184316
      7          1           0        1.110582    1.372307    1.250350
      8          6           0        1.271303   -0.423999   -0.796062
      9          1           0        1.159765   -1.404782   -1.273993
     10          1           0        1.531196    0.303165   -1.572549
     11          1           0        2.116674   -0.495637   -0.098831
     12          6           0       -0.253356   -1.006118    1.115747
     13          1           0       -1.167873   -0.747644    1.665816
     14          1           0       -0.362767   -2.027360    0.734714
     15          1           0        0.585478   -0.997629    1.823606
     16          1           0       -1.527046   -0.986506   -1.316627
     17          1           0       -1.154264    0.746026   -1.764323
 ---------------------------------------------------------------------

 SCF Done:  E(RB3LYP) =  -197.758395718     A.U. after   10 cycles

 The electronic state is 1-A.
 Alpha  occ. eigenvalues --  -10.18466 -10.16640 -10.16188 -10.16144 -10.16105
 Alpha  occ. eigenvalues --   -0.81932  -0.68515  -0.68269  -0.67779  -0.53191
 Alpha  occ. eigenvalues --   -0.44947  -0.44696  -0.44385  -0.40140  -0.39711
 Alpha  occ. eigenvalues --   -0.36453  -0.36384  -0.36070  -0.32545  -0.32288
 Alpha  occ. eigenvalues --   -0.31663
 Alpha virt. eigenvalues --    0.03669   0.08730   0.08863   0.08937   0.10055
 Alpha virt. eigenvalues --    0.10433   0.10505   0.13647   0.14303   0.16332
 Alpha virt. eigenvalues --    0.16744   0.16982   0.17152   0.20989   0.21509

 Mulliken charges:
               1
     1  C   -0.108812
     2  H    0.077492
     3  C   -0.570316
     4  C   -0.094116
     5  H    0.080637
     6  H    0.078779
     7  H    0.076679
     8  C   -0.084900
     9  H    0.079479
    10  H    0.079725
    11  H    0.076985
    12  C   -0.095112
    13  H    0.078671
    14  H    0.080103
    15  H    0.076778
    16  H    0.084230
    17  H    0.083698
 Sum of Mulliken charges =  -0.00000

 Dipole moment (field-independent basis, Debye):
    X=              0.0369    Y=              0.0122    Z=              0.0399  Tot=              0.0557
 Quadrupole moment (field-independent basis, Debye-Ang):
   XX=            -36.0269   YY=            -35.9109   ZZ=            -36.0540
   XY=              0.0016   XZ=             -0.1760   YZ=             -0.0165

 Normal termination of Gaussian 16 at Fri Sep 22 16:26:16 2023.
