 Gaussian 16, Revision A.03,
 Gaussian 16:  ES64L-G16RevA.03 25-Dec-2016

 ----------------------------------------------------------------------
 #p b3lyp/gen scrf=(cpcm,solvent=toluene) pop=hirshfeld empiricaldisper
 sion=gd3bj
 ----------------------------------------------------------------------

 --------------------
 tmpdir/M1_ref_10.gjf
 --------------------
 Symbolic Z-matrix:
 Charge =  0 Multiplicity = 1

                         Standard orientation:
 ---------------------------------------------------------------------
 Center     Atomic      Atomic             Coordinates (Angstroms)
 Number     Number       Type             X           Y           Z
 ---------------------------------------------------------------------
      1          7           0       -0.015090   -0.017461   -0.006762
      2          1           0       -0.817591   -0.493465    0.018099
      3          1           0       -0.014881    1.031371    0.013999
      4          1           0        0.938101   -0.415679    0.015235
 ---------------------------------------------------------------------

 SCF Done:  E(RB3LYP) =  -56.5319974344     A.U. after    8 cycles

 The electronic state is 1-A.
 Alpha  occ. eigenvalues --  -14.27658  -0.82951  -0.49559  -0.45055  -0.23137
 Alpha virt. eigenvalues --    0.04875   0.11980   0.13085   0.49299   0.55209
 Alpha virt. eigenvalues --    0.61147   0.66039   0.76134   0.77913   1.07837
 Alpha virt. eigenvalues --    1.47909   1.50460   1.83580   1.97603   1.99518

 Mulliken charges:
               1
     1  N   -0.509803
     2  H    0.146386
     3  H    0.180282
     4  H    0.183135
 Sum of Mulliken charges =   0.00000

 Dipole moment (field-independent basis, Debye):
    X=              0.1448    Y=              0.1491    Z=              0.1282  Tot=              0.2442
 Quadrupole moment (field-independent basis, Debye-Ang):
   XX=             -5.5120   YY=             -5.7851   ZZ=             -9.3691
   XY=              0.0706   XZ=             -0.0065   YZ=             -0.0063

 Normal termination of Gaussian 16 at Fri Sep 22 16:26:01 2023.
