 Gaussian 16, Revision A.03,
 Gaussian 16:  ES64L-G16RevA.03 25-Dec-2016

 ----------------------------------------------------------------------
 #p b3lyp/gen scrf=(cpcm,solvent=toluene) pop=hirshfeld empiricaldisper
 sion=gd3bj
 ----------------------------------------------------------------------

 -------------------
 tmpdir/M1_ref_7.gjf
 -------------------
 Symbolic Z-matrix:
 Charge = -1 Multiplicity = 1

                         Standard orientation:
 ---------------------------------------------------------------------
 Center     Atomic      Atomic             Coordinates (Angstroms)
 Number     Number       Type             X           Y           Z
 ---------------------------------------------------------------------
      1         17           0        2.885866    0.002349    0.012332
      2          6           0       -0.912556   -0.009393   -0.012703
      3          7           0       -0.180128    1.132996   -0.000917
      4          1           0        0.839138    1.024807    0.028017
      5          7           0       -0.159437   -1.125479   -0.067851
      6          1           0        0.854158   -0.958106   -0.085091
      7         16           0       -2.619418   -0.006442    0.015435
      8          1           0       -0.569098    2.063089   -0.075392
      9          1           0       -0.420936   -2.062925    0.233456
 ---------------------------------------------------------------------

 SCF Done:  E(RB3LYP) =  -1008.58465696     A.U. after   12 cycles

 The electronic state is 1-A.
 Alpha  occ. eigenvalues -- -101.34298 -88.73295 -14.28242 -14.28158 -10.24052
 Alpha  occ. eigenvalues --   -9.27921  -7.81891  -7.04205  -7.04164  -7.04121
 Alpha  occ. eigenvalues --   -5.78890  -5.78179  -5.77947  -0.92511  -0.82319
 Alpha  occ. eigenvalues --   -0.66725  -0.63220  -0.56251  -0.48012  -0.47295
 Alpha  occ. eigenvalues --   -0.43096  -0.35137  -0.31396  -0.22169  -0.18442
 Alpha  occ. eigenvalues --   -0.18343  -0.18015  -0.16896  -0.16128
 Alpha virt. eigenvalues --    0.05337   0.10202   0.13074   0.13654   0.20296
 Alpha virt. eigenvalues --    0.21044   0.30758   0.31282   0.37426   0.38802
 Alpha virt. eigenvalues --    0.42093   0.43498   0.46715   0.47072   0.51889

 Mulliken charges:
               1
     1  Cl  -0.865027
     2  C    0.254134
     3  N   -0.326355
     4  H    0.196941
     5  N   -0.332652
     6  H    0.193974
     7  S   -0.510292
     8  H    0.192257
     9  H    0.197021
 Sum of Mulliken charges =  -1.00000

 Dipole moment (field-independent basis, Debye):
    X=             -3.8345    Y=              0.0856    Z=              0.2694  Tot=              3.8450
 Quadrupole moment (field-independent basis, Debye-Ang):
   XX=           -101.3126   YY=            -42.0470   ZZ=            -51.7010
   XY=             -0.4434   XZ=             -0.1892   YZ=             -1.4074

 Normal termination of Gaussian 16 at Fri Sep 22 16:26:00 2023.
