 Gaussian 16, Revision A.03,
 Gaussian 16:  ES64L-G16RevA.03 25-Dec-2016

 ----------------------------------------------------------------------
 #p b3lyp/gen scrf=(cpcm,solvent=toluene) pop=hirshfeld empiricaldisper
 sion=gd3bj
 ----------------------------------------------------------------------

 ------------------------
 tmpdir/M2_conf_0_129.gjf
 ------------------------
 Symbolic Z-matrix:
 Charge =  0 Multiplicity = 1

                         Standard orientation:
 ---------------------------------------------------------------------
 Center     Atomic      Atomic             Coordinates (Angstroms)
 Number     Number       Type             X           Y           Z
 ---------------------------------------------------------------------
      1          6           0        0.773370    0.005628   -0.006176
      2          6           0       -0.763299   -0.002585   -0.000862
      3          1           0       -1.159069   -0.950011    0.387611
      4          1           0        1.136485   -0.855325   -0.646423
      5          1           0        1.134121    0.994081   -0.368614
      6          1           0        1.141270   -0.170104    1.029774
      7          1           0       -1.177812    0.159534   -1.003840
      8          1           0       -1.135426    0.803568    0.643725
 ---------------------------------------------------------------------

 SCF Done:  E(RB3LYP) =  -79.8203344281     A.U. after    9 cycles

 The electronic state is 1-A.
 Alpha  occ. eigenvalues --  -10.17271 -10.16509  -0.75157  -0.60993  -0.43816
 Alpha  occ. eigenvalues --   -0.43307  -0.36373  -0.34696  -0.34101
 Alpha virt. eigenvalues --    0.04834   0.09191   0.10407   0.10521   0.13452
 Alpha virt. eigenvalues --    0.13702   0.21042   0.37327   0.38971   0.39890
 Alpha virt. eigenvalues --    0.46030   0.47041   0.58109   0.62971   0.63792

 Mulliken charges:
               1
     1  C   -0.272535
     2  C   -0.260618
     3  H    0.086190
     4  H    0.092555
     5  H    0.094463
     6  H    0.089261
     7  H    0.086855
     8  H    0.083829
 Sum of Mulliken charges =  -0.00000

 Dipole moment (field-independent basis, Debye):
    X=             -0.0457    Y=              0.0081    Z=              0.0353  Tot=              0.0583
 Quadrupole moment (field-independent basis, Debye-Ang):
   XX=            -16.1547   YY=            -14.9028   ZZ=            -15.0978
   XY=              0.0224   XZ=              0.0780   YZ=             -0.0344

 Normal termination of Gaussian 16 at Fri Sep 22 16:33:50 2023.
