 Gaussian 16, Revision A.03,
 Gaussian 16:  ES64L-G16RevA.03 25-Dec-2016

 ----------------------------------------------------------------------
 #p b3lyp/gen scrf=(cpcm,solvent=toluene) pop=hirshfeld empiricaldisper
 sion=gd3bj
 ----------------------------------------------------------------------

 ------------------------
 tmpdir/M2_conf_0_309.gjf
 ------------------------
 Symbolic Z-matrix:
 Charge =  0 Multiplicity = 1

                         Standard orientation:
 ---------------------------------------------------------------------
 Center     Atomic      Atomic             Coordinates (Angstroms)
 Number     Number       Type             X           Y           Z
 ---------------------------------------------------------------------
      1          6           0        0.720542    0.470260    0.001386
      2          6           0       -0.699554    0.514329   -0.006282
      3          6           0        1.392709   -0.730271   -0.002438
      4          1           0        1.273825    1.406324    0.018877
      5          6           0       -1.421281   -0.721180    0.004473
      6          1           0       -1.228320    1.394852   -0.001718
 ---------------------------------------------------------------------

 SCF Done:  E(RB3LYP) =  -153.285885466     A.U. after   13 cycles

 The electronic state is 1-A.
 Alpha  occ. eigenvalues --  -10.27961 -10.27016 -10.22581 -10.22330  -0.85694
 Alpha  occ. eigenvalues --   -0.73491  -0.61573  -0.51253  -0.49908  -0.36894
 Alpha  occ. eigenvalues --   -0.33355  -0.31384  -0.25599
 Alpha virt. eigenvalues --   -0.14500  -0.11623  -0.08202   0.04234   0.06071
 Alpha virt. eigenvalues --    0.09871   0.19467   0.26425   0.30439   0.36470
 Alpha virt. eigenvalues --    0.39244   0.43318   0.44433   0.45590   0.46176

 Mulliken charges:
               1
     1  C   -0.164510
     2  C   -0.129777
     3  C   -0.001658
     4  H    0.165998
     5  C    0.005844
     6  H    0.124103
 Sum of Mulliken charges =  -0.00000

 Dipole moment (field-independent basis, Debye):
    X=             -0.0142    Y=              4.0046    Z=              0.0222  Tot=              4.0047
 Quadrupole moment (field-independent basis, Debye-Ang):
   XX=            -25.5599   YY=            -24.4677   ZZ=            -26.6368
   XY=              0.2165   XZ=              0.0782   YZ=              0.0437

 Normal termination of Gaussian 16 at Fri Sep 22 16:36:20 2023.
