 Gaussian 16, Revision A.03,
 Gaussian 16:  ES64L-G16RevA.03 25-Dec-2016

 ----------------------------------------------------------------------
 #p b3lyp/gen scrf=(cpcm,solvent=toluene) pop=hirshfeld empiricaldisper
 sion=gd3bj
 ----------------------------------------------------------------------

 ------------------------
 tmpdir/M2_conf_0_303.gjf
 ------------------------
 Symbolic Z-matrix:
 Charge =  0 Multiplicity = 1

                         Standard orientation:
 ---------------------------------------------------------------------
 Center     Atomic      Atomic             Coordinates (Angstroms)
 Number     Number       Type             X           Y           Z
 ---------------------------------------------------------------------
      1          6           0        0.687366   -0.007710    0.001472
      2          6           0       -0.688525   -0.007084   -0.003612
      3          1           0       -1.227966    0.937245    0.019997
      4          1           0        1.216700   -0.888892    0.011830
      5          1           0        1.234394    0.932067   -0.013842
      6          1           0       -1.216175   -0.891660   -0.005146
 ---------------------------------------------------------------------

 SCF Done:  E(RB3LYP) =  -78.5749547643     A.U. after    9 cycles

 The electronic state is 1-A.
 Alpha  occ. eigenvalues --  -10.18056 -10.17986  -0.76108  -0.59410  -0.47924
 Alpha  occ. eigenvalues --   -0.41822  -0.37343  -0.27419
 Alpha virt. eigenvalues --   -0.01173   0.06589   0.09588   0.09988   0.16160
 Alpha virt. eigenvalues --    0.27698   0.35769   0.41921   0.43561   0.51268
 Alpha virt. eigenvalues --    0.51700   0.55100   0.63552   0.65462   0.70581

 Mulliken charges:
               1
     1  C   -0.186703
     2  C   -0.185781
     3  H    0.102595
     4  H    0.083319
     5  H    0.102204
     6  H    0.084366
 Sum of Mulliken charges =  -0.00000

 Dipole moment (field-independent basis, Debye):
    X=              0.0041    Y=             -0.0235    Z=              0.0138  Tot=              0.0276
 Quadrupole moment (field-independent basis, Debye-Ang):
   XX=            -12.3637   YY=            -12.3150   ZZ=            -15.6585
   XY=              0.0040   XZ=             -0.0226   YZ=              0.0000

 Normal termination of Gaussian 16 at Fri Sep 22 16:36:09 2023.
