 Gaussian 16, Revision A.03,
 Gaussian 16:  ES64L-G16RevA.03 25-Dec-2016

 ----------------------------------------------------------------------
 #p b3lyp/gen scrf=(cpcm,solvent=toluene) pop=hirshfeld empiricaldisper
 sion=gd3bj
 ----------------------------------------------------------------------

 ------------------------
 tmpdir/M2_conf_0_324.gjf
 ------------------------
 Symbolic Z-matrix:
 Charge =  0 Multiplicity = 1

                         Standard orientation:
 ---------------------------------------------------------------------
 Center     Atomic      Atomic             Coordinates (Angstroms)
 Number     Number       Type             X           Y           Z
 ---------------------------------------------------------------------
      1          6           0        0.539249   -0.011156   -0.000530
      2          1           0        1.097013    0.923346    0.001072
      3          8           0       -0.672133    0.005990    0.000121
      4          1           0        1.044555   -0.904325    0.001140
 ---------------------------------------------------------------------

 SCF Done:  E(RB3LYP) =  -114.483667725     A.U. after    9 cycles

 The electronic state is 1-A.
 Alpha  occ. eigenvalues --  -19.13863 -10.27031  -1.06544  -0.64968  -0.51223
 Alpha  occ. eigenvalues --   -0.45486  -0.40378  -0.27414
 Alpha virt. eigenvalues --   -0.05217   0.06552   0.11892   0.18176   0.40312
 Alpha virt. eigenvalues --    0.47581   0.52796   0.60968   0.62730   0.72773
 Alpha virt. eigenvalues --    0.78003   0.87676   0.98034   1.32095   1.50655

 Mulliken charges:
               1
     1  C    0.220750
     2  H    0.076629
     3  O   -0.362717
     4  H    0.065338
 Sum of Mulliken charges =  -0.00000

 Dipole moment (field-independent basis, Debye):
    X=              2.7410    Y=             -0.0900    Z=              0.0002  Tot=              2.7425
 Quadrupole moment (field-independent basis, Debye-Ang):
   XX=            -12.0659   YY=            -11.4842   ZZ=            -11.5001
   XY=             -0.0457   XZ=              0.0011   YZ=              0.0001

 Normal termination of Gaussian 16 at Fri Sep 22 16:35:40 2023.
