 Gaussian 16, Revision A.03,
 Gaussian 16:  ES64L-G16RevA.03 25-Dec-2016

 ----------------------------------------------------------------------
 #p b3lyp/gen scrf=(cpcm,solvent=toluene) pop=hirshfeld empiricaldisper
 sion=gd3bj
 ----------------------------------------------------------------------

 ------------------------
 tmpdir/M2_conf_0_206.gjf
 ------------------------
 Symbolic Z-matrix:
 Charge =  0 Multiplicity = 1

                         Standard orientation:
 ---------------------------------------------------------------------
 Center     Atomic      Atomic             Coordinates (Angstroms)
 Number     Number       Type             X           Y           Z
 ---------------------------------------------------------------------
      1          6           0       -0.711407   -0.015292   -0.000110
      2          6           0        0.708654    0.004607    0.000048
      3          1           0       -1.223664   -0.870564    0.010710
      4          1           0       -1.225757    0.941806   -0.010175
      5          1           0        1.225615   -0.892440   -0.010708
      6          1           0        1.240325    0.885309    0.010549
 ---------------------------------------------------------------------

 SCF Done:  E(RB3LYP) =  -78.5633523404     A.U. after    9 cycles

 The electronic state is 1-A.
 Alpha  occ. eigenvalues --  -10.18322 -10.18115  -0.75553  -0.60450  -0.48077
 Alpha  occ. eigenvalues --   -0.41663  -0.38200  -0.26804
 Alpha virt. eigenvalues --   -0.02083   0.06801   0.09888   0.10365   0.16091
 Alpha virt. eigenvalues --    0.26537   0.36464   0.41870   0.44055   0.50872
 Alpha virt. eigenvalues --    0.52767   0.54277   0.64732   0.65931   0.70228

 Mulliken charges:
               1
     1  C   -0.177470
     2  C   -0.176923
     3  H    0.073653
     4  H    0.104964
     5  H    0.088919
     6  H    0.086858
 Sum of Mulliken charges =  -0.00000

 Dipole moment (field-independent basis, Debye):
    X=              0.0205    Y=             -0.0105    Z=              0.0006  Tot=              0.0231
 Quadrupole moment (field-independent basis, Debye-Ang):
   XX=            -12.2538   YY=            -12.3159   ZZ=            -15.7027
   XY=              0.0998   XZ=             -0.0009   YZ=             -0.0003

 Normal termination of Gaussian 16 at Fri Sep 22 16:35:00 2023.
