 Gaussian 16, Revision A.03,
 Gaussian 16:  ES64L-G16RevA.03 25-Dec-2016

 ----------------------------------------------------------------------
 #p b3lyp/gen scrf=(cpcm,solvent=toluene) pop=hirshfeld empiricaldisper
 sion=gd3bj
 ----------------------------------------------------------------------

 ------------------------
 tmpdir/M2_conf_0_231.gjf
 ------------------------
 Symbolic Z-matrix:
 Charge =  0 Multiplicity = 1

                         Standard orientation:
 ---------------------------------------------------------------------
 Center     Atomic      Atomic             Coordinates (Angstroms)
 Number     Number       Type             X           Y           Z
 ---------------------------------------------------------------------
      1          7           0        1.033479   -0.166170   -0.029549
      2          6           0       -0.194997    0.509375   -0.004055
      3          1           0        0.873690   -1.121219   -0.017619
      4          1           0        1.955256    0.252861    0.169864
      5          8           0       -1.071378   -0.325902    0.013728
      6          1           0       -0.322293    1.582516   -0.030896
 ---------------------------------------------------------------------

 SCF Done:  E(RB3LYP) =  -169.855279259     A.U. after   10 cycles

 The electronic state is 1-A.
 Alpha  occ. eigenvalues --  -19.09554 -14.33041 -10.28787  -1.06098  -0.88743
 Alpha  occ. eigenvalues --   -0.62858  -0.55271  -0.49111  -0.42989  -0.41313
 Alpha  occ. eigenvalues --   -0.27511  -0.26403
 Alpha virt. eigenvalues --   -0.00055   0.05394   0.07226   0.11916   0.19991
 Alpha virt. eigenvalues --    0.26945   0.41053   0.41701   0.49212   0.53631
 Alpha virt. eigenvalues --    0.63981   0.67110   0.67419   0.71565   0.75143

 Mulliken charges:
               1
     1  N   -0.358807
     2  C    0.348629
     3  H    0.169564
     4  H    0.189243
     5  O   -0.441974
     6  H    0.093345
 Sum of Mulliken charges =   0.00000

 Dipole moment (field-independent basis, Debye):
    X=              3.3272    Y=              1.7246    Z=              0.3319  Tot=              3.7623
 Quadrupole moment (field-independent basis, Debye-Ang):
   XX=            -18.2102   YY=            -14.7112   ZZ=            -18.7221
   XY=             -1.5532   XZ=              0.8119   YZ=              0.1058

 Normal termination of Gaussian 16 at Fri Sep 22 16:35:27 2023.
