 Gaussian 16, Revision A.03,
 Gaussian 16:  ES64L-G16RevA.03 25-Dec-2016

 ----------------------------------------------------------------------
 #p b3lyp/gen scrf=(cpcm,solvent=toluene) pop=hirshfeld empiricaldisper
 sion=gd3bj
 ----------------------------------------------------------------------

 -----------------------
 tmpdir/M2_conf_0_44.gjf
 -----------------------
 Symbolic Z-matrix:
 Charge =  0 Multiplicity = 1

                         Standard orientation:
 ---------------------------------------------------------------------
 Center     Atomic      Atomic             Coordinates (Angstroms)
 Number     Number       Type             X           Y           Z
 ---------------------------------------------------------------------
      1          7           0        1.026491   -0.768015    0.020351
      2          6           0        0.012782    0.133973   -0.002692
      3          7           0       -1.210544   -0.429348   -0.046433
      4          1           0        0.760167   -1.757221    0.064864
      5          1           0        2.005842   -0.530671   -0.059973
      6          8           0        0.218453    1.417197   -0.001094
      7          1           0       -1.209371   -1.456838   -0.048312
      8          1           0       -2.092576   -0.015142    0.250895
 ---------------------------------------------------------------------

 SCF Done:  E(RB3LYP) =  -225.236363740     A.U. after   11 cycles

 The electronic state is 1-A.
 Alpha  occ. eigenvalues --  -19.06912 -14.34362 -14.34238 -10.30901  -1.02154
 Alpha  occ. eigenvalues --   -0.92153  -0.88483  -0.63457  -0.55095  -0.54737
 Alpha  occ. eigenvalues --   -0.49388  -0.42261  -0.40046  -0.28284  -0.26222
 Alpha  occ. eigenvalues --   -0.25348
 Alpha virt. eigenvalues --    0.01817   0.04835   0.07230   0.07449   0.13089
 Alpha virt. eigenvalues --    0.23891   0.26986   0.37583   0.43835   0.45774
 Alpha virt. eigenvalues --    0.47744   0.50460   0.51476   0.53561   0.63894

 Mulliken charges:
               1
     1  N   -0.374737
     2  C    0.504043
     3  N   -0.375580
     4  H    0.189828
     5  H    0.203415
     6  O   -0.540797
     7  H    0.186284
     8  H    0.207545
 Sum of Mulliken charges =   0.00000

 Dipole moment (field-independent basis, Debye):
    X=             -0.8570    Y=             -5.8596    Z=              0.4639  Tot=              5.9401
 Quadrupole moment (field-independent basis, Debye-Ang):
   XX=            -16.1608   YY=            -25.1347   ZZ=            -25.8087
   XY=             -1.1664   XZ=             -1.5047   YZ=             -0.0274

 Normal termination of Gaussian 16 at Fri Sep 22 16:33:35 2023.
