 Gaussian 16, Revision A.03,
 Gaussian 16:  ES64L-G16RevA.03 25-Dec-2016

 ----------------------------------------------------------------------
 #p b3lyp/gen scrf=(cpcm,solvent=toluene) pop=hirshfeld empiricaldisper
 sion=gd3bj
 ----------------------------------------------------------------------

 ------------------------
 tmpdir/M2_conf_0_329.gjf
 ------------------------
 Symbolic Z-matrix:
 Charge =  0 Multiplicity = 1

                         Standard orientation:
 ---------------------------------------------------------------------
 Center     Atomic      Atomic             Coordinates (Angstroms)
 Number     Number       Type             X           Y           Z
 ---------------------------------------------------------------------
      1          6           0        0.539083   -0.011080   -0.001607
      2          1           0        1.105805    0.919059    0.003239
      3          1           0        1.050832   -0.901598    0.003441
      4          8           0       -0.673892    0.006127    0.000371
 ---------------------------------------------------------------------

 SCF Done:  E(RB3LYP) =  -114.483939682     A.U. after    9 cycles

 The electronic state is 1-A.
 Alpha  occ. eigenvalues --  -19.13928 -10.27092  -1.06481  -0.65048  -0.51079
 Alpha  occ. eigenvalues --   -0.45536  -0.40352  -0.27455
 Alpha virt. eigenvalues --   -0.05284   0.06536   0.11918   0.18118   0.40310
 Alpha virt. eigenvalues --    0.47921   0.52442   0.60732   0.62524   0.72691
 Alpha virt. eigenvalues --    0.78017   0.87639   0.97941   1.32244   1.50400

 Mulliken charges:
               1
     1  C    0.220909
     2  H    0.076592
     3  H    0.065576
     4  O   -0.363077
 Sum of Mulliken charges =   0.00000

 Dipole moment (field-independent basis, Debye):
    X=              2.7491    Y=             -0.0908    Z=              0.0006  Tot=              2.7506
 Quadrupole moment (field-independent basis, Debye-Ang):
   XX=            -12.0438   YY=            -11.5120   ZZ=            -11.5045
   XY=             -0.0444   XZ=              0.0033   YZ=              0.0002

 Normal termination of Gaussian 16 at Fri Sep 22 16:36:15 2023.
