 Gaussian 16, Revision A.03,
 Gaussian 16:  ES64L-G16RevA.03 25-Dec-2016

 ----------------------------------------------------------------------
 #p b3lyp/gen scrf=(cpcm,solvent=toluene) pop=hirshfeld empiricaldisper
 sion=gd3bj
 ----------------------------------------------------------------------

 ------------------------
 tmpdir/M2_conf_0_139.gjf
 ------------------------
 Symbolic Z-matrix:
 Charge =  0 Multiplicity = 1

                         Standard orientation:
 ---------------------------------------------------------------------
 Center     Atomic      Atomic             Coordinates (Angstroms)
 Number     Number       Type             X           Y           Z
 ---------------------------------------------------------------------
      1          6           0       -0.768881    0.000841   -0.000517
      2          6           0        0.768402   -0.004358   -0.005577
      3          1           0        1.132036    0.654369    0.794220
      4          1           0       -1.212369   -0.709187   -0.763521
      5          1           0       -1.133240    1.028801   -0.219530
      6          1           0       -1.141011   -0.310803    1.001400
      7          1           0        1.184984   -1.001728    0.180076
      8          1           0        1.172478    0.359654   -0.956080
 ---------------------------------------------------------------------

 SCF Done:  E(RB3LYP) =  -79.8210518382     A.U. after    9 cycles

 The electronic state is 1-A.
 Alpha  occ. eigenvalues --  -10.17258 -10.16599  -0.75090  -0.61202  -0.43548
 Alpha  occ. eigenvalues --   -0.43249  -0.36714  -0.34537  -0.34217
 Alpha virt. eigenvalues --    0.04917   0.09036   0.10400   0.10516   0.13608
 Alpha virt. eigenvalues --    0.13748   0.21236   0.37440   0.38848   0.39156
 Alpha virt. eigenvalues --    0.46889   0.47124   0.58001   0.63035   0.63803

 Mulliken charges:
               1
     1  C   -0.277331
     2  C   -0.254276
     3  H    0.085412
     4  H    0.091835
     5  H    0.090575
     6  H    0.089592
     7  H    0.086877
     8  H    0.087316
 Sum of Mulliken charges =  -0.00000

 Dipole moment (field-independent basis, Debye):
    X=              0.0401    Y=              0.0201    Z=              0.0285  Tot=              0.0531
 Quadrupole moment (field-independent basis, Debye-Ang):
   XX=            -15.9528   YY=            -15.0438   ZZ=            -15.0613
   XY=              0.0055   XZ=              0.0067   YZ=             -0.0297

 Normal termination of Gaussian 16 at Fri Sep 22 16:33:59 2023.
