 Gaussian 16, Revision A.03,
 Gaussian 16:  ES64L-G16RevA.03 25-Dec-2016

 ----------------------------------------------------------------------
 #p b3lyp/gen scrf=(cpcm,solvent=toluene) pop=hirshfeld empiricaldisper
 sion=gd3bj
 ----------------------------------------------------------------------

 -----------------------
 tmpdir/M2_conf_0_54.gjf
 -----------------------
 Symbolic Z-matrix:
 Charge =  0 Multiplicity = 1

                         Standard orientation:
 ---------------------------------------------------------------------
 Center     Atomic      Atomic             Coordinates (Angstroms)
 Number     Number       Type             X           Y           Z
 ---------------------------------------------------------------------
      1          6           0       -0.122308    0.403659    0.019658
      2          7           0        1.087895   -0.185406   -0.044904
      3          1           0        1.864813    0.486305   -0.013888
      4          1           0       -0.071384    1.467215    0.083658
      5          8           0       -1.249829   -0.241884   -0.010717
      6          1           0        1.323783   -1.142557    0.212346
 ---------------------------------------------------------------------

 SCF Done:  E(RB3LYP) =  -169.866650763     A.U. after   11 cycles

 The electronic state is 1-A.
 Alpha  occ. eigenvalues --  -19.09522 -14.35959 -10.29069  -1.00952  -0.91904
 Alpha  occ. eigenvalues --   -0.64746  -0.55202  -0.50070  -0.41211  -0.39806
 Alpha  occ. eigenvalues --   -0.28143  -0.26267
 Alpha virt. eigenvalues --   -0.00868   0.03537   0.06411   0.12129   0.20418
 Alpha virt. eigenvalues --    0.30245   0.41645   0.43237   0.48318   0.50907
 Alpha virt. eigenvalues --    0.55164   0.66102   0.67021   0.68816   0.74243

 Mulliken charges:
               1
     1  C    0.363233
     2  N   -0.342026
     3  H    0.203889
     4  H    0.072148
     5  O   -0.503734
     6  H    0.206490
 Sum of Mulliken charges =   0.00000

 Dipole moment (field-independent basis, Debye):
    X=              4.9877    Y=              1.2388    Z=              0.5972  Tot=              5.1738
 Quadrupole moment (field-independent basis, Debye-Ang):
   XX=            -18.3179   YY=            -14.9698   ZZ=            -18.8017
   XY=             -1.2958   XZ=              0.6663   YZ=             -0.5108

 Normal termination of Gaussian 16 at Fri Sep 22 16:32:30 2023.
