 Gaussian 16, Revision A.03,
 Gaussian 16:  ES64L-G16RevA.03 25-Dec-2016

 ----------------------------------------------------------------------
 #p b3lyp/gen scrf=(cpcm,solvent=toluene) pop=hirshfeld empiricaldisper
 sion=gd3bj
 ----------------------------------------------------------------------

 ------------------------
 tmpdir/M2_conf_0_223.gjf
 ------------------------
 Symbolic Z-matrix:
 Charge =  0 Multiplicity = 1

                         Standard orientation:
 ---------------------------------------------------------------------
 Center     Atomic      Atomic             Coordinates (Angstroms)
 Number     Number       Type             X           Y           Z
 ---------------------------------------------------------------------
      1          6           0        0.789523    0.488684    0.000931
      2          6           0       -0.574714    0.651936   -0.008091
      3          6           0       -1.445134   -0.471865    0.002649
      4          8           0        1.306845   -0.654935   -0.006049
      5          1           0        1.422398    1.371612    0.044593
      6          1           0       -1.001617    1.654168    0.001031
      7          1           0       -1.025098   -1.417285    0.045145
      8          1           0       -2.468496   -0.381547   -0.015308
 ---------------------------------------------------------------------

 SCF Done:  E(RB3LYP) =  -191.872236399     A.U. after   11 cycles

 The electronic state is 1-A.
 Alpha  occ. eigenvalues --  -19.11664 -10.26255 -10.21504 -10.20172  -1.03357
 Alpha  occ. eigenvalues --   -0.80298  -0.68906  -0.55782  -0.52485  -0.45474
 Alpha  occ. eigenvalues --   -0.43585  -0.40252  -0.39558  -0.28413  -0.26802
 Alpha virt. eigenvalues --   -0.10192   0.05106   0.05746   0.08150   0.10865
 Alpha virt. eigenvalues --    0.13347   0.21195   0.24734   0.29576   0.40199
 Alpha virt. eigenvalues --    0.42333   0.44824   0.46295   0.47246   0.51472

 Mulliken charges:
               1
     1  C    0.308546
     2  C   -0.279723
     3  C    0.024347
     4  O   -0.412578
     5  H    0.062635
     6  H    0.091956
     7  H    0.101213
     8  H    0.103605
 Sum of Mulliken charges =  -0.00000

 Dipole moment (field-independent basis, Debye):
    X=             -2.7393    Y=              2.0641    Z=              0.0629  Tot=              3.4305
 Quadrupole moment (field-independent basis, Debye-Ang):
   XX=            -23.8661   YY=            -22.4223   ZZ=            -25.0433
   XY=              3.8032   XZ=              0.0282   YZ=             -0.0279

 Normal termination of Gaussian 16 at Fri Sep 22 16:35:38 2023.
