 Gaussian 16, Revision A.03,
 Gaussian 16:  ES64L-G16RevA.03 25-Dec-2016

 ----------------------------------------------------------------------
 #p b3lyp/gen scrf=(cpcm,solvent=toluene) pop=hirshfeld empiricaldisper
 sion=gd3bj
 ----------------------------------------------------------------------

 ------------------------
 tmpdir/M2_conf_0_211.gjf
 ------------------------
 Symbolic Z-matrix:
 Charge =  0 Multiplicity = 1

                         Standard orientation:
 ---------------------------------------------------------------------
 Center     Atomic      Atomic             Coordinates (Angstroms)
 Number     Number       Type             X           Y           Z
 ---------------------------------------------------------------------
      1          6           0        0.684882    0.490849   -0.000646
      2          6           0       -0.687988    0.488239   -0.009344
      3          6           0        1.423887   -0.726028   -0.002959
      4          1           0        1.206595    1.443905    0.038218
      5          6           0       -1.416428   -0.732321    0.007341
      6          1           0       -1.232714    1.431663   -0.004572
 ---------------------------------------------------------------------

 SCF Done:  E(RB3LYP) =  -153.279640047     A.U. after   13 cycles

 The electronic state is 1-A.
 Alpha  occ. eigenvalues --  -10.27767 -10.27715 -10.22461 -10.22398  -0.85939
 Alpha  occ. eigenvalues --   -0.72521  -0.62017  -0.50627  -0.49256  -0.37115
 Alpha  occ. eigenvalues --   -0.33467  -0.31242  -0.25045
 Alpha virt. eigenvalues --   -0.14732  -0.11604  -0.08804   0.04584   0.05550
 Alpha virt. eigenvalues --    0.09826   0.19305   0.26049   0.31973   0.36927
 Alpha virt. eigenvalues --    0.39239   0.42848   0.43742   0.45776   0.46408

 Mulliken charges:
               1
     1  C   -0.165427
     2  C   -0.167659
     3  C    0.008455
     4  H    0.158513
     5  C    0.006730
     6  H    0.159386
 Sum of Mulliken charges =  -0.00000

 Dipole moment (field-independent basis, Debye):
    X=             -0.0289    Y=              3.9603    Z=              0.0412  Tot=              3.9606
 Quadrupole moment (field-independent basis, Debye-Ang):
   XX=            -25.9917   YY=            -24.2358   ZZ=            -26.7169
   XY=             -0.0268   XZ=              0.1554   YZ=              0.0909

 Normal termination of Gaussian 16 at Fri Sep 22 16:34:45 2023.
