 Gaussian 16, Revision A.03,
 Gaussian 16:  ES64L-G16RevA.03 25-Dec-2016

 ----------------------------------------------------------------------
 #p b3lyp/gen scrf=(cpcm,solvent=toluene) pop=hirshfeld empiricaldisper
 sion=gd3bj
 ----------------------------------------------------------------------

 ------------------------
 tmpdir/M2_conf_0_102.gjf
 ------------------------
 Symbolic Z-matrix:
 Charge =  0 Multiplicity = 1

                         Standard orientation:
 ---------------------------------------------------------------------
 Center     Atomic      Atomic             Coordinates (Angstroms)
 Number     Number       Type             X           Y           Z
 ---------------------------------------------------------------------
      1          6           0        0.001342    0.006055   -0.004053
      2          1           0        0.084963   -0.150103    1.073485
      3          1           0       -0.717413   -0.777309   -0.400911
      4          1           0       -0.411899    1.013934   -0.202316
      5          1           0        1.036295   -0.122850   -0.445941
 ---------------------------------------------------------------------

 SCF Done:  E(RB3LYP) =  -40.5120398073     A.U. after    7 cycles

 The electronic state is 1-A.
 Alpha  occ. eigenvalues --  -10.17072  -0.68799  -0.39521  -0.38842  -0.38509
 Alpha virt. eigenvalues --    0.05352   0.11888   0.12133   0.12534   0.36920
 Alpha virt. eigenvalues --    0.37725   0.38508   0.61817   0.61977   0.63446
 Alpha virt. eigenvalues --    0.66012   0.95739   1.28847   1.29649   1.82786

 Mulliken charges:
               1
     1  C   -0.370787
     2  H    0.086591
     3  H    0.093233
     4  H    0.094605
     5  H    0.096358
 Sum of Mulliken charges =   0.00000

 Dipole moment (field-independent basis, Debye):
    X=             -0.0093    Y=             -0.0030    Z=              0.0575  Tot=              0.0583
 Quadrupole moment (field-independent basis, Debye-Ang):
   XX=             -8.3990   YY=             -8.4933   ZZ=             -8.6418
   XY=             -0.0342   XZ=              0.0058   YZ=             -0.0283

 Normal termination of Gaussian 16 at Fri Sep 22 16:32:45 2023.
