 Gaussian 16, Revision A.03,
 Gaussian 16:  ES64L-G16RevA.03 25-Dec-2016

 ----------------------------------------------------------------------
 #p b3lyp/gen scrf=(cpcm,solvent=toluene) pop=hirshfeld empiricaldisper
 sion=gd3bj
 ----------------------------------------------------------------------

 ------------------------
 tmpdir/M2_conf_0_268.gjf
 ------------------------
 Symbolic Z-matrix:
 Charge =  0 Multiplicity = 1

                         Standard orientation:
 ---------------------------------------------------------------------
 Center     Atomic      Atomic             Coordinates (Angstroms)
 Number     Number       Type             X           Y           Z
 ---------------------------------------------------------------------
      1          8           0       -1.110483   -0.080724   -0.005922
      2          6           0        0.142222    0.421556    0.005665
      3          8           0        1.137849   -0.287440   -0.002499
      4          1           0       -1.229121   -1.063779    0.028813
      5          1           0        0.156863    1.479755    0.004564
 ---------------------------------------------------------------------

 SCF Done:  E(RB3LYP) =  -189.733985026     A.U. after   10 cycles

 The electronic state is 1-A.
 Alpha  occ. eigenvalues --  -19.18176 -19.12799 -10.32440  -1.11448  -1.02830
 Alpha  occ. eigenvalues --   -0.68426  -0.54508  -0.49005  -0.45319  -0.40258
 Alpha  occ. eigenvalues --   -0.33664  -0.29779
 Alpha virt. eigenvalues --   -0.01782   0.03582   0.08287   0.21058   0.23348
 Alpha virt. eigenvalues --    0.39293   0.43094   0.49802   0.57870   0.61229
 Alpha virt. eigenvalues --    0.67804   0.76838   0.81808   0.85970   0.89930

 Mulliken charges:
               1
     1  O   -0.385115
     2  C    0.436321
     3  O   -0.412525
     4  H    0.264601
     5  H    0.096718
 Sum of Mulliken charges =   0.00000

 Dipole moment (field-independent basis, Debye):
    X=             -1.9809    Y=              0.3073    Z=              0.0871  Tot=              2.0065
 Quadrupole moment (field-independent basis, Debye-Ang):
   XX=            -21.0082   YY=            -13.3451   ZZ=            -16.9809
   XY=              3.6496   XZ=             -0.0875   YZ=             -0.0741

 Normal termination of Gaussian 16 at Fri Sep 22 16:35:30 2023.
