 Gaussian 16, Revision A.03,
 Gaussian 16:  ES64L-G16RevA.03 25-Dec-2016

 ----------------------------------------------------------------------
 #p b3lyp/gen scrf=(cpcm,solvent=toluene) pop=hirshfeld empiricaldisper
 sion=gd3bj
 ----------------------------------------------------------------------

 ------------------------
 tmpdir/M2_conf_0_219.gjf
 ------------------------
 Symbolic Z-matrix:
 Charge =  0 Multiplicity = 1

                         Standard orientation:
 ---------------------------------------------------------------------
 Center     Atomic      Atomic             Coordinates (Angstroms)
 Number     Number       Type             X           Y           Z
 ---------------------------------------------------------------------
      1          6           0        1.804769    0.117940    0.002456
      2          6           0        0.499586   -0.439642   -0.000996
      3          6           0       -0.666605    0.372624   -0.005118
      4          1           0        2.619944   -0.455799   -0.015678
      5          1           0        1.886602    1.201248    0.023553
      6          1           0        0.391039   -1.469333   -0.000664
      7          8           0       -1.771437   -0.129703    0.004004
      8          1           0       -0.552590    1.455975   -0.017296
 ---------------------------------------------------------------------

 SCF Done:  E(RB3LYP) =  -191.878000464     A.U. after   11 cycles

 The electronic state is 1-A.
 Alpha  occ. eigenvalues --  -19.12236 -10.26559 -10.21651 -10.20162  -1.05803
 Alpha  occ. eigenvalues --   -0.80480  -0.67071  -0.58873  -0.49260  -0.48598
 Alpha  occ. eigenvalues --   -0.43047  -0.41228  -0.40905  -0.29147  -0.26961
 Alpha virt. eigenvalues --   -0.08766   0.03810   0.06217   0.07284   0.10798
 Alpha virt. eigenvalues --    0.13252   0.21098   0.25354   0.29253   0.39672
 Alpha virt. eigenvalues --    0.41590   0.45444   0.46721   0.49185   0.50773

 Mulliken charges:
               1
     1  C   -0.022565
     2  C   -0.209438
     3  C    0.283441
     4  H    0.088381
     5  H    0.117308
     6  H    0.070532
     7  O   -0.378254
     8  H    0.050596
 Sum of Mulliken charges =  -0.00000

 Dipole moment (field-independent basis, Debye):
    X=              3.7937    Y=              0.8849    Z=             -0.0168  Tot=              3.8956
 Quadrupole moment (field-independent basis, Debye-Ang):
   XX=            -27.1601   YY=            -21.6613   ZZ=            -25.0924
   XY=             -1.0198   XZ=              0.0173   YZ=              0.0304

 Normal termination of Gaussian 16 at Fri Sep 22 16:34:57 2023.
