 Gaussian 16, Revision A.03,
 Gaussian 16:  ES64L-G16RevA.03 25-Dec-2016

 ----------------------------------------------------------------------
 #p b3lyp/gen scrf=(cpcm,solvent=toluene) pop=hirshfeld empiricaldisper
 sion=gd3bj
 ----------------------------------------------------------------------

 ------------------------
 tmpdir/M2_conf_0_147.gjf
 ------------------------
 Symbolic Z-matrix:
 Charge =  0 Multiplicity = 1

                         Standard orientation:
 ---------------------------------------------------------------------
 Center     Atomic      Atomic             Coordinates (Angstroms)
 Number     Number       Type             X           Y           Z
 ---------------------------------------------------------------------
      1          6           0        0.774204   -0.002769   -0.006223
      2          6           0       -0.763681   -0.000400    0.000152
      3          1           0       -1.173518   -0.022068   -1.015564
      4          1           0        1.113630    0.971435   -0.473919
      5          1           0        1.141582   -0.038826    1.043143
      6          1           0        1.144792   -0.896658   -0.555926
      7          1           0       -1.156061    0.891471    0.506539
      8          1           0       -1.133564   -0.886339    0.532157
 ---------------------------------------------------------------------

 SCF Done:  E(RB3LYP) =  -79.8201546291     A.U. after    9 cycles

 The electronic state is 1-A.
 Alpha  occ. eigenvalues --  -10.17257 -10.16492  -0.75158  -0.60959  -0.43790
 Alpha  occ. eigenvalues --   -0.43413  -0.36298  -0.34639  -0.34173
 Alpha virt. eigenvalues --    0.04818   0.09230   0.10372   0.10535   0.13502
 Alpha virt. eigenvalues --    0.13697   0.20956   0.37312   0.39069   0.40029
 Alpha virt. eigenvalues --    0.45903   0.46971   0.58054   0.62955   0.63807

 Mulliken charges:
               1
     1  C   -0.272598
     2  C   -0.260849
     3  H    0.086485
     4  H    0.092715
     5  H    0.089719
     6  H    0.094113
     7  H    0.086110
     8  H    0.084305
 Sum of Mulliken charges =  -0.00000

 Dipole moment (field-independent basis, Debye):
    X=             -0.0465    Y=             -0.0121    Z=              0.0267  Tot=              0.0549
 Quadrupole moment (field-independent basis, Debye-Ang):
   XX=            -16.1997   YY=            -14.9053   ZZ=            -15.0670
   XY=             -0.0814   XZ=              0.0819   YZ=              0.0314

 Normal termination of Gaussian 16 at Fri Sep 22 16:33:52 2023.
