 Gaussian 16, Revision A.03,
 Gaussian 16:  ES64L-G16RevA.03 25-Dec-2016

 ----------------------------------------------------------------------
 #p b3lyp/gen scrf=(cpcm,solvent=toluene) pop=hirshfeld empiricaldisper
 sion=gd3bj
 ----------------------------------------------------------------------

 ------------------------
 tmpdir/M2_conf_0_176.gjf
 ------------------------
 Symbolic Z-matrix:
 Charge =  0 Multiplicity = 1

                         Standard orientation:
 ---------------------------------------------------------------------
 Center     Atomic      Atomic             Coordinates (Angstroms)
 Number     Number       Type             X           Y           Z
 ---------------------------------------------------------------------
      1          6           0       -0.779842   -0.023408   -0.001273
      2          6           0        0.777031   -0.004550   -0.007614
      3          1           0        1.139946   -0.169617    1.015335
      4          1           0       -1.037711    1.123632    0.066079
      5          1           0       -1.156521   -0.540415    0.904778
      6          1           0       -1.166513   -0.448218   -0.947793
      7          1           0        1.061938    1.008313   -0.348461
      8          1           0        1.175728   -0.805947   -0.636617
 ---------------------------------------------------------------------

 SCF Done:  E(RB3LYP) =  -79.8103221125     A.U. after    9 cycles

 The electronic state is 1-A.
 Alpha  occ. eigenvalues --  -10.17517 -10.16607  -0.74899  -0.60474  -0.43966
 Alpha  occ. eigenvalues --   -0.43843  -0.35325  -0.34712  -0.33670
 Alpha virt. eigenvalues --    0.04389   0.08620   0.09333   0.09420   0.15563
 Alpha virt. eigenvalues --    0.16032   0.20129   0.37195   0.38546   0.39723
 Alpha virt. eigenvalues --    0.47940   0.51121   0.56984   0.60115   0.63130

 Mulliken charges:
               1
     1  C   -0.290714
     2  C   -0.259369
     3  H    0.086194
     4  H    0.088735
     5  H    0.096333
     6  H    0.097163
     7  H    0.091882
     8  H    0.089776
 Sum of Mulliken charges =  -0.00000

 Dipole moment (field-independent basis, Debye):
    X=              0.0617    Y=             -0.0339    Z=              0.0240  Tot=              0.0743
 Quadrupole moment (field-independent basis, Debye-Ang):
   XX=            -16.6739   YY=            -14.8928   ZZ=            -14.9188
   XY=              0.0805   XZ=              0.0733   YZ=             -0.0032

 Normal termination of Gaussian 16 at Fri Sep 22 16:34:23 2023.
