 Gaussian 16, Revision A.03,
 Gaussian 16:  ES64L-G16RevA.03 25-Dec-2016

 ----------------------------------------------------------------------
 #p b3lyp/gen scrf=(cpcm,solvent=toluene) pop=hirshfeld empiricaldisper
 sion=gd3bj
 ----------------------------------------------------------------------

 ------------------------
 tmpdir/M2_conf_0_209.gjf
 ------------------------
 Symbolic Z-matrix:
 Charge =  0 Multiplicity = 1

                         Standard orientation:
 ---------------------------------------------------------------------
 Center     Atomic      Atomic             Coordinates (Angstroms)
 Number     Number       Type             X           Y           Z
 ---------------------------------------------------------------------
      1          6           0        0.700903    0.517731   -0.000397
      2          6           0       -0.676360    0.512063   -0.008779
      3          1           0       -1.236276    1.442963   -0.033501
      4          1           0        1.269038    1.466032    0.061608
      5          8           0        1.307483   -0.581162   -0.005579
      6          8           0       -1.329985   -0.554807    0.008948
 ---------------------------------------------------------------------

 SCF Done:  E(RB3LYP) =  -227.768426941     A.U. after   11 cycles

 The electronic state is 1-A.
 Alpha  occ. eigenvalues --  -19.16558 -19.16345 -10.29415 -10.29042  -1.09083
 Alpha  occ. eigenvalues --   -1.05113  -0.76764  -0.57989  -0.55866  -0.48180
 Alpha  occ. eigenvalues --   -0.45794  -0.44928  -0.38068  -0.31274  -0.29383
 Alpha virt. eigenvalues --   -0.14927   0.02178   0.05339   0.09028   0.14268
 Alpha virt. eigenvalues --    0.25589   0.33120   0.37370   0.37769   0.44972
 Alpha virt. eigenvalues --    0.47436   0.56603   0.58408   0.59987   0.65646

 Mulliken charges:
               1
     1  C    0.233039
     2  C    0.244302
     3  H    0.076111
     4  H    0.091602
     5  O   -0.322302
     6  O   -0.322751
 Sum of Mulliken charges =  -0.00000

 Dipole moment (field-independent basis, Debye):
    X=              0.1323    Y=              4.3715    Z=             -0.0057  Tot=              4.3735
 Quadrupole moment (field-independent basis, Debye-Ang):
   XX=            -26.6378   YY=            -21.5032   ZZ=            -21.3368
   XY=              0.1606   XZ=              0.0930   YZ=              0.0168

 Normal termination of Gaussian 16 at Fri Sep 22 16:34:30 2023.
