 Gaussian 16, Revision A.03,
 Gaussian 16:  ES64L-G16RevA.03 25-Dec-2016

 ----------------------------------------------------------------------
 #p b3lyp/gen scrf=(cpcm,solvent=toluene) pop=hirshfeld empiricaldisper
 sion=gd3bj
 ----------------------------------------------------------------------

 -----------------------
 tmpdir/M2_conf_0_24.gjf
 -----------------------
 Symbolic Z-matrix:
 Charge =  0 Multiplicity = 1

                         Standard orientation:
 ---------------------------------------------------------------------
 Center     Atomic      Atomic             Coordinates (Angstroms)
 Number     Number       Type             X           Y           Z
 ---------------------------------------------------------------------
      1          6           0        0.694280    0.523577   -0.007023
      2          6           0       -0.713270    0.497294   -0.003402
      3          1           0       -1.260405    1.435127    0.004810
      4          8           0        1.331644   -0.556220    0.001032
      5          1           0        1.236803    1.408240    0.029321
      6          8           0       -1.314451   -0.564854    0.002520
 ---------------------------------------------------------------------

 SCF Done:  E(RB3LYP) =  -227.772259275     A.U. after   11 cycles

 The electronic state is 1-A.
 Alpha  occ. eigenvalues --  -19.16218 -19.16163 -10.28951 -10.28691  -1.09766
 Alpha  occ. eigenvalues --   -1.05646  -0.75901  -0.58844  -0.56147  -0.48180
 Alpha  occ. eigenvalues --   -0.45808  -0.45427  -0.38498  -0.31494  -0.28932
 Alpha virt. eigenvalues --   -0.14139   0.02226   0.05923   0.09469   0.14652
 Alpha virt. eigenvalues --    0.26033   0.32098   0.38014   0.38894   0.44805
 Alpha virt. eigenvalues --    0.49475   0.57255   0.57787   0.61914   0.66808

 Mulliken charges:
               1
     1  C    0.262773
     2  C    0.239991
     3  H    0.070846
     4  O   -0.331209
     5  H    0.062221
     6  O   -0.304623
 Sum of Mulliken charges =  -0.00000

 Dipole moment (field-independent basis, Debye):
    X=             -0.0650    Y=              4.3516    Z=             -0.0065  Tot=              4.3521
 Quadrupole moment (field-independent basis, Debye-Ang):
   XX=            -26.5801   YY=            -21.5333   ZZ=            -21.2173
   XY=              0.1335   XZ=              0.0194   YZ=              0.0120

 Normal termination of Gaussian 16 at Fri Sep 22 16:33:21 2023.
