 Gaussian 16, Revision A.03,
 Gaussian 16:  ES64L-G16RevA.03 25-Dec-2016

 ----------------------------------------------------------------------
 #p b3lyp/gen scrf=(cpcm,solvent=toluene) pop=hirshfeld empiricaldisper
 sion=gd3bj
 ----------------------------------------------------------------------

 ------------------------
 tmpdir/M2_conf_0_169.gjf
 ------------------------
 Symbolic Z-matrix:
 Charge =  0 Multiplicity = 1

                         Standard orientation:
 ---------------------------------------------------------------------
 Center     Atomic      Atomic             Coordinates (Angstroms)
 Number     Number       Type             X           Y           Z
 ---------------------------------------------------------------------
      1          1           0       -0.624156   -0.832698   -0.371068
      2          6           0       -0.016127   -0.000677    0.007361
      3          1           0       -0.650801    0.873221    0.175080
      4          1           0        0.552825   -0.294482    0.906809
      5          1           0        0.818896    0.258021   -0.754987
 ---------------------------------------------------------------------

 SCF Done:  E(RB3LYP) =  -40.5110145420     A.U. after    7 cycles

 The electronic state is 1-A.
 Alpha  occ. eigenvalues --  -10.16967  -0.68907  -0.40184  -0.39433  -0.37442
 Alpha virt. eigenvalues --    0.05391   0.11571   0.12487   0.12565   0.36699
 Alpha virt. eigenvalues --    0.37512   0.39151   0.60448   0.63664   0.63929
 Alpha virt. eigenvalues --    0.66065   0.95425   1.28610   1.30291   1.81295

 Mulliken charges:
               1
     1  H    0.093425
     2  C   -0.367130
     3  H    0.094298
     4  H    0.090918
     5  H    0.088489
 Sum of Mulliken charges =   0.00000

 Dipole moment (field-independent basis, Debye):
    X=              0.0125    Y=             -0.0089    Z=              0.0166  Tot=              0.0226
 Quadrupole moment (field-independent basis, Debye-Ang):
   XX=             -8.3260   YY=             -8.4972   ZZ=             -8.6974
   XY=             -0.0412   XZ=              0.0924   YZ=              0.0457

 Normal termination of Gaussian 16 at Fri Sep 22 16:34:31 2023.
