 Gaussian 16, Revision A.03,
 Gaussian 16:  ES64L-G16RevA.03 25-Dec-2016

 ----------------------------------------------------------------------
 #p b3lyp/gen scrf=(cpcm,solvent=toluene) pop=hirshfeld empiricaldisper
 sion=gd3bj
 ----------------------------------------------------------------------

 ------------------------
 tmpdir/M2_conf_0_342.gjf
 ------------------------
 Symbolic Z-matrix:
 Charge =  0 Multiplicity = 1

                         Standard orientation:
 ---------------------------------------------------------------------
 Center     Atomic      Atomic             Coordinates (Angstroms)
 Number     Number       Type             X           Y           Z
 ---------------------------------------------------------------------
      1          6           0       -0.772301    0.010054    0.001855
      2          6           0        0.767932    0.009999   -0.012485
      3          1           0        1.119577    0.118855    1.018250
      4          1           0       -1.203421    0.993450    0.261100
      5          1           0       -1.102926   -0.767589    0.702971
      6          1           0       -1.145787   -0.291524   -0.984200
      7          1           0        1.225316    0.860348   -0.577062
      8          1           0        1.133451   -1.033859   -0.357275
 ---------------------------------------------------------------------

 SCF Done:  E(RB3LYP) =  -79.8175217553     A.U. after    9 cycles

 The electronic state is 1-A.
 Alpha  occ. eigenvalues --  -10.17347 -10.16733  -0.75065  -0.61035  -0.43868
 Alpha  occ. eigenvalues --   -0.42995  -0.36460  -0.34899  -0.33731
 Alpha virt. eigenvalues --    0.04777   0.08996   0.10007   0.10588   0.13448
 Alpha virt. eigenvalues --    0.13940   0.20995   0.37427   0.38254   0.39946
 Alpha virt. eigenvalues --    0.44815   0.49460   0.57819   0.61402   0.63489

 Mulliken charges:
               1
     1  C   -0.253805
     2  C   -0.282848
     3  H    0.082771
     4  H    0.092879
     5  H    0.086448
     6  H    0.085435
     7  H    0.095793
     8  H    0.093327
 Sum of Mulliken charges =  -0.00000

 Dipole moment (field-independent basis, Debye):
    X=             -0.0359    Y=             -0.0098    Z=              0.0715  Tot=              0.0806
 Quadrupole moment (field-independent basis, Debye-Ang):
   XX=            -16.0896   YY=            -14.7596   ZZ=            -15.3239
   XY=              0.0705   XZ=              0.0546   YZ=             -0.0375

 Normal termination of Gaussian 16 at Fri Sep 22 16:35:55 2023.
