 Gaussian 16, Revision A.03,
 Gaussian 16:  ES64L-G16RevA.03 25-Dec-2016

 ----------------------------------------------------------------------
 #p b3lyp/gen scrf=(cpcm,solvent=toluene) pop=hirshfeld empiricaldisper
 sion=gd3bj
 ----------------------------------------------------------------------

 ----------------------
 tmpdir/M2_conf_0_2.gjf
 ----------------------
 Symbolic Z-matrix:
 Charge =  0 Multiplicity = 1

                         Standard orientation:
 ---------------------------------------------------------------------
 Center     Atomic      Atomic             Coordinates (Angstroms)
 Number     Number       Type             X           Y           Z
 ---------------------------------------------------------------------
      1          6           0       -0.647222    0.444787    0.000429
      2          6           0        0.603272   -0.364242   -0.030278
      3          6           0       -1.888724   -0.248971   -0.005070
      4          1           0       -0.641091    1.461569    0.068880
      5          1           0        0.529800   -1.436083    0.124137
      6          6           0        1.951223    0.164178    0.002750
 ---------------------------------------------------------------------

 SCF Done:  E(RB3LYP) =  -153.283162830     A.U. after   13 cycles

 The electronic state is 1-A.
 Alpha  occ. eigenvalues --  -10.28614 -10.28335 -10.23861 -10.23116  -0.83594
 Alpha  occ. eigenvalues --   -0.73828  -0.57433  -0.56599  -0.46614  -0.35592
 Alpha  occ. eigenvalues --   -0.34075  -0.31533  -0.26176
 Alpha virt. eigenvalues --   -0.14174  -0.12706  -0.07616   0.01219   0.07198
 Alpha virt. eigenvalues --    0.08829   0.18587   0.23166   0.24324   0.39646
 Alpha virt. eigenvalues --    0.39857   0.41634   0.43976   0.45778   0.45967

 Mulliken charges:
               1
     1  C   -0.113197
     2  C   -0.193791
     3  C    0.011547
     4  H    0.116977
     5  H    0.159248
     6  C    0.019216
 Sum of Mulliken charges =  -0.00000

 Dipole moment (field-independent basis, Debye):
    X=             -0.1855    Y=              0.2915    Z=              0.2265  Tot=              0.4132
 Quadrupole moment (field-independent basis, Debye-Ang):
   XX=            -34.2120   YY=            -19.9845   ZZ=            -26.9993
   XY=             -4.2692   XZ=              0.0244   YZ=             -0.1536

 Normal termination of Gaussian 16 at Fri Sep 22 16:32:49 2023.
