 Gaussian 16, Revision A.03,
 Gaussian 16:  ES64L-G16RevA.03 25-Dec-2016

 ----------------------------------------------------------------------
 #p b3lyp/gen scrf=(cpcm,solvent=toluene) pop=hirshfeld empiricaldisper
 sion=gd3bj
 ----------------------------------------------------------------------

 ------------------------
 tmpdir/M2_conf_0_283.gjf
 ------------------------
 Symbolic Z-matrix:
 Charge =  0 Multiplicity = 1

                         Standard orientation:
 ---------------------------------------------------------------------
 Center     Atomic      Atomic             Coordinates (Angstroms)
 Number     Number       Type             X           Y           Z
 ---------------------------------------------------------------------
      1          6           0        0.754436   -0.012997    0.001684
      2          6           0       -0.757728   -0.002618    0.000150
      3          1           0       -1.139312   -1.028680   -0.076499
      4          1           0        1.108275    1.116664    0.042964
      5          1           0        1.166058   -0.466449   -0.909660
      6          1           0        1.169066   -0.553575    0.858293
      7          1           0       -1.142165    0.448654    0.921633
      8          1           0       -1.142168    0.577078   -0.847737
 ---------------------------------------------------------------------

 SCF Done:  E(RB3LYP) =  -79.8178372258     A.U. after    9 cycles

 The electronic state is 1-A.
 Alpha  occ. eigenvalues --  -10.17220 -10.16455  -0.75584  -0.60917  -0.43842
 Alpha  occ. eigenvalues --   -0.43524  -0.37135  -0.34466  -0.33584
 Alpha virt. eigenvalues --    0.04769   0.09162   0.10009   0.10546   0.13342
 Alpha virt. eigenvalues --    0.13920   0.21869   0.36876   0.39028   0.39904
 Alpha virt. eigenvalues --    0.46179   0.47071   0.59334   0.60670   0.64219

 Mulliken charges:
               1
     1  C   -0.278904
     2  C   -0.246629
     3  H    0.085132
     4  H    0.087511
     5  H    0.088763
     6  H    0.089808
     7  H    0.087189
     8  H    0.087130
 Sum of Mulliken charges =  -0.00000

 Dipole moment (field-independent basis, Debye):
    X=             -0.0528    Y=             -0.0647    Z=             -0.0070  Tot=              0.0838
 Quadrupole moment (field-independent basis, Debye-Ang):
   XX=            -16.1202   YY=            -15.0067   ZZ=            -15.0498
   XY=             -0.2241   XZ=             -0.0083   YZ=             -0.0176

 Normal termination of Gaussian 16 at Fri Sep 22 16:35:25 2023.
