 Gaussian 16, Revision A.03,
 Gaussian 16:  ES64L-G16RevA.03 25-Dec-2016

 ----------------------------------------------------------------------
 #p b3lyp/gen scrf=(cpcm,solvent=toluene) pop=hirshfeld empiricaldisper
 sion=gd3bj
 ----------------------------------------------------------------------

 ------------------------
 tmpdir/M2_conf_0_202.gjf
 ------------------------
 Symbolic Z-matrix:
 Charge =  0 Multiplicity = 1

                         Standard orientation:
 ---------------------------------------------------------------------
 Center     Atomic      Atomic             Coordinates (Angstroms)
 Number     Number       Type             X           Y           Z
 ---------------------------------------------------------------------
      1          6           0       -0.712772   -0.013271   -0.007685
      2          6           0        0.709859   -0.007863    0.005238
      3          1           0       -1.273120    0.939453    0.057269
      4          1           0       -1.187435   -0.889757   -0.029482
      5          1           0        1.227452   -0.856539    0.038076
      6          1           0        1.250579    0.933650   -0.051181
 ---------------------------------------------------------------------

 SCF Done:  E(RB3LYP) =  -78.5599968550     A.U. after    9 cycles

 The electronic state is 1-A.
 Alpha  occ. eigenvalues --  -10.18558 -10.18320  -0.75455  -0.60254  -0.47950
 Alpha  occ. eigenvalues --   -0.41220  -0.38267  -0.26738
 Alpha virt. eigenvalues --   -0.02189   0.06559   0.09857   0.10095   0.15966
 Alpha virt. eigenvalues --    0.26423   0.36486   0.41496   0.44052   0.50783
 Alpha virt. eigenvalues --    0.52338   0.53377   0.64701   0.64957   0.70349

 Mulliken charges:
               1
     1  C   -0.184382
     2  C   -0.180803
     3  H    0.113003
     4  H    0.074161
     5  H    0.072994
     6  H    0.105028
 Sum of Mulliken charges =   0.00000

 Dipole moment (field-independent basis, Debye):
    X=              0.0151    Y=             -0.0357    Z=              0.0163  Tot=              0.0421
 Quadrupole moment (field-independent basis, Debye-Ang):
   XX=            -12.2783   YY=            -12.3166   ZZ=            -15.7463
   XY=             -0.0537   XZ=             -0.0587   YZ=              0.0014

 Normal termination of Gaussian 16 at Fri Sep 22 16:34:11 2023.
