 Gaussian 16, Revision A.03,
 Gaussian 16:  ES64L-G16RevA.03 25-Dec-2016

 ----------------------------------------------------------------------
 #p b3lyp/gen scrf=(cpcm,solvent=toluene) pop=hirshfeld empiricaldisper
 sion=gd3bj
 ----------------------------------------------------------------------

 ------------------------
 tmpdir/M2_conf_0_100.gjf
 ------------------------
 Symbolic Z-matrix:
 Charge =  0 Multiplicity = 1

                         Standard orientation:
 ---------------------------------------------------------------------
 Center     Atomic      Atomic             Coordinates (Angstroms)
 Number     Number       Type             X           Y           Z
 ---------------------------------------------------------------------
      1          6           0       -0.764032    0.002660    0.001386
      2          6           0        0.763664    0.002008   -0.002236
      3          1           0        1.131978    0.034542    1.035250
      4          1           0       -1.138799    0.928160    0.473291
      5          1           0       -1.154073   -0.869641    0.542073
      6          1           0       -1.135437   -0.075055   -1.032589
      7          1           0        1.140864    0.874690   -0.564635
      8          1           0        1.157674   -0.920704   -0.448292
 ---------------------------------------------------------------------

 SCF Done:  E(RB3LYP) =  -79.8216379191     A.U. after    9 cycles

 The electronic state is 1-A.
 Alpha  occ. eigenvalues --  -10.16603 -10.16584  -0.75420  -0.61151  -0.43850
 Alpha  occ. eigenvalues --   -0.43626  -0.36518  -0.34603  -0.34270
 Alpha virt. eigenvalues --    0.04968   0.09327   0.10543   0.10637   0.13629
 Alpha virt. eigenvalues --    0.13772   0.21435   0.37151   0.39500   0.39666
 Alpha virt. eigenvalues --    0.45915   0.46924   0.58873   0.64194   0.64231

 Mulliken charges:
               1
     1  C   -0.260550
     2  C   -0.261129
     3  H    0.085468
     4  H    0.089760
     5  H    0.085473
     6  H    0.085725
     7  H    0.089568
     8  H    0.085683
 Sum of Mulliken charges =  -0.00000

 Dipole moment (field-independent basis, Debye):
    X=              0.0001    Y=             -0.0319    Z=              0.0034  Tot=              0.0321
 Quadrupole moment (field-independent basis, Debye-Ang):
   XX=            -16.0959   YY=            -14.9142   ZZ=            -15.0255
   XY=             -0.0017   XZ=             -0.0234   YZ=             -0.0002

 Normal termination of Gaussian 16 at Fri Sep 22 16:32:39 2023.
