 Gaussian 16, Revision A.03,
 Gaussian 16:  ES64L-G16RevA.03 25-Dec-2016

 ----------------------------------------------------------------------
 #p b3lyp/gen scrf=(cpcm,solvent=toluene) pop=hirshfeld empiricaldisper
 sion=gd3bj
 ----------------------------------------------------------------------

 -----------------------
 tmpdir/M2_conf_0_31.gjf
 -----------------------
 Symbolic Z-matrix:
 Charge =  0 Multiplicity = 1

                         Standard orientation:
 ---------------------------------------------------------------------
 Center     Atomic      Atomic             Coordinates (Angstroms)
 Number     Number       Type             X           Y           Z
 ---------------------------------------------------------------------
      1          6           0       -0.638015    0.368795   -0.019055
      2          8           0        0.361222   -0.519759   -0.029135
      3          6           0        1.659251    0.109941    0.015618
      4          8           0       -1.796023   -0.110282    0.023037
      5          1           0       -0.514199    1.374584   -0.044542
      6          1           0        1.721376    0.693112    0.946000
      7          1           0        1.762416    0.792020   -0.835024
      8          1           0        2.381396   -0.691809    0.002978
 ---------------------------------------------------------------------

 SCF Done:  E(RB3LYP) =  -229.015985284     A.U. after   11 cycles

 The electronic state is 1-A.
 Alpha  occ. eigenvalues --  -19.18363 -19.11472 -10.31276 -10.24670  -1.12130
 Alpha  occ. eigenvalues --   -1.01393  -0.73709  -0.64526  -0.55326  -0.49612
 Alpha  occ. eigenvalues --   -0.48579  -0.42337  -0.40439  -0.38464  -0.30877
 Alpha  occ. eigenvalues --   -0.28488
 Alpha virt. eigenvalues --   -0.02941   0.04574   0.08596   0.09391   0.10805
 Alpha virt. eigenvalues --    0.11342   0.22563   0.25524   0.38081   0.40521
 Alpha virt. eigenvalues --    0.42619   0.43860   0.49530   0.55255   0.58628

 Mulliken charges:
               1
     1  C    0.445611
     2  O   -0.432636
     3  C    0.025898
     4  O   -0.431121
     5  H    0.059447
     6  H    0.105299
     7  H    0.107567
     8  H    0.119936
 Sum of Mulliken charges =   0.00000

 Dipole moment (field-independent basis, Debye):
    X=              4.6186    Y=              2.6586    Z=             -0.0374  Tot=              5.3293
 Quadrupole moment (field-independent basis, Debye-Ang):
   XX=            -26.9176   YY=            -22.9344   ZZ=            -23.1454
   XY=             -1.0530   XZ=              0.2052   YZ=             -0.0895

 Normal termination of Gaussian 16 at Fri Sep 22 16:33:08 2023.
