 Gaussian 16, Revision A.03,
 Gaussian 16:  ES64L-G16RevA.03 25-Dec-2016

 ----------------------------------------------------------------------
 #p b3lyp/gen scrf=(cpcm,solvent=toluene) pop=hirshfeld empiricaldisper
 sion=gd3bj
 ----------------------------------------------------------------------

 ------------------------
 tmpdir/M2_conf_0_297.gjf
 ------------------------
 Symbolic Z-matrix:
 Charge =  0 Multiplicity = 1

                         Standard orientation:
 ---------------------------------------------------------------------
 Center     Atomic      Atomic             Coordinates (Angstroms)
 Number     Number       Type             X           Y           Z
 ---------------------------------------------------------------------
      1          6           0        0.696223   -0.003739   -0.010845
      2          6           0       -0.684896   -0.010603    0.002355
      3          1           0       -1.229549    0.926823   -0.028236
      4          1           0        1.183304    0.944611    0.052463
      5          1           0        1.197940   -0.903251   -0.003822
      6          1           0       -1.219657   -0.882134    0.030532
 ---------------------------------------------------------------------

 SCF Done:  E(RB3LYP) =  -78.5725918512     A.U. after    9 cycles

 The electronic state is 1-A.
 Alpha  occ. eigenvalues --  -10.17931 -10.17870  -0.76148  -0.59451  -0.48332
 Alpha  occ. eigenvalues --   -0.41427  -0.37716  -0.27308
 Alpha virt. eigenvalues --   -0.01282   0.06606   0.09684   0.10221   0.16178
 Alpha virt. eigenvalues --    0.27241   0.35647   0.42972   0.43659   0.51246
 Alpha virt. eigenvalues --    0.51738   0.55530   0.63870   0.65661   0.70329

 Mulliken charges:
               1
     1  C   -0.170437
     2  C   -0.194949
     3  H    0.100190
     4  H    0.098784
     5  H    0.085581
     6  H    0.080830
 Sum of Mulliken charges =  -0.00000

 Dipole moment (field-independent basis, Debye):
    X=             -0.0279    Y=             -0.0162    Z=              0.0561  Tot=              0.0647
 Quadrupole moment (field-independent basis, Debye-Ang):
   XX=            -12.4917   YY=            -12.2306   ZZ=            -15.6407
   XY=              0.0014   XZ=              0.0596   YZ=              0.0030

 Normal termination of Gaussian 16 at Fri Sep 22 16:35:23 2023.
