 Gaussian 16, Revision A.03,
 Gaussian 16:  ES64L-G16RevA.03 25-Dec-2016

 ----------------------------------------------------------------------
 #p b3lyp/gen scrf=(cpcm,solvent=toluene) pop=hirshfeld empiricaldisper
 sion=gd3bj
 ----------------------------------------------------------------------

 ------------------------
 tmpdir/M2_conf_0_220.gjf
 ------------------------
 Symbolic Z-matrix:
 Charge =  0 Multiplicity = 1

                         Standard orientation:
 ---------------------------------------------------------------------
 Center     Atomic      Atomic             Coordinates (Angstroms)
 Number     Number       Type             X           Y           Z
 ---------------------------------------------------------------------
      1          6           0        0.803767   -0.760096    0.021736
      2          6           0       -0.002049    0.421627    0.006405
      3          6           0       -1.416721    0.286786   -0.011598
      4          8           0        2.049425   -0.629934   -0.021953
      5          1           0        0.342233   -1.677569    0.053099
      6          8           0        0.557381    1.540908    0.009035
      7          8           0       -1.934548   -0.810851   -0.001759
      8          1           0       -2.030273    1.186679   -0.034933
 ---------------------------------------------------------------------

 SCF Done:  E(RB3LYP) =  -341.069659644     A.U. after   12 cycles

 The electronic state is 1-A.
 Alpha  occ. eigenvalues --  -19.18358 -19.18205 -19.16838 -10.30686 -10.30518
 Alpha  occ. eigenvalues --  -10.29417  -1.11911  -1.09825  -1.06250  -0.79746
 Alpha  occ. eigenvalues --   -0.69822  -0.58473  -0.55937  -0.51619  -0.49193
 Alpha  occ. eigenvalues --   -0.47736  -0.46813  -0.42882  -0.39076  -0.34895
 Alpha  occ. eigenvalues --   -0.32403  -0.28809
 Alpha virt. eigenvalues --   -0.17144  -0.08337   0.05496   0.06978   0.08571
 Alpha virt. eigenvalues --    0.13606   0.22844   0.23858   0.28141   0.33677
 Alpha virt. eigenvalues --    0.36031   0.40372   0.42727   0.47930   0.48240

 Mulliken charges:
               1
     1  C    0.332368
     2  C    0.104308
     3  C    0.326999
     4  O   -0.326913
     5  H    0.065069
     6  O   -0.290432
     7  O   -0.309328
     8  H    0.097930
 Sum of Mulliken charges =  -0.00000

 Dipole moment (field-independent basis, Debye):
    X=             -2.6906    Y=             -0.2992    Z=              0.0594  Tot=              2.7079
 Quadrupole moment (field-independent basis, Debye-Ang):
   XX=            -42.0423   YY=            -35.9917   ZZ=            -30.8847
   XY=             -4.5510   XZ=              0.1571   YZ=             -0.1104

 Normal termination of Gaussian 16 at Fri Sep 22 16:35:15 2023.
