 Gaussian 16, Revision A.03,
 Gaussian 16:  ES64L-G16RevA.03 25-Dec-2016

 ----------------------------------------------------------------------
 #p b3lyp/gen scrf=(cpcm,solvent=toluene) pop=hirshfeld empiricaldisper
 sion=gd3bj
 ----------------------------------------------------------------------

 -----------------------
 tmpdir/M2_conf_0_89.gjf
 -----------------------
 Symbolic Z-matrix:
 Charge =  0 Multiplicity = 1

                         Standard orientation:
 ---------------------------------------------------------------------
 Center     Atomic      Atomic             Coordinates (Angstroms)
 Number     Number       Type             X           Y           Z
 ---------------------------------------------------------------------
      1          6           0       -0.757887    0.001755   -0.003639
      2          6           0        0.767703    0.005796    0.000293
      3          1           0        1.133542   -0.881511    0.533425
      4          1           0       -1.213591    0.879536   -0.521063
      5          1           0       -1.114869   -0.006879    1.037425
      6          1           0       -1.156333   -0.906574   -0.473407
      7          1           0        1.140780    0.933011    0.473456
      8          1           0        1.151572   -0.062889   -1.029761
 ---------------------------------------------------------------------

 SCF Done:  E(RB3LYP) =  -79.8213445164     A.U. after    9 cycles

 The electronic state is 1-A.
 Alpha  occ. eigenvalues --  -10.16700 -10.16651  -0.75403  -0.61210  -0.43776
 Alpha  occ. eigenvalues --   -0.43464  -0.36808  -0.34561  -0.34113
 Alpha virt. eigenvalues --    0.04978   0.09195   0.10434   0.10630   0.13636
 Alpha virt. eigenvalues --    0.13825   0.21578   0.37203   0.39071   0.39486
 Alpha virt. eigenvalues --    0.45844   0.47652   0.58920   0.63891   0.64140

 Mulliken charges:
               1
     1  C   -0.268994
     2  C   -0.254015
     3  H    0.087359
     4  H    0.090123
     5  H    0.083762
     6  H    0.084374
     7  H    0.091344
     8  H    0.086046
 Sum of Mulliken charges =  -0.00000

 Dipole moment (field-independent basis, Debye):
    X=             -0.0020    Y=             -0.0472    Z=              0.0116  Tot=              0.0486
 Quadrupole moment (field-independent basis, Debye-Ang):
   XX=            -15.9936   YY=            -14.9270   ZZ=            -15.0963
   XY=             -0.0388   XZ=              0.0398   YZ=              0.0074

 Normal termination of Gaussian 16 at Fri Sep 22 16:33:39 2023.
