 Gaussian 16, Revision A.03,
 Gaussian 16:  ES64L-G16RevA.03 25-Dec-2016

 ----------------------------------------------------------------------
 #p b3lyp/gen scrf=(cpcm,solvent=toluene) pop=hirshfeld empiricaldisper
 sion=gd3bj
 ----------------------------------------------------------------------

 ------------------------
 tmpdir/M2_conf_0_173.gjf
 ------------------------
 Symbolic Z-matrix:
 Charge =  0 Multiplicity = 1

                         Standard orientation:
 ---------------------------------------------------------------------
 Center     Atomic      Atomic             Coordinates (Angstroms)
 Number     Number       Type             X           Y           Z
 ---------------------------------------------------------------------
      1          6           0       -0.006751   -0.002917   -0.007499
      2          1           0       -0.450070   -0.447358    0.893481
      3          1           0        0.629994    0.876758    0.294320
      4          1           0        0.685389   -0.724110   -0.480858
      5          1           0       -0.824809    0.312211   -0.661948
 ---------------------------------------------------------------------

 SCF Done:  E(RB3LYP) =  -40.5129267822     A.U. after    7 cycles

 The electronic state is 1-A.
 Alpha  occ. eigenvalues --  -10.16671  -0.69088  -0.40170  -0.38962  -0.38241
 Alpha virt. eigenvalues --    0.05534   0.12074   0.12483   0.12558   0.36904
 Alpha virt. eigenvalues --    0.37216   0.39091   0.62168   0.63475   0.63967
 Alpha virt. eigenvalues --    0.66614   0.95681   1.28418   1.29999   1.82724

 Mulliken charges:
               1
     1  C   -0.361164
     2  H    0.087720
     3  H    0.089014
     4  H    0.091357
     5  H    0.093073
 Sum of Mulliken charges =   0.00000

 Dipole moment (field-independent basis, Debye):
    X=              0.0031    Y=             -0.0072    Z=              0.0236  Tot=              0.0249
 Quadrupole moment (field-independent basis, Debye-Ang):
   XX=             -8.2897   YY=             -8.5822   ZZ=             -8.5749
   XY=             -0.0424   XZ=              0.0062   YZ=             -0.0280

 Normal termination of Gaussian 16 at Fri Sep 22 16:33:54 2023.
