 Gaussian 16, Revision A.03,
 Gaussian 16:  ES64L-G16RevA.03 25-Dec-2016

 ----------------------------------------------------------------------
 #p b3lyp/gen scrf=(cpcm,solvent=toluene) pop=hirshfeld empiricaldisper
 sion=gd3bj
 ----------------------------------------------------------------------

 ------------------------
 tmpdir/M2_conf_0_337.gjf
 ------------------------
 Symbolic Z-matrix:
 Charge =  0 Multiplicity = 1

                         Standard orientation:
 ---------------------------------------------------------------------
 Center     Atomic      Atomic             Coordinates (Angstroms)
 Number     Number       Type             X           Y           Z
 ---------------------------------------------------------------------
      1          6           0        0.006737    0.006047   -0.014086
      2          1           0        0.170960   -0.115720    1.061558
      3          1           0        0.990803   -0.216951   -0.496703
      4          1           0       -0.369841    1.040414   -0.191540
      5          1           0       -0.832343   -0.744023   -0.288801
 ---------------------------------------------------------------------

 SCF Done:  E(RB3LYP) =  -40.5100089206     A.U. after    8 cycles

 The electronic state is 1-A.
 Alpha  occ. eigenvalues --  -10.17268  -0.68703  -0.39951  -0.38671  -0.37969
 Alpha virt. eigenvalues --    0.05233   0.11591   0.12186   0.12403   0.36296
 Alpha virt. eigenvalues --    0.37654   0.39356   0.60511   0.62500   0.63016
 Alpha virt. eigenvalues --    0.65854   0.95718   1.28684   1.30070   1.80000

 Mulliken charges:
               1
     1  C   -0.374950
     2  H    0.083332
     3  H    0.099458
     4  H    0.096544
     5  H    0.095616
 Sum of Mulliken charges =  -0.00000

 Dipole moment (field-independent basis, Debye):
    X=              0.0101    Y=              0.0060    Z=              0.1006  Tot=              0.1013
 Quadrupole moment (field-independent basis, Debye-Ang):
   XX=             -8.3024   YY=             -8.5118   ZZ=             -8.7719
   XY=             -0.0665   XZ=             -0.0274   YZ=             -0.0237

 Normal termination of Gaussian 16 at Fri Sep 22 16:36:18 2023.
