 Gaussian 16, Revision A.03,
 Gaussian 16:  ES64L-G16RevA.03 25-Dec-2016

 ----------------------------------------------------------------------
 #p b3lyp/gen scrf=(cpcm,solvent=toluene) pop=hirshfeld empiricaldisper
 sion=gd3bj
 ----------------------------------------------------------------------

 ----------------------
 tmpdir/M2_conf_0_9.gjf
 ----------------------
 Symbolic Z-matrix:
 Charge =  0 Multiplicity = 1

                         Standard orientation:
 ---------------------------------------------------------------------
 Center     Atomic      Atomic             Coordinates (Angstroms)
 Number     Number       Type             X           Y           Z
 ---------------------------------------------------------------------
      1          6           0       -1.273121   -0.186113    0.008788
      2          6           0        0.002328    0.442959   -0.003607
      3          8           0        1.121678   -0.288582   -0.005659
      4          1           0       -2.115377    0.387505   -0.002987
      5          1           0       -1.303192   -1.223785   -0.015757
      6          1           0        0.060048    1.454971   -0.012782
      7          1           0        2.009850    0.148889    0.045715
 ---------------------------------------------------------------------

 SCF Done:  E(RB3LYP) =  -153.773315483     A.U. after   10 cycles

 The electronic state is 1-A.
 Alpha  occ. eigenvalues --  -19.15905 -10.24040 -10.15479  -1.06894  -0.74613
 Alpha  occ. eigenvalues --   -0.61439  -0.56290  -0.44314  -0.41750  -0.40121
 Alpha  occ. eigenvalues --   -0.35455  -0.22473
 Alpha virt. eigenvalues --    0.00757   0.02957   0.08999   0.10629   0.13869
 Alpha virt. eigenvalues --    0.22663   0.26818   0.41906   0.43786   0.46263
 Alpha virt. eigenvalues --    0.50710   0.52243   0.54603   0.56918   0.66684

 Mulliken charges:
               1
     1  C   -0.193101
     2  C    0.105223
     3  O   -0.390358
     4  H    0.079505
     5  H    0.076741
     6  H    0.055177
     7  H    0.266813
 Sum of Mulliken charges =  -0.00000

 Dipole moment (field-independent basis, Debye):
    X=              1.8001    Y=              1.7908    Z=              0.0484  Tot=              2.5396
 Quadrupole moment (field-independent basis, Debye-Ang):
   XX=            -13.7712   YY=            -17.7196   ZZ=            -21.1242
   XY=              1.8060   XZ=              0.2813   YZ=              0.0269

 Normal termination of Gaussian 16 at Fri Sep 22 16:32:31 2023.
