 Gaussian 16, Revision A.03,
 Gaussian 16:  ES64L-G16RevA.03 25-Dec-2016

 ----------------------------------------------------------------------
 #p b3lyp/gen scrf=(cpcm,solvent=toluene) pop=hirshfeld empiricaldisper
 sion=gd3bj
 ----------------------------------------------------------------------

 ------------------------
 tmpdir/M2_conf_0_249.gjf
 ------------------------
 Symbolic Z-matrix:
 Charge =  0 Multiplicity = 1

                         Standard orientation:
 ---------------------------------------------------------------------
 Center     Atomic      Atomic             Coordinates (Angstroms)
 Number     Number       Type             X           Y           Z
 ---------------------------------------------------------------------
      1          6           0       -1.841256    0.136554   -0.029270
      2          6           0       -0.540533   -0.368247    0.022416
      3          6           0        0.726167    0.360603    0.063467
      4          1           0       -2.523040   -0.704830    0.065701
      5          1           0       -2.124230    1.142920   -0.247846
      6          1           0       -0.610880   -1.392181    0.122344
      7          1           0        0.588574    1.445238    0.244402
      8          8           0        1.825413   -0.158076   -0.065534
 ---------------------------------------------------------------------

 SCF Done:  E(RB3LYP) =  -191.876404042     A.U. after   11 cycles

 The electronic state is 1-A.
 Alpha  occ. eigenvalues --  -19.13116 -10.27681 -10.21824 -10.20028  -1.05667
 Alpha  occ. eigenvalues --   -0.80524  -0.66685  -0.58246  -0.49840  -0.47362
 Alpha  occ. eigenvalues --   -0.42631  -0.41123  -0.40040  -0.29483  -0.27331
 Alpha virt. eigenvalues --   -0.08799   0.03208   0.05487   0.07169   0.10292
 Alpha virt. eigenvalues --    0.13975   0.20142   0.24313   0.29534   0.39906
 Alpha virt. eigenvalues --    0.41485   0.42831   0.46341   0.50863   0.51083

 Mulliken charges:
               1
     1  C   -0.072711
     2  C   -0.228297
     3  C    0.298243
     4  H    0.123183
     5  H    0.109800
     6  H    0.076411
     7  H    0.061643
     8  O   -0.368272
 Sum of Mulliken charges =  -0.00000

 Dipole moment (field-independent basis, Debye):
    X=             -3.7381    Y=              0.8919    Z=              0.2506  Tot=              3.8512
 Quadrupole moment (field-independent basis, Debye-Ang):
   XX=            -27.5631   YY=            -21.7667   ZZ=            -25.1466
   XY=              1.2794   XZ=              0.5439   YZ=             -0.4249

 Normal termination of Gaussian 16 at Fri Sep 22 16:36:00 2023.
