 Gaussian 16, Revision A.03,
 Gaussian 16:  ES64L-G16RevA.03 25-Dec-2016

 ----------------------------------------------------------------------
 #p b3lyp/gen scrf=(cpcm,solvent=toluene) pop=hirshfeld empiricaldisper
 sion=gd3bj
 ----------------------------------------------------------------------

 ------------------------
 tmpdir/M2_conf_0_106.gjf
 ------------------------
 Symbolic Z-matrix:
 Charge =  0 Multiplicity = 1

                         Standard orientation:
 ---------------------------------------------------------------------
 Center     Atomic      Atomic             Coordinates (Angstroms)
 Number     Number       Type             X           Y           Z
 ---------------------------------------------------------------------
      1          7           0       -1.365253   -0.499277   -0.122996
      2          6           0       -0.595682    0.675581    0.211710
      3          6           0        0.862168    0.450909   -0.192727
      4          1           0       -1.726062   -0.679030   -0.983449
      5          1           0       -1.491182   -1.226471    0.588883
      6          1           0       -1.011466    1.506283   -0.360424
      7          1           0       -0.697847    0.936140    1.309284
      8          8           0        1.436540   -0.625160    0.111361
      9          1           0        1.392092    1.200350   -0.698112
 ---------------------------------------------------------------------

 SCF Done:  E(RB3LYP) =  -209.129867766     A.U. after   11 cycles

 The electronic state is 1-A.
 Alpha  occ. eigenvalues --  -19.12371 -14.28933 -10.26461 -10.21995  -1.03147
 Alpha  occ. eigenvalues --   -0.88462  -0.71536  -0.59551  -0.51684  -0.48516
 Alpha  occ. eigenvalues --   -0.46153  -0.43397  -0.39449  -0.36111  -0.27104
 Alpha  occ. eigenvalues --   -0.22457
 Alpha virt. eigenvalues --   -0.05047   0.05238   0.07318   0.08058   0.10564
 Alpha virt. eigenvalues --    0.15050   0.19378   0.23514   0.24246   0.41925
 Alpha virt. eigenvalues --    0.44221   0.46247   0.47583   0.53635   0.56256

 Mulliken charges:
               1
     1  N   -0.463353
     2  C    0.006951
     3  C    0.250730
     4  H    0.143400
     5  H    0.178186
     6  H    0.094679
     7  H    0.135239
     8  O   -0.396035
     9  H    0.050203
 Sum of Mulliken charges =  -0.00000

 Dipole moment (field-independent basis, Debye):
    X=             -2.0602    Y=              2.1813    Z=             -0.5122  Tot=              3.0439
 Quadrupole moment (field-independent basis, Debye-Ang):
   XX=            -28.0267   YY=            -23.3339   ZZ=            -21.9386
   XY=              4.4068   XZ=             -0.0694   YZ=             -0.3079

 Normal termination of Gaussian 16 at Fri Sep 22 16:33:22 2023.
