 Gaussian 16, Revision A.03,
 Gaussian 16:  ES64L-G16RevA.03 25-Dec-2016

 ----------------------------------------------------------------------
 #p b3lyp/gen scrf=(cpcm,solvent=toluene) pop=hirshfeld empiricaldisper
 sion=gd3bj
 ----------------------------------------------------------------------

 ------------------------
 tmpdir/M2_conf_0_316.gjf
 ------------------------
 Symbolic Z-matrix:
 Charge =  0 Multiplicity = 1

                         Standard orientation:
 ---------------------------------------------------------------------
 Center     Atomic      Atomic             Coordinates (Angstroms)
 Number     Number       Type             X           Y           Z
 ---------------------------------------------------------------------
      1          6           0       -0.798921    0.510335   -0.000379
      2          6           0        0.617474    0.632969   -0.004474
      3          6           0        1.416831   -0.484812    0.000961
      4          1           0       -1.408858    1.331285    0.018024
      5          8           0       -1.319882   -0.638568   -0.000310
      6          1           0        1.058354    1.627305   -0.002677
      7          1           0        0.997504   -1.421419   -0.003552
      8          1           0        2.499752   -0.379575    0.014036
 ---------------------------------------------------------------------

 SCF Done:  E(RB3LYP) =  -191.877814003     A.U. after   11 cycles

 The electronic state is 1-A.
 Alpha  occ. eigenvalues --  -19.11862 -10.26332 -10.20918 -10.19872  -1.03180
 Alpha  occ. eigenvalues --   -0.80228  -0.68197  -0.56610  -0.52423  -0.45577
 Alpha  occ. eigenvalues --   -0.43009  -0.39980  -0.39466  -0.28823  -0.26914
 Alpha virt. eigenvalues --   -0.09438   0.04682   0.05699   0.08329   0.10942
 Alpha virt. eigenvalues --    0.13318   0.21266   0.25388   0.28542   0.40332
 Alpha virt. eigenvalues --    0.41856   0.45412   0.46285   0.47956   0.51706

 Mulliken charges:
               1
     1  C    0.343415
     2  C   -0.276955
     3  C    0.000573
     4  H    0.046101
     5  O   -0.416054
     6  H    0.089628
     7  H    0.091808
     8  H    0.121485
 Sum of Mulliken charges =  -0.00000

 Dipole moment (field-independent basis, Debye):
    X=              2.4686    Y=              2.1938    Z=              0.0177  Tot=              3.3026
 Quadrupole moment (field-independent basis, Debye-Ang):
   XX=            -24.0243   YY=            -22.2725   ZZ=            -25.0200
   XY=             -3.7890   XZ=              0.0188   YZ=              0.0069

 Normal termination of Gaussian 16 at Fri Sep 22 16:35:48 2023.
