 Gaussian 16, Revision A.03,
 Gaussian 16:  ES64L-G16RevA.03 25-Dec-2016

 ----------------------------------------------------------------------
 #p b3lyp/gen scrf=(cpcm,solvent=toluene) pop=hirshfeld empiricaldisper
 sion=gd3bj
 ----------------------------------------------------------------------

 ------------------------
 tmpdir/M2_conf_0_334.gjf
 ------------------------
 Symbolic Z-matrix:
 Charge =  0 Multiplicity = 1

                         Standard orientation:
 ---------------------------------------------------------------------
 Center     Atomic      Atomic             Coordinates (Angstroms)
 Number     Number       Type             X           Y           Z
 ---------------------------------------------------------------------
      1          6           0       -0.810475    0.472808    0.000078
      2          6           0        0.597837    0.634817   -0.000285
      3          6           0        1.425404   -0.464508   -0.000846
      4          8           0       -1.298361   -0.636114   -0.001202
      5          1           0       -1.453602    1.350488    0.005471
      6          1           0        1.022545    1.636929    0.001533
      7          1           0        1.035303   -1.414529    0.013481
      8          1           0        2.506050   -0.342679   -0.004556
 ---------------------------------------------------------------------

 SCF Done:  E(RB3LYP) =  -191.883741572     A.U. after   11 cycles

 The electronic state is 1-A.
 Alpha  occ. eigenvalues --  -19.11991 -10.26392 -10.20793 -10.19617  -1.05908
 Alpha  occ. eigenvalues --   -0.80125  -0.67569  -0.55627  -0.52441  -0.46026
 Alpha  occ. eigenvalues --   -0.42978  -0.41340  -0.39690  -0.28956  -0.26929
 Alpha virt. eigenvalues --   -0.08850   0.05474   0.05639   0.08120   0.10784
 Alpha virt. eigenvalues --    0.13311   0.22069   0.25413   0.28884   0.40125
 Alpha virt. eigenvalues --    0.41701   0.45233   0.46140   0.48017   0.51703

 Mulliken charges:
               1
     1  C    0.301281
     2  C   -0.273510
     3  C   -0.010046
     4  O   -0.372635
     5  H    0.055146
     6  H    0.088539
     7  H    0.090783
     8  H    0.120442
 Sum of Mulliken charges =  -0.00000

 Dipole moment (field-independent basis, Debye):
    X=              2.3239    Y=              1.9815    Z=              0.0136  Tot=              3.0541
 Quadrupole moment (field-independent basis, Debye-Ang):
   XX=            -23.8749   YY=            -22.5465   ZZ=            -24.9911
   XY=             -3.4972   XZ=             -0.0028   YZ=             -0.0119

 Normal termination of Gaussian 16 at Fri Sep 22 16:36:01 2023.
