 Gaussian 16, Revision A.03,
 Gaussian 16:  ES64L-G16RevA.03 25-Dec-2016

 ----------------------------------------------------------------------
 #p b3lyp/gen scrf=(cpcm,solvent=toluene) pop=hirshfeld empiricaldisper
 sion=gd3bj
 ----------------------------------------------------------------------

 ------------------------
 tmpdir/M2_conf_0_341.gjf
 ------------------------
 Symbolic Z-matrix:
 Charge =  0 Multiplicity = 1

                         Standard orientation:
 ---------------------------------------------------------------------
 Center     Atomic      Atomic             Coordinates (Angstroms)
 Number     Number       Type             X           Y           Z
 ---------------------------------------------------------------------
      1          6           0       -1.223762   -0.295419    0.020770
      2          6           0        0.013851    0.619770   -0.036393
      3          7           0        1.218999   -0.228511   -0.015522
      4          1           0       -2.176471    0.258596   -0.053747
      5          1           0       -1.171505   -0.875312    0.951680
      6          1           0       -1.174351   -1.026311   -0.795385
      7          1           0       -0.002712    1.368858   -0.866830
      8          1           0        0.046508    1.204726    0.888102
      9          1           0        1.723748   -0.409222    0.790931
     10          1           0        1.481257   -0.867868   -0.712357
 ---------------------------------------------------------------------

 SCF Done:  E(RB3LYP) =  -135.146909953     A.U. after   10 cycles

 The electronic state is 1-A.
 Alpha  occ. eigenvalues --  -14.27378 -10.20348 -10.16025  -0.86837  -0.72686
 Alpha  occ. eigenvalues --   -0.61132  -0.49523  -0.45811  -0.41711  -0.38706
 Alpha  occ. eigenvalues --   -0.36870  -0.33863  -0.21493
 Alpha virt. eigenvalues --    0.05040   0.08076   0.08794   0.09451   0.12440
 Alpha virt. eigenvalues --    0.13972   0.15760   0.20707   0.21720   0.38365
 Alpha virt. eigenvalues --    0.40746   0.45620   0.46496   0.48103   0.57112

 Mulliken charges:
               1
     1  C   -0.203446
     2  C   -0.002186
     3  N   -0.484663
     4  H    0.074926
     5  H    0.074336
     6  H    0.076268
     7  H    0.092811
     8  H    0.086016
     9  H    0.141483
    10  H    0.144455
 Sum of Mulliken charges =  -0.00000

 Dipole moment (field-independent basis, Debye):
    X=              0.0890    Y=             -0.3571    Z=              0.2526  Tot=              0.4463
 Quadrupole moment (field-independent basis, Debye-Ang):
   XX=            -21.6099   YY=            -20.6470   ZZ=            -19.6570
   XY=             -2.2204   XZ=              0.8337   YZ=              0.6315

 Normal termination of Gaussian 16 at Fri Sep 22 16:37:09 2023.
