 Gaussian 16, Revision A.03,
 Gaussian 16:  ES64L-G16RevA.03 25-Dec-2016

 ----------------------------------------------------------------------
 #p b3lyp/gen scrf=(cpcm,solvent=toluene) pop=hirshfeld empiricaldisper
 sion=gd3bj
 ----------------------------------------------------------------------

 ------------------------
 tmpdir/M2_conf_0_208.gjf
 ------------------------
 Symbolic Z-matrix:
 Charge =  0 Multiplicity = 1

                         Standard orientation:
 ---------------------------------------------------------------------
 Center     Atomic      Atomic             Coordinates (Angstroms)
 Number     Number       Type             X           Y           Z
 ---------------------------------------------------------------------
      1          6           0        0.806923    0.492427    0.001349
      2          6           0       -0.560898    0.653526   -0.006847
      3          6           0       -1.442325   -0.458820    0.007119
      4          1           0        1.485619    1.364664    0.068177
      5          8           0        1.276056   -0.671758   -0.009623
      6          1           0       -1.004898    1.645073   -0.026653
      7          1           0       -1.047102   -1.415016    0.046297
      8          1           0       -2.464259   -0.343453   -0.020568
 ---------------------------------------------------------------------

 SCF Done:  E(RB3LYP) =  -191.871784721     A.U. after   11 cycles

 The electronic state is 1-A.
 Alpha  occ. eigenvalues --  -19.11664 -10.26538 -10.21330 -10.20099  -1.03481
 Alpha  occ. eigenvalues --   -0.80066  -0.68644  -0.55697  -0.52444  -0.45428
 Alpha  occ. eigenvalues --   -0.43572  -0.40305  -0.39341  -0.28309  -0.26807
 Alpha virt. eigenvalues --   -0.10112   0.04984   0.05783   0.08128   0.10593
 Alpha virt. eigenvalues --    0.13422   0.20971   0.24817   0.29642   0.40195
 Alpha virt. eigenvalues --    0.41231   0.45252   0.46311   0.47362   0.51555

 Mulliken charges:
               1
     1  C    0.301004
     2  C   -0.275624
     3  C    0.022643
     4  H    0.071672
     5  O   -0.410895
     6  H    0.088396
     7  H    0.100072
     8  H    0.102732
 Sum of Mulliken charges =  -0.00000

 Dipole moment (field-independent basis, Debye):
    X=             -2.5730    Y=              2.1074    Z=              0.0515  Tot=              3.3263
 Quadrupole moment (field-independent basis, Debye-Ang):
   XX=            -23.5862   YY=            -22.5608   ZZ=            -25.0695
   XY=              3.8632   XZ=              0.0984   YZ=             -0.0645

 Normal termination of Gaussian 16 at Fri Sep 22 16:34:21 2023.
