 Gaussian 16, Revision A.03,
 Gaussian 16:  ES64L-G16RevA.03 25-Dec-2016

 ----------------------------------------------------------------------
 #p b3lyp/gen scrf=(cpcm,solvent=toluene) pop=hirshfeld empiricaldisper
 sion=gd3bj
 ----------------------------------------------------------------------

 ------------------------
 tmpdir/M2_conf_0_384.gjf
 ------------------------
 Symbolic Z-matrix:
 Charge =  0 Multiplicity = 1

                         Standard orientation:
 ---------------------------------------------------------------------
 Center     Atomic      Atomic             Coordinates (Angstroms)
 Number     Number       Type             X           Y           Z
 ---------------------------------------------------------------------
      1          6           0       -0.687573   -0.006363   -0.002137
      2          6           0        0.689025   -0.007259   -0.000494
      3          1           0        1.235712    0.933648   -0.003756
      4          1           0       -1.211650   -0.890163   -0.000935
      5          1           0       -1.240212    0.929344    0.011434
      6          1           0        1.207439   -0.891097    0.009039
 ---------------------------------------------------------------------

 SCF Done:  E(RB3LYP) =  -78.5743854325     A.U. after    9 cycles

 The electronic state is 1-A.
 Alpha  occ. eigenvalues --  -10.18032 -10.17969  -0.76118  -0.59464  -0.47942
 Alpha  occ. eigenvalues --   -0.41833  -0.37382  -0.27412
 Alpha virt. eigenvalues --   -0.01184   0.06612   0.09611   0.10003   0.16171
 Alpha virt. eigenvalues --    0.27704   0.35778   0.41884   0.43572   0.51265
 Alpha virt. eigenvalues --    0.51837   0.55099   0.63636   0.65556   0.70646

 Mulliken charges:
               1
     1  C   -0.187018
     2  C   -0.183389
     3  H    0.102941
     4  H    0.083032
     5  H    0.102211
     6  H    0.082224
 Sum of Mulliken charges =   0.00000

 Dipole moment (field-independent basis, Debye):
    X=             -0.0036    Y=             -0.0270    Z=              0.0170  Tot=              0.0321
 Quadrupole moment (field-independent basis, Debye-Ang):
   XX=            -12.3546   YY=            -12.3162   ZZ=            -15.6540
   XY=             -0.0036   XZ=             -0.0072   YZ=             -0.0003

 Normal termination of Gaussian 16 at Fri Sep 22 16:36:49 2023.
