 Gaussian 16, Revision A.03,
 Gaussian 16:  ES64L-G16RevA.03 25-Dec-2016

 ----------------------------------------------------------------------
 #p b3lyp/gen scrf=(cpcm,solvent=toluene) pop=hirshfeld empiricaldisper
 sion=gd3bj
 ----------------------------------------------------------------------

 ------------------------
 tmpdir/M2_conf_0_254.gjf
 ------------------------
 Symbolic Z-matrix:
 Charge =  0 Multiplicity = 1

                         Standard orientation:
 ---------------------------------------------------------------------
 Center     Atomic      Atomic             Coordinates (Angstroms)
 Number     Number       Type             X           Y           Z
 ---------------------------------------------------------------------
      1          6           0       -0.707380    0.572669   -0.006826
      2          6           0        0.716934    0.550156   -0.011534
      3          1           0        1.363636    1.419492   -0.012047
      4          8           0       -1.093982   -0.595941   -0.004639
      5          1           0       -1.283162    1.456918    0.074185
      6          8           0        1.076757   -0.605729    0.010641
 ---------------------------------------------------------------------

 SCF Done:  E(RB3LYP) =  -227.745349537     A.U. after   11 cycles

 The electronic state is 1-A.
 Alpha  occ. eigenvalues --  -19.14572 -19.14324 -10.27953 -10.27791  -1.11356
 Alpha  occ. eigenvalues --   -1.04193  -0.73421  -0.58306  -0.56120  -0.47663
 Alpha  occ. eigenvalues --   -0.46081  -0.44710  -0.37210  -0.29339  -0.27790
 Alpha virt. eigenvalues --   -0.12569   0.02253   0.06365   0.08748   0.15289
 Alpha virt. eigenvalues --    0.24043   0.32052   0.35743   0.38368   0.44487
 Alpha virt. eigenvalues --    0.54569   0.55705   0.59922   0.65357   0.67019

 Mulliken charges:
               1
     1  C    0.243291
     2  C    0.215932
     3  H    0.076316
     4  O   -0.312064
     5  H    0.074236
     6  O   -0.297712
 Sum of Mulliken charges =  -0.00000

 Dipole moment (field-independent basis, Debye):
    X=              0.0635    Y=              4.7072    Z=             -0.0042  Tot=              4.7077
 Quadrupole moment (field-independent basis, Debye-Ang):
   XX=            -24.9652   YY=            -21.0995   ZZ=            -21.1672
   XY=             -0.0392   XZ=             -0.0815   YZ=              0.0416

 Normal termination of Gaussian 16 at Fri Sep 22 16:35:11 2023.
