 Gaussian 16, Revision A.03,
 Gaussian 16:  ES64L-G16RevA.03 25-Dec-2016

 ----------------------------------------------------------------------
 #p b3lyp/gen scrf=(cpcm,solvent=toluene) pop=hirshfeld empiricaldisper
 sion=gd3bj
 ----------------------------------------------------------------------

 -----------------------
 tmpdir/M2_conf_0_19.gjf
 -----------------------
 Symbolic Z-matrix:
 Charge =  0 Multiplicity = 1

                         Standard orientation:
 ---------------------------------------------------------------------
 Center     Atomic      Atomic             Coordinates (Angstroms)
 Number     Number       Type             X           Y           Z
 ---------------------------------------------------------------------
      1          6           0       -0.697151   -0.008824   -0.000593
      2          6           0        0.693849   -0.008889   -0.000592
      3          1           0        1.231263    0.937803    0.001635
      4          1           0       -1.197903   -0.890208    0.001793
      5          1           0       -1.235407    0.933018    0.001783
      6          1           0        1.221858   -0.874333    0.001902
 ---------------------------------------------------------------------

 SCF Done:  E(RB3LYP) =  -78.5701322144     A.U. after    9 cycles

 The electronic state is 1-A.
 Alpha  occ. eigenvalues --  -10.18088 -10.18030  -0.75946  -0.59756  -0.48101
 Alpha  occ. eigenvalues --   -0.41578  -0.37751  -0.27206
 Alpha virt. eigenvalues --   -0.01474   0.06611   0.09789   0.10090   0.16134
 Alpha virt. eigenvalues --    0.27282   0.35938   0.42070   0.43741   0.51133
 Alpha virt. eigenvalues --    0.52101   0.54778   0.64117   0.65530   0.70456

 Mulliken charges:
               1
     1  C   -0.178174
     2  C   -0.186007
     3  H    0.102790
     4  H    0.078913
     5  H    0.103806
     6  H    0.078672
 Sum of Mulliken charges =  -0.00000

 Dipole moment (field-independent basis, Debye):
    X=              0.0058    Y=             -0.0257    Z=              0.0077  Tot=              0.0275
 Quadrupole moment (field-independent basis, Debye-Ang):
   XX=            -12.3609   YY=            -12.2888   ZZ=            -15.6723
   XY=             -0.0366   XZ=             -0.0000   YZ=             -0.0001

 Normal termination of Gaussian 16 at Fri Sep 22 16:32:40 2023.
