 Gaussian 16, Revision A.03,
 Gaussian 16:  ES64L-G16RevA.03 25-Dec-2016

 ----------------------------------------------------------------------
 #p b3lyp/gen scrf=(cpcm,solvent=toluene) pop=hirshfeld empiricaldisper
 sion=gd3bj
 ----------------------------------------------------------------------

 ------------------------
 tmpdir/M2_conf_0_194.gjf
 ------------------------
 Symbolic Z-matrix:
 Charge =  0 Multiplicity = 1

                         Standard orientation:
 ---------------------------------------------------------------------
 Center     Atomic      Atomic             Coordinates (Angstroms)
 Number     Number       Type             X           Y           Z
 ---------------------------------------------------------------------
      1          6           0        0.002047    0.004588   -0.002653
      2          1           0       -0.136382   -0.456101    0.982364
      3          1           0        1.082488    0.194404   -0.166122
      4          1           0       -0.577879    0.930212   -0.047124
      5          1           0       -0.380510   -0.696041   -0.753204
 ---------------------------------------------------------------------

 SCF Done:  E(RB3LYP) =  -40.5139220378     A.U. after    7 cycles

 The electronic state is 1-A.
 Alpha  occ. eigenvalues --  -10.16358  -0.69304  -0.39524  -0.39257  -0.38958
 Alpha virt. eigenvalues --    0.05662   0.12409   0.12588   0.12622   0.37272
 Alpha virt. eigenvalues --    0.37582   0.38133   0.63308   0.63761   0.64001
 Alpha virt. eigenvalues --    0.67575   0.96115   1.28832   1.29045   1.84974

 Mulliken charges:
               1
     1  C   -0.353455
     2  H    0.085420
     3  H    0.092138
     4  H    0.089056
     5  H    0.086841
 Sum of Mulliken charges =  -0.00000

 Dipole moment (field-independent basis, Debye):
    X=             -0.0233    Y=             -0.0199    Z=              0.0132  Tot=              0.0333
 Quadrupole moment (field-independent basis, Debye-Ang):
   XX=             -8.3747   YY=             -8.4631   ZZ=             -8.5333
   XY=             -0.0117   XZ=              0.0042   YZ=              0.0028

 Normal termination of Gaussian 16 at Fri Sep 22 16:34:37 2023.
