 Gaussian 16, Revision A.03,
 Gaussian 16:  ES64L-G16RevA.03 25-Dec-2016

 ----------------------------------------------------------------------
 #p b3lyp/gen scrf=(cpcm,solvent=toluene) pop=hirshfeld empiricaldisper
 sion=gd3bj
 ----------------------------------------------------------------------

 -----------------------
 tmpdir/M2_conf_0_53.gjf
 -----------------------
 Symbolic Z-matrix:
 Charge =  0 Multiplicity = 1

                         Standard orientation:
 ---------------------------------------------------------------------
 Center     Atomic      Atomic             Coordinates (Angstroms)
 Number     Number       Type             X           Y           Z
 ---------------------------------------------------------------------
      1          7           0       -0.733346    0.017555    0.047746
      2          6           0        0.729515    0.004248   -0.005780
      3          1           0       -1.305327    0.749969   -0.115333
      4          1           0       -1.166350   -0.903789   -0.091502
      5          1           0        1.022607   -0.610348   -0.890240
      6          1           0        1.062317    1.032793   -0.146718
      7          1           0        1.143086   -0.416998    0.944248
 ---------------------------------------------------------------------

 SCF Done:  E(RB3LYP) =  -95.8323310155     A.U. after    9 cycles

 The electronic state is 1-A.
 Alpha  occ. eigenvalues --  -14.27263 -10.19681  -0.86166  -0.65963  -0.49755
 Alpha  occ. eigenvalues --   -0.42721  -0.41459  -0.37365  -0.21042
 Alpha virt. eigenvalues --    0.05085   0.08418   0.09793   0.12196   0.15449
 Alpha virt. eigenvalues --    0.20218   0.40367   0.44380   0.45462   0.56269
 Alpha virt. eigenvalues --    0.61148   0.62748   0.64863   0.69928   0.71692

 Mulliken charges:
               1
     1  N   -0.514275
     2  C   -0.032339
     3  H    0.133285
     4  H    0.162528
     5  H    0.077848
     6  H    0.086641
     7  H    0.086311
 Sum of Mulliken charges =  -0.00000

 Dipole moment (field-independent basis, Debye):
    X=             -0.0887    Y=             -0.0377    Z=             -0.6448  Tot=              0.6520
 Quadrupole moment (field-independent basis, Debye-Ang):
   XX=            -13.1051   YY=            -12.3643   ZZ=            -15.5671
   XY=              0.1203   XZ=              0.8254   YZ=             -0.0631

 Normal termination of Gaussian 16 at Fri Sep 22 16:33:27 2023.
