 Gaussian 16, Revision A.03,
 Gaussian 16:  ES64L-G16RevA.03 25-Dec-2016

 ----------------------------------------------------------------------
 #p b3lyp/gen scrf=(cpcm,solvent=toluene) pop=hirshfeld empiricaldisper
 sion=gd3bj
 ----------------------------------------------------------------------

 ------------------------
 tmpdir/M2_conf_0_101.gjf
 ------------------------
 Symbolic Z-matrix:
 Charge =  0 Multiplicity = 1

                         Standard orientation:
 ---------------------------------------------------------------------
 Center     Atomic      Atomic             Coordinates (Angstroms)
 Number     Number       Type             X           Y           Z
 ---------------------------------------------------------------------
      1          1           0        0.710924   -0.035343   -0.834278
      2          6           0       -0.004321    0.001157   -0.001994
      3          1           0        0.507337   -0.426677    0.874510
      4          1           0       -0.284578    1.050626    0.198537
      5          1           0       -0.907756   -0.595546   -0.226806
 ---------------------------------------------------------------------

 SCF Done:  E(RB3LYP) =  -40.5138619275     A.U. after    7 cycles

 The electronic state is 1-A.
 Alpha  occ. eigenvalues --  -10.16515  -0.69186  -0.39561  -0.39264  -0.38730
 Alpha virt. eigenvalues --    0.05603   0.12397   0.12475   0.12519   0.37045
 Alpha virt. eigenvalues --    0.37820   0.38172   0.63291   0.63469   0.63656
 Alpha virt. eigenvalues --    0.66996   0.95962   1.28587   1.29456   1.85049

 Mulliken charges:
               1
     1  H    0.087901
     2  C   -0.357620
     3  H    0.086948
     4  H    0.090847
     5  H    0.091924
 Sum of Mulliken charges =   0.00000

 Dipole moment (field-independent basis, Debye):
    X=              0.0252    Y=             -0.0059    Z=              0.0060  Tot=              0.0266
 Quadrupole moment (field-independent basis, Debye-Ang):
   XX=             -8.3936   YY=             -8.4373   ZZ=             -8.5760
   XY=              0.0014   XZ=             -0.0064   YZ=              0.0028

 Normal termination of Gaussian 16 at Fri Sep 22 16:32:42 2023.
