 Gaussian 16, Revision A.03,
 Gaussian 16:  ES64L-G16RevA.03 25-Dec-2016

 ----------------------------------------------------------------------
 #p b3lyp/gen scrf=(cpcm,solvent=toluene) pop=hirshfeld empiricaldisper
 sion=gd3bj
 ----------------------------------------------------------------------

 -----------------------
 tmpdir/M2_conf_0_99.gjf
 -----------------------
 Symbolic Z-matrix:
 Charge =  0 Multiplicity = 1

                         Standard orientation:
 ---------------------------------------------------------------------
 Center     Atomic      Atomic             Coordinates (Angstroms)
 Number     Number       Type             X           Y           Z
 ---------------------------------------------------------------------
      1          6           0       -0.764081    0.002597    0.001325
      2          6           0        0.763614    0.002050   -0.002183
      3          1           0        1.159141   -0.917802   -0.452780
      4          1           0       -1.138937    0.925604    0.478032
      5          1           0       -1.154115   -0.872547    0.537418
      6          1           0       -1.135404   -0.069916   -1.033061
      7          1           0        1.140808    0.877582   -0.560133
      8          1           0        1.131309    0.029193    1.035673
 ---------------------------------------------------------------------

 SCF Done:  E(RB3LYP) =  -79.8216357898     A.U. after    9 cycles

 The electronic state is 1-A.
 Alpha  occ. eigenvalues --  -10.16604 -10.16585  -0.75419  -0.61153  -0.43846
 Alpha  occ. eigenvalues --   -0.43628  -0.36522  -0.34600  -0.34270
 Alpha virt. eigenvalues --    0.04968   0.09325   0.10543   0.10637   0.13629
 Alpha virt. eigenvalues --    0.13773   0.21437   0.37152   0.39506   0.39652
 Alpha virt. eigenvalues --    0.45914   0.46937   0.58873   0.64194   0.64231

 Mulliken charges:
               1
     1  C   -0.260489
     2  C   -0.261182
     3  H    0.085672
     4  H    0.089801
     5  H    0.085474
     6  H    0.085724
     7  H    0.089548
     8  H    0.085452
 Sum of Mulliken charges =   0.00000

 Dipole moment (field-independent basis, Debye):
    X=              0.0002    Y=             -0.0319    Z=              0.0032  Tot=              0.0321
 Quadrupole moment (field-independent basis, Debye-Ang):
   XX=            -16.0939   YY=            -14.9156   ZZ=            -15.0252
   XY=             -0.0035   XZ=             -0.0253   YZ=              0.0000

 Normal termination of Gaussian 16 at Fri Sep 22 16:32:31 2023.
