 Gaussian 16, Revision A.03,
 Gaussian 16:  ES64L-G16RevA.03 25-Dec-2016

 ----------------------------------------------------------------------
 #p b3lyp/gen scrf=(cpcm,solvent=toluene) pop=hirshfeld empiricaldisper
 sion=gd3bj
 ----------------------------------------------------------------------

 ------------------------
 tmpdir/M2_conf_0_235.gjf
 ------------------------
 Symbolic Z-matrix:
 Charge =  0 Multiplicity = 1

                         Standard orientation:
 ---------------------------------------------------------------------
 Center     Atomic      Atomic             Coordinates (Angstroms)
 Number     Number       Type             X           Y           Z
 ---------------------------------------------------------------------
      1          6           0       -0.774521    0.493034   -0.034724
      2          7           0        0.350543   -0.338602   -0.118949
      3          6           0        1.753460    0.077075    0.058277
      4          8           0       -1.748700   -0.218798    0.066794
      5          1           0       -0.762800    1.572696   -0.087241
      6          1           0        0.069181   -1.263732   -0.066290
      7          1           0        2.113910    0.800241   -0.715125
      8          1           0        1.891814    0.420091    1.110142
      9          1           0        2.350063   -0.829350   -0.084514
 ---------------------------------------------------------------------

 SCF Done:  E(RB3LYP) =  -209.155544921     A.U. after   11 cycles

 The electronic state is 1-A.
 Alpha  occ. eigenvalues --  -19.09045 -14.32836 -10.28032 -10.21816  -1.05689
 Alpha  occ. eigenvalues --   -0.90533  -0.70129  -0.62722  -0.50877  -0.48697
 Alpha  occ. eigenvalues --   -0.45382  -0.42207  -0.39624  -0.39364  -0.26526
 Alpha  occ. eigenvalues --   -0.24794
 Alpha virt. eigenvalues --   -0.00153   0.04809   0.06865   0.09129   0.11484
 Alpha virt. eigenvalues --    0.12461   0.16731   0.21092   0.27809   0.37170
 Alpha virt. eigenvalues --    0.40163   0.41827   0.46278   0.51658   0.56763

 Mulliken charges:
               1
     1  C    0.367755
     2  N   -0.456798
     3  C   -0.013675
     4  O   -0.447629
     5  H    0.083025
     6  H    0.160717
     7  H    0.109609
     8  H    0.102948
     9  H    0.094050
 Sum of Mulliken charges =  -0.00000

 Dipole moment (field-independent basis, Debye):
    X=              3.8382    Y=              1.1427    Z=              0.0191  Tot=              4.0047
 Quadrupole moment (field-independent basis, Debye-Ang):
   XX=            -29.4745   YY=            -21.0193   ZZ=            -24.9234
   XY=             -2.2905   XZ=              0.4008   YZ=             -0.1559

 Normal termination of Gaussian 16 at Fri Sep 22 16:34:48 2023.
