 Gaussian 16, Revision A.03,
 Gaussian 16:  ES64L-G16RevA.03 25-Dec-2016

 ----------------------------------------------------------------------
 #p b3lyp/gen scrf=(cpcm,solvent=toluene) pop=hirshfeld empiricaldisper
 sion=gd3bj
 ----------------------------------------------------------------------

 ------------------------
 tmpdir/M2_conf_0_113.gjf
 ------------------------
 Symbolic Z-matrix:
 Charge =  0 Multiplicity = 1

                         Standard orientation:
 ---------------------------------------------------------------------
 Center     Atomic      Atomic             Coordinates (Angstroms)
 Number     Number       Type             X           Y           Z
 ---------------------------------------------------------------------
      1          6           0       -1.172913   -0.147825    0.003592
      2          6           0        0.233013    0.454348   -0.007801
      3          8           0        1.234057   -0.305923    0.006054
      4          1           0       -1.228411   -0.981632   -0.764167
      5          1           0       -1.898535    0.611144   -0.292599
      6          1           0       -1.468986   -0.515302    1.033302
      7          1           0        0.362875    1.494033    0.000281
 ---------------------------------------------------------------------

 SCF Done:  E(RB3LYP) =  -153.805379146     A.U. after   10 cycles

 The electronic state is 1-A.
 Alpha  occ. eigenvalues --  -19.12805 -10.27698 -10.19438  -1.03592  -0.74871
 Alpha  occ. eigenvalues --   -0.60117  -0.48127  -0.44201  -0.43490  -0.39561
 Alpha  occ. eigenvalues --   -0.36150  -0.26796
 Alpha virt. eigenvalues --   -0.05280   0.05383   0.07591   0.11217   0.12009
 Alpha virt. eigenvalues --    0.19770   0.21644   0.39842   0.41624   0.45007
 Alpha virt. eigenvalues --    0.46359   0.55754   0.58069   0.59129   0.60156

 Mulliken charges:
               1
     1  C   -0.249915
     2  C    0.203876
     3  O   -0.395985
     4  H    0.132925
     5  H    0.096889
     6  H    0.144593
     7  H    0.067617
 Sum of Mulliken charges =   0.00000

 Dipole moment (field-independent basis, Debye):
    X=             -2.8468    Y=              1.5714    Z=              0.0290  Tot=              3.2518
 Quadrupole moment (field-independent basis, Debye-Ang):
   XX=            -21.6317   YY=            -17.7877   ZZ=            -17.8431
   XY=              1.3888   XZ=             -0.1655   YZ=              0.0370

 Normal termination of Gaussian 16 at Fri Sep 22 16:34:11 2023.
