 Gaussian 16, Revision A.03,
 Gaussian 16:  ES64L-G16RevA.03 25-Dec-2016

 ----------------------------------------------------------------------
 #p b3lyp/gen scrf=(cpcm,solvent=toluene) pop=hirshfeld empiricaldisper
 sion=gd3bj
 ----------------------------------------------------------------------

 ------------------------
 tmpdir/M2_conf_0_319.gjf
 ------------------------
 Symbolic Z-matrix:
 Charge =  0 Multiplicity = 1

                         Standard orientation:
 ---------------------------------------------------------------------
 Center     Atomic      Atomic             Coordinates (Angstroms)
 Number     Number       Type             X           Y           Z
 ---------------------------------------------------------------------
      1          6           0        0.697061    0.514330    0.001398
      2          6           0       -0.722947    0.470705   -0.006533
      3          6           0        1.422899   -0.718801   -0.003792
      4          1           0        1.226392    1.395161    0.028220
      5          6           0       -1.388879   -0.733350    0.006015
      6          1           0       -1.275199    1.407533   -0.010745
 ---------------------------------------------------------------------

 SCF Done:  E(RB3LYP) =  -153.285889626     A.U. after   13 cycles

 The electronic state is 1-A.
 Alpha  occ. eigenvalues --  -10.27941 -10.27038 -10.22578 -10.22338  -0.85702
 Alpha  occ. eigenvalues --   -0.73475  -0.61577  -0.51209  -0.49931  -0.36896
 Alpha  occ. eigenvalues --   -0.33359  -0.31383  -0.25594
 Alpha virt. eigenvalues --   -0.14508  -0.11615  -0.08202   0.04227   0.06068
 Alpha virt. eigenvalues --    0.09868   0.19472   0.26424   0.30424   0.36466
 Alpha virt. eigenvalues --    0.39248   0.43345   0.44391   0.45606   0.46178

 Mulliken charges:
               1
     1  C   -0.132642
     2  C   -0.161931
     3  C    0.005335
     4  H    0.125117
     5  C   -0.001327
     6  H    0.165447
 Sum of Mulliken charges =  -0.00000

 Dipole moment (field-independent basis, Debye):
    X=             -0.0143    Y=              4.0073    Z=              0.0215  Tot=              4.0074
 Quadrupole moment (field-independent basis, Debye-Ang):
   XX=            -25.5455   YY=            -24.4728   ZZ=            -26.6361
   XY=             -0.2002   XZ=              0.1423   YZ=              0.0487

 Normal termination of Gaussian 16 at Fri Sep 22 16:36:12 2023.
