 Gaussian 16, Revision A.03,
 Gaussian 16:  ES64L-G16RevA.03 25-Dec-2016

 ----------------------------------------------------------------------
 #p b3lyp/gen scrf=(cpcm,solvent=toluene) pop=hirshfeld empiricaldisper
 sion=gd3bj
 ----------------------------------------------------------------------

 ------------------------
 tmpdir/M2_conf_0_115.gjf
 ------------------------
 Symbolic Z-matrix:
 Charge =  0 Multiplicity = 1

                         Standard orientation:
 ---------------------------------------------------------------------
 Center     Atomic      Atomic             Coordinates (Angstroms)
 Number     Number       Type             X           Y           Z
 ---------------------------------------------------------------------
      1          8           0        1.184017   -0.270944    0.008421
      2          6           0        0.140265    0.429588   -0.003350
      3          7           0       -1.059015   -0.152294   -0.008052
      4          1           0        0.218420    1.533455   -0.038656
      5          1           0       -1.145980   -1.197164   -0.041076
      6          1           0       -1.973058    0.319786    0.088825
 ---------------------------------------------------------------------

 SCF Done:  E(RB3LYP) =  -169.873066390     A.U. after   11 cycles

 The electronic state is 1-A.
 Alpha  occ. eigenvalues --  -19.08945 -14.35590 -10.28727  -1.02814  -0.91113
 Alpha  occ. eigenvalues --   -0.63615  -0.55590  -0.48802  -0.41402  -0.40546
 Alpha  occ. eigenvalues --   -0.27839  -0.26210
 Alpha virt. eigenvalues --    0.00763   0.03803   0.06113   0.11035   0.20985
 Alpha virt. eigenvalues --    0.29694   0.41332   0.43796   0.47652   0.51318
 Alpha virt. eigenvalues --    0.59085   0.64919   0.66309   0.69930   0.74176

 Mulliken charges:
               1
     1  O   -0.484841
     2  C    0.347410
     3  N   -0.361339
     4  H    0.081759
     5  H    0.210698
     6  H    0.206313
 Sum of Mulliken charges =   0.00000

 Dipole moment (field-independent basis, Debye):
    X=             -4.6724    Y=              1.1318    Z=              0.0706  Tot=              4.8080
 Quadrupole moment (field-independent basis, Debye-Ang):
   XX=            -17.7282   YY=            -14.9961   ZZ=            -18.8579
   XY=              1.7629   XZ=             -0.3249   YZ=              0.1437

 Normal termination of Gaussian 16 at Fri Sep 22 16:34:34 2023.
