 Gaussian 16, Revision A.03,
 Gaussian 16:  ES64L-G16RevA.03 25-Dec-2016

 ----------------------------------------------------------------------
 #p b3lyp/gen scrf=(cpcm,solvent=toluene) pop=hirshfeld empiricaldisper
 sion=gd3bj
 ----------------------------------------------------------------------

 -----------------------
 tmpdir/M2_conf_0_95.gjf
 -----------------------
 Symbolic Z-matrix:
 Charge =  0 Multiplicity = 1

                         Standard orientation:
 ---------------------------------------------------------------------
 Center     Atomic      Atomic             Coordinates (Angstroms)
 Number     Number       Type             X           Y           Z
 ---------------------------------------------------------------------
      1          6           0       -0.004310    0.001163   -0.002007
      2          1           0        0.507453   -0.426692    0.874544
      3          1           0       -0.284233    1.050721    0.198517
      4          1           0       -0.907963   -0.595343   -0.226464
      5          1           0        0.710601   -0.035666   -0.834558
 ---------------------------------------------------------------------

 SCF Done:  E(RB3LYP) =  -40.5138628930     A.U. after    7 cycles

 The electronic state is 1-A.
 Alpha  occ. eigenvalues --  -10.16516  -0.69185  -0.39559  -0.39263  -0.38731
 Alpha virt. eigenvalues --    0.05603   0.12397   0.12474   0.12519   0.37048
 Alpha virt. eigenvalues --    0.37819   0.38170   0.63290   0.63467   0.63655
 Alpha virt. eigenvalues --    0.66992   0.95962   1.28589   1.29454   1.85053

 Mulliken charges:
               1
     1  C   -0.357643
     2  H    0.086962
     3  H    0.090848
     4  H    0.091920
     5  H    0.087913
 Sum of Mulliken charges =  -0.00000

 Dipole moment (field-independent basis, Debye):
    X=              0.0251    Y=             -0.0059    Z=              0.0060  Tot=              0.0265
 Quadrupole moment (field-independent basis, Debye-Ang):
   XX=             -8.3940   YY=             -8.4374   ZZ=             -8.5756
   XY=              0.0015   XZ=             -0.0065   YZ=              0.0029

 Normal termination of Gaussian 16 at Fri Sep 22 16:32:56 2023.
