 Gaussian 16, Revision A.03,
 Gaussian 16:  ES64L-G16RevA.03 25-Dec-2016

 ----------------------------------------------------------------------
 #p b3lyp/gen scrf=(cpcm,solvent=toluene) pop=hirshfeld empiricaldisper
 sion=gd3bj
 ----------------------------------------------------------------------

 ------------------------
 tmpdir/M2_conf_0_205.gjf
 ------------------------
 Symbolic Z-matrix:
 Charge =  0 Multiplicity = 1

                         Standard orientation:
 ---------------------------------------------------------------------
 Center     Atomic      Atomic             Coordinates (Angstroms)
 Number     Number       Type             X           Y           Z
 ---------------------------------------------------------------------
      1          6           0        0.783335    0.488579    0.010153
      2          6           0       -0.582795    0.663080   -0.003690
      3          6           0       -1.418065   -0.489850   -0.000531
      4          8           0        1.301272   -0.650394   -0.004982
      5          1           0        1.453824    1.343224    0.037094
      6          1           0       -1.030114    1.673855   -0.067946
      7          1           0       -1.031357   -1.405592   -0.033763
      8          1           0       -2.497385   -0.379190    0.068880
 ---------------------------------------------------------------------

 SCF Done:  E(RB3LYP) =  -191.869281282     A.U. after   11 cycles

 The electronic state is 1-A.
 Alpha  occ. eigenvalues --  -19.11519 -10.26181 -10.21728 -10.20474  -1.03507
 Alpha  occ. eigenvalues --   -0.80231  -0.68529  -0.55796  -0.52372  -0.45782
 Alpha  occ. eigenvalues --   -0.42520  -0.40509  -0.39778  -0.28380  -0.26676
 Alpha virt. eigenvalues --   -0.10115   0.04862   0.05530   0.08146   0.10651
 Alpha virt. eigenvalues --    0.13227   0.21357   0.24573   0.29049   0.40250
 Alpha virt. eigenvalues --    0.42232   0.44309   0.46215   0.47365   0.51154

 Mulliken charges:
               1
     1  C    0.306817
     2  C   -0.276873
     3  C    0.013968
     4  O   -0.411966
     5  H    0.059477
     6  H    0.103052
     7  H    0.080405
     8  H    0.125120
 Sum of Mulliken charges =  -0.00000

 Dipole moment (field-independent basis, Debye):
    X=             -2.7269    Y=              2.0432    Z=              0.0049  Tot=              3.4074
 Quadrupole moment (field-independent basis, Debye-Ang):
   XX=            -23.9059   YY=            -22.3947   ZZ=            -25.0815
   XY=              3.7050   XZ=             -0.0079   YZ=             -0.0827

 Normal termination of Gaussian 16 at Fri Sep 22 16:34:54 2023.
