 Gaussian 16, Revision A.03,
 Gaussian 16:  ES64L-G16RevA.03 25-Dec-2016

 ----------------------------------------------------------------------
 #p b3lyp/gen scrf=(cpcm,solvent=toluene) pop=hirshfeld empiricaldisper
 sion=gd3bj
 ----------------------------------------------------------------------

 ------------------------
 tmpdir/M2_conf_0_222.gjf
 ------------------------
 Symbolic Z-matrix:
 Charge =  0 Multiplicity = 1

                         Standard orientation:
 ---------------------------------------------------------------------
 Center     Atomic      Atomic             Coordinates (Angstroms)
 Number     Number       Type             X           Y           Z
 ---------------------------------------------------------------------
      1          6           0        0.561245   -0.016935   -0.003233
      2          1           0        1.110241    0.923855    0.006480
      3          1           0        1.056032   -0.879667    0.007225
      4          8           0       -0.691718    0.007177    0.000712
 ---------------------------------------------------------------------

 SCF Done:  E(RB3LYP) =  -114.476771469     A.U. after    9 cycles

 The electronic state is 1-A.
 Alpha  occ. eigenvalues --  -19.14062 -10.27342  -1.04410  -0.66093  -0.51047
 Alpha  occ. eigenvalues --   -0.44921  -0.39142  -0.27658
 Alpha virt. eigenvalues --   -0.06381   0.06618   0.11796   0.17493   0.40516
 Alpha virt. eigenvalues --    0.47718   0.52470   0.57280   0.62503   0.73279
 Alpha virt. eigenvalues --    0.79233   0.87520   0.97765   1.32151   1.49353

 Mulliken charges:
               1
     1  C    0.240079
     2  H    0.087408
     3  H    0.065670
     4  O   -0.393157
 Sum of Mulliken charges =   0.00000

 Dipole moment (field-independent basis, Debye):
    X=              2.9362    Y=             -0.1145    Z=              0.0023  Tot=              2.9384
 Quadrupole moment (field-independent basis, Debye-Ang):
   XX=            -11.9491   YY=            -11.4498   ZZ=            -11.5730
   XY=             -0.0695   XZ=              0.0068   YZ=              0.0009

 Normal termination of Gaussian 16 at Fri Sep 22 16:35:24 2023.
