 Gaussian 16, Revision A.03,
 Gaussian 16:  ES64L-G16RevA.03 25-Dec-2016

 ----------------------------------------------------------------------
 #p b3lyp/gen scrf=(cpcm,solvent=toluene) pop=hirshfeld empiricaldisper
 sion=gd3bj
 ----------------------------------------------------------------------

 ------------------------
 tmpdir/M2_conf_0_380.gjf
 ------------------------
 Symbolic Z-matrix:
 Charge =  0 Multiplicity = 1

                         Standard orientation:
 ---------------------------------------------------------------------
 Center     Atomic      Atomic             Coordinates (Angstroms)
 Number     Number       Type             X           Y           Z
 ---------------------------------------------------------------------
      1          6           0       -0.583682   -0.376551    0.016654
      2          6           0        0.613834    0.385609    0.009710
      3          1           0        0.539740    1.469392    0.042341
      4          1           0       -0.521105   -1.409920    0.033627
      5          8           0       -1.720903    0.149029   -0.015158
      6          8           0        1.695960   -0.163256   -0.014111
 ---------------------------------------------------------------------

 SCF Done:  E(RB3LYP) =  -227.782274647     A.U. after   11 cycles

 The electronic state is 1-A.
 Alpha  occ. eigenvalues --  -19.16898 -19.16763 -10.29327 -10.29012  -1.10053
 Alpha  occ. eigenvalues --   -1.07081  -0.74905  -0.62168  -0.52187  -0.50266
 Alpha  occ. eigenvalues --   -0.46229  -0.45879  -0.39520  -0.33012  -0.28826
 Alpha virt. eigenvalues --   -0.13771   0.01469   0.06895   0.09050   0.15099
 Alpha virt. eigenvalues --    0.24318   0.31816   0.38037   0.40803   0.44511
 Alpha virt. eigenvalues --    0.47393   0.57625   0.58772   0.62114   0.67272

 Mulliken charges:
               1
     1  C    0.264783
     2  C    0.240454
     3  H    0.083316
     4  H    0.070989
     5  O   -0.344961
     6  O   -0.314581
 Sum of Mulliken charges =  -0.00000

 Dipole moment (field-independent basis, Debye):
    X=              0.1990    Y=             -0.0056    Z=              0.1230  Tot=              0.2340
 Quadrupole moment (field-independent basis, Debye-Ang):
   XX=            -32.3286   YY=            -20.5044   ZZ=            -21.2121
   XY=              2.3296   XZ=             -0.0048   YZ=              0.0056

 Normal termination of Gaussian 16 at Fri Sep 22 16:36:25 2023.
