 Gaussian 16, Revision A.03,
 Gaussian 16:  ES64L-G16RevA.03 25-Dec-2016

 ----------------------------------------------------------------------
 #p b3lyp/gen scrf=(cpcm,solvent=toluene) pop=hirshfeld empiricaldisper
 sion=gd3bj
 ----------------------------------------------------------------------

 ------------------------
 tmpdir/M2_conf_0_328.gjf
 ------------------------
 Symbolic Z-matrix:
 Charge =  0 Multiplicity = 1

                         Standard orientation:
 ---------------------------------------------------------------------
 Center     Atomic      Atomic             Coordinates (Angstroms)
 Number     Number       Type             X           Y           Z
 ---------------------------------------------------------------------
      1          6           0        0.688234   -0.006888   -0.001487
      2          6           0       -0.689766   -0.007102   -0.000159
      3          1           0        1.212761   -0.889892    0.008634
      4          1           0        1.240688    0.929834   -0.001361
      5          1           0       -1.210311   -0.891474   -0.003527
      6          1           0       -1.233947    0.935471    0.006133
 ---------------------------------------------------------------------

 SCF Done:  E(RB3LYP) =  -78.5743835903     A.U. after    9 cycles

 The electronic state is 1-A.
 Alpha  occ. eigenvalues --  -10.18063 -10.17998  -0.76083  -0.59462  -0.47926
 Alpha  occ. eigenvalues --   -0.41808  -0.37392  -0.27393
 Alpha virt. eigenvalues --   -0.01212   0.06601   0.09610   0.09990   0.16160
 Alpha virt. eigenvalues --    0.27660   0.35802   0.41868   0.43585   0.51248
 Alpha virt. eigenvalues --    0.51795   0.55013   0.63634   0.65505   0.70571

 Mulliken charges:
               1
     1  C   -0.187238
     2  C   -0.184304
     3  H    0.083000
     4  H    0.102472
     5  H    0.082990
     6  H    0.103081
 Sum of Mulliken charges =   0.00000

 Dipole moment (field-independent basis, Debye):
    X=              0.0042    Y=             -0.0263    Z=              0.0106  Tot=              0.0287
 Quadrupole moment (field-independent basis, Debye-Ang):
   XX=            -12.3548   YY=            -12.3153   ZZ=            -15.6616
   XY=              0.0054   XZ=              0.0061   YZ=             -0.0001

 Normal termination of Gaussian 16 at Fri Sep 22 16:36:11 2023.
