 Gaussian 16, Revision A.03,
 Gaussian 16:  ES64L-G16RevA.03 25-Dec-2016

 ----------------------------------------------------------------------
 #p b3lyp/gen scrf=(cpcm,solvent=toluene) pop=hirshfeld empiricaldisper
 sion=gd3bj
 ----------------------------------------------------------------------

 ------------------------
 tmpdir/M2_conf_0_199.gjf
 ------------------------
 Symbolic Z-matrix:
 Charge =  0 Multiplicity = 1

                         Standard orientation:
 ---------------------------------------------------------------------
 Center     Atomic      Atomic             Coordinates (Angstroms)
 Number     Number       Type             X           Y           Z
 ---------------------------------------------------------------------
      1          1           0       -0.578902    0.929512   -0.048540
      2          6           0        0.002036    0.004585   -0.002635
      3          1           0       -0.137268   -0.455625    0.982483
      4          1           0        1.082471    0.195557   -0.164777
      5          1           0       -0.378521   -0.696957   -0.753358
 ---------------------------------------------------------------------

 SCF Done:  E(RB3LYP) =  -40.5139230253     A.U. after    7 cycles

 The electronic state is 1-A.
 Alpha  occ. eigenvalues --  -10.16358  -0.69304  -0.39524  -0.39256  -0.38960
 Alpha virt. eigenvalues --    0.05662   0.12409   0.12588   0.12622   0.37273
 Alpha virt. eigenvalues --    0.37581   0.38132   0.63308   0.63761   0.64001
 Alpha virt. eigenvalues --    0.67574   0.96114   1.28834   1.29044   1.84975

 Mulliken charges:
               1
     1  H    0.089058
     2  C   -0.353458
     3  H    0.085431
     4  H    0.092131
     5  H    0.086838
 Sum of Mulliken charges =  -0.00000

 Dipole moment (field-independent basis, Debye):
    X=             -0.0232    Y=             -0.0199    Z=              0.0131  Tot=              0.0333
 Quadrupole moment (field-independent basis, Debye-Ang):
   XX=             -8.3749   YY=             -8.4631   ZZ=             -8.5331
   XY=             -0.0117   XZ=              0.0041   YZ=              0.0028

 Normal termination of Gaussian 16 at Fri Sep 22 16:33:52 2023.
