 Gaussian 16, Revision A.03,
 Gaussian 16:  ES64L-G16RevA.03 25-Dec-2016

 ----------------------------------------------------------------------
 #p b3lyp/gen scrf=(cpcm,solvent=toluene) pop=hirshfeld empiricaldisper
 sion=gd3bj
 ----------------------------------------------------------------------

 ------------------------
 tmpdir/M2_conf_0_321.gjf
 ------------------------
 Symbolic Z-matrix:
 Charge =  0 Multiplicity = 1

                         Standard orientation:
 ---------------------------------------------------------------------
 Center     Atomic      Atomic             Coordinates (Angstroms)
 Number     Number       Type             X           Y           Z
 ---------------------------------------------------------------------
      1          6           0        1.444580   -0.473324   -0.004317
      2          6           0        0.584779    0.670439    0.000565
      3          6           0       -0.819770    0.470004   -0.006584
      4          1           0        2.457602   -0.332076    0.008155
      5          1           0        1.030463   -1.415529   -0.004740
      6          1           0        1.011796    1.605193    0.026627
      7          8           0       -1.285620   -0.650022    0.005374
      8          1           0       -1.472435    1.339871   -0.011017
 ---------------------------------------------------------------------

 SCF Done:  E(RB3LYP) =  -191.872015756     A.U. after   11 cycles

 The electronic state is 1-A.
 Alpha  occ. eigenvalues --  -19.11887 -10.26363 -10.20954 -10.19646  -1.05695
 Alpha  occ. eigenvalues --   -0.79602  -0.67944  -0.56147  -0.52957  -0.45820
 Alpha  occ. eigenvalues --   -0.43059  -0.41127  -0.40615  -0.28284  -0.26887
 Alpha virt. eigenvalues --   -0.09371   0.04906   0.06406   0.08284   0.11030
 Alpha virt. eigenvalues --    0.13588   0.21690   0.24554   0.28961   0.40430
 Alpha virt. eigenvalues --    0.42098   0.46323   0.46633   0.48177   0.51425

 Mulliken charges:
               1
     1  C    0.013402
     2  C   -0.253110
     3  C    0.303783
     4  H    0.099302
     5  H    0.097286
     6  H    0.060208
     7  O   -0.376299
     8  H    0.055428
 Sum of Mulliken charges =  -0.00000

 Dipole moment (field-independent basis, Debye):
    X=              2.3774    Y=              2.0103    Z=              0.0045  Tot=              3.1134
 Quadrupole moment (field-independent basis, Debye-Ang):
   XX=            -23.7032   YY=            -22.5328   ZZ=            -25.0114
   XY=             -3.4602   XZ=              0.0717   YZ=              0.0473

 Normal termination of Gaussian 16 at Fri Sep 22 16:36:38 2023.
