 Gaussian 16, Revision A.03,
 Gaussian 16:  ES64L-G16RevA.03 25-Dec-2016

 ----------------------------------------------------------------------
 #p b3lyp/gen scrf=(cpcm,solvent=toluene) pop=hirshfeld empiricaldisper
 sion=gd3bj
 ----------------------------------------------------------------------

 -----------------------
 tmpdir/M2_conf_0_85.gjf
 -----------------------
 Symbolic Z-matrix:
 Charge =  0 Multiplicity = 1

                         Standard orientation:
 ---------------------------------------------------------------------
 Center     Atomic      Atomic             Coordinates (Angstroms)
 Number     Number       Type             X           Y           Z
 ---------------------------------------------------------------------
      1          6           0       -0.763602    0.002655    0.001352
      2          6           0        0.763294    0.002025   -0.002202
      3          1           0       -1.138400    0.927544    0.474429
      4          1           0       -1.153657   -0.870352    0.540900
      5          1           0       -1.134962   -0.073729   -1.032729
      6          1           0        1.140508    0.875335   -0.563609
      7          1           0        1.157333   -0.920109   -0.449423
      8          1           0        1.131024    0.033231    1.035530
 ---------------------------------------------------------------------

 SCF Done:  E(RB3LYP) =  -79.8216280738     A.U. after    9 cycles

 The electronic state is 1-A.
 Alpha  occ. eigenvalues --  -10.16597 -10.16578  -0.75436  -0.61143  -0.43858
 Alpha  occ. eigenvalues --   -0.43637  -0.36527  -0.34595  -0.34264
 Alpha virt. eigenvalues --    0.04967   0.09332   0.10539   0.10634   0.13630
 Alpha virt. eigenvalues --    0.13773   0.21457   0.37132   0.39518   0.39675
 Alpha virt. eigenvalues --    0.45903   0.46916   0.58924   0.64188   0.64224

 Mulliken charges:
               1
     1  C   -0.260481
     2  C   -0.260991
     3  H    0.089722
     4  H    0.085435
     5  H    0.085674
     6  H    0.089544
     7  H    0.085651
     8  H    0.085445
 Sum of Mulliken charges =   0.00000

 Dipole moment (field-independent basis, Debye):
    X=              0.0001    Y=             -0.0319    Z=              0.0033  Tot=              0.0321
 Quadrupole moment (field-independent basis, Debye-Ang):
   XX=            -16.0991   YY=            -14.9137   ZZ=            -15.0240
   XY=             -0.0018   XZ=             -0.0243   YZ=             -0.0002

 Normal termination of Gaussian 16 at Fri Sep 22 16:33:08 2023.
