 Gaussian 16, Revision A.03,
 Gaussian 16:  ES64L-G16RevA.03 25-Dec-2016

 ----------------------------------------------------------------------
 #p b3lyp/gen scrf=(cpcm,solvent=toluene) pop=hirshfeld empiricaldisper
 sion=gd3bj
 ----------------------------------------------------------------------

 ------------------------
 tmpdir/M2_conf_0_393.gjf
 ------------------------
 Symbolic Z-matrix:
 Charge =  0 Multiplicity = 1

                         Standard orientation:
 ---------------------------------------------------------------------
 Center     Atomic      Atomic             Coordinates (Angstroms)
 Number     Number       Type             X           Y           Z
 ---------------------------------------------------------------------
      1          6           0       -0.808152    0.473907    0.002864
      2          6           0        0.598089    0.635323   -0.005577
      3          6           0        1.423740   -0.466287    0.002366
      4          8           0       -1.299527   -0.635752   -0.002372
      5          1           0       -1.448105    1.353877    0.019738
      6          1           0        1.025167    1.636529   -0.009485
      7          1           0        1.030756   -1.417066   -0.000182
      8          1           0        2.506330   -0.344986    0.010981
 ---------------------------------------------------------------------

 SCF Done:  E(RB3LYP) =  -191.883822844     A.U. after   11 cycles

 The electronic state is 1-A.
 Alpha  occ. eigenvalues --  -19.11982 -10.26390 -10.20857 -10.19626  -1.05783
 Alpha  occ. eigenvalues --   -0.80153  -0.67595  -0.55597  -0.52441  -0.46009
 Alpha  occ. eigenvalues --   -0.42922  -0.41287  -0.39693  -0.28951  -0.26931
 Alpha virt. eigenvalues --   -0.08898   0.05447   0.05632   0.08097   0.10789
 Alpha virt. eigenvalues --    0.13291   0.22046   0.25389   0.28909   0.40127
 Alpha virt. eigenvalues --    0.41775   0.45155   0.46141   0.48013   0.51679

 Mulliken charges:
               1
     1  C    0.301741
     2  C   -0.272692
     3  C   -0.011788
     4  O   -0.374693
     5  H    0.055473
     6  H    0.088903
     7  H    0.091968
     8  H    0.121087
 Sum of Mulliken charges =  -0.00000

 Dipole moment (field-independent basis, Debye):
    X=              2.3478    Y=              1.9842    Z=              0.0198  Tot=              3.0740
 Quadrupole moment (field-independent basis, Debye-Ang):
   XX=            -23.9028   YY=            -22.5303   ZZ=            -24.9971
   XY=             -3.4921   XZ=              0.0024   YZ=             -0.0086

 Normal termination of Gaussian 16 at Fri Sep 22 16:37:15 2023.
