 Gaussian 16, Revision A.03,
 Gaussian 16:  ES64L-G16RevA.03 25-Dec-2016

 ----------------------------------------------------------------------
 #p b3lyp/gen scrf=(cpcm,solvent=toluene) pop=hirshfeld empiricaldisper
 sion=gd3bj
 ----------------------------------------------------------------------

 ------------------------
 tmpdir/M2_conf_0_221.gjf
 ------------------------
 Symbolic Z-matrix:
 Charge =  0 Multiplicity = 1

                         Standard orientation:
 ---------------------------------------------------------------------
 Center     Atomic      Atomic             Coordinates (Angstroms)
 Number     Number       Type             X           Y           Z
 ---------------------------------------------------------------------
      1          6           0        0.710389   -0.014212   -0.003306
      2          6           0       -0.710039    0.007847   -0.001820
      3          1           0        1.208286   -0.875201   -0.007039
      4          1           0        1.255930    0.928341    0.024444
      5          1           0       -1.214658   -0.895923    0.022966
      6          1           0       -1.251655    0.880970   -0.009618
 ---------------------------------------------------------------------

 SCF Done:  E(RB3LYP) =  -78.5628148822     A.U. after    9 cycles

 The electronic state is 1-A.
 Alpha  occ. eigenvalues --  -10.18333 -10.18130  -0.75551  -0.60506  -0.47992
 Alpha  occ. eigenvalues --   -0.41732  -0.38209  -0.26797
 Alpha virt. eigenvalues --   -0.02106   0.06833   0.09827   0.10385   0.16098
 Alpha virt. eigenvalues --    0.26597   0.36517   0.41619   0.44058   0.50858
 Alpha virt. eigenvalues --    0.52905   0.54210   0.64756   0.65961   0.70380

 Mulliken charges:
               1
     1  C   -0.178952
     2  C   -0.175102
     3  H    0.072245
     4  H    0.106071
     5  H    0.088929
     6  H    0.086811
 Sum of Mulliken charges =  -0.00000

 Dipole moment (field-independent basis, Debye):
    X=             -0.0157    Y=             -0.0207    Z=              0.0330  Tot=              0.0420
 Quadrupole moment (field-independent basis, Debye-Ang):
   XX=            -12.2149   YY=            -12.3398   ZZ=            -15.7004
   XY=             -0.0821   XZ=              0.0069   YZ=             -0.0003

 Normal termination of Gaussian 16 at Fri Sep 22 16:35:21 2023.
