 Gaussian 16, Revision A.03,
 Gaussian 16:  ES64L-G16RevA.03 25-Dec-2016

 ----------------------------------------------------------------------
 #p b3lyp/gen scrf=(cpcm,solvent=toluene) pop=hirshfeld empiricaldisper
 sion=gd3bj
 ----------------------------------------------------------------------

 ------------------------
 tmpdir/M2_conf_0_224.gjf
 ------------------------
 Symbolic Z-matrix:
 Charge =  0 Multiplicity = 1

                         Standard orientation:
 ---------------------------------------------------------------------
 Center     Atomic      Atomic             Coordinates (Angstroms)
 Number     Number       Type             X           Y           Z
 ---------------------------------------------------------------------
      1          6           0        0.685415    0.510601   -0.000808
      2          6           0       -0.688556    0.508854   -0.009434
      3          1           0       -1.227728    1.455457   -0.005091
      4          8           0        1.336283   -0.562663   -0.002294
      5          1           0        1.207733    1.463341    0.037670
      6          8           0       -1.331428   -0.566778    0.005903
 ---------------------------------------------------------------------

 SCF Done:  E(RB3LYP) =  -227.768526578     A.U. after   11 cycles

 The electronic state is 1-A.
 Alpha  occ. eigenvalues --  -19.16579 -19.16539 -10.29186 -10.29121  -1.08999
 Alpha  occ. eigenvalues --   -1.05166  -0.77187  -0.58066  -0.55909  -0.48262
 Alpha  occ. eigenvalues --   -0.45753  -0.45087  -0.38116  -0.31478  -0.29395
 Alpha virt. eigenvalues --   -0.15066   0.02266   0.05338   0.09375   0.14259
 Alpha virt. eigenvalues --    0.25461   0.33674   0.37686   0.38144   0.45077
 Alpha virt. eigenvalues --    0.47118   0.56105   0.58498   0.60118   0.65660

 Mulliken charges:
               1
     1  C    0.245223
     2  C    0.240493
     3  H    0.080609
     4  O   -0.323696
     5  H    0.079881
     6  O   -0.322511
 Sum of Mulliken charges =  -0.00000

 Dipole moment (field-independent basis, Debye):
    X=             -0.0250    Y=              4.3451    Z=             -0.0082  Tot=              4.3452
 Quadrupole moment (field-independent basis, Debye-Ang):
   XX=            -26.8724   YY=            -21.4624   ZZ=            -21.3142
   XY=             -0.0253   XZ=              0.0448   YZ=              0.0120

 Normal termination of Gaussian 16 at Fri Sep 22 16:35:47 2023.
