 Gaussian 16, Revision A.03,
 Gaussian 16:  ES64L-G16RevA.03 25-Dec-2016

 ----------------------------------------------------------------------
 #p b3lyp/gen scrf=(cpcm,solvent=toluene) pop=hirshfeld empiricaldisper
 sion=gd3bj
 ----------------------------------------------------------------------

 -----------------------
 tmpdir/M2_conf_0_41.gjf
 -----------------------
 Symbolic Z-matrix:
 Charge =  0 Multiplicity = 1

                         Standard orientation:
 ---------------------------------------------------------------------
 Center     Atomic      Atomic             Coordinates (Angstroms)
 Number     Number       Type             X           Y           Z
 ---------------------------------------------------------------------
      1          6           0       -0.125970    0.421489    0.006178
      2          7           0        1.087306   -0.183678   -0.007964
      3          1           0       -0.066959    1.478381    0.043565
      4          8           0       -1.240710   -0.246462   -0.006506
      5          1           0        1.906956    0.431392   -0.044032
      6          1           0        1.230365   -1.181265    0.071196
 ---------------------------------------------------------------------

 SCF Done:  E(RB3LYP) =  -169.869049776     A.U. after   11 cycles

 The electronic state is 1-A.
 Alpha  occ. eigenvalues --  -19.09467 -14.35809 -10.29037  -1.00901  -0.91484
 Alpha  occ. eigenvalues --   -0.64785  -0.55599  -0.49869  -0.41198  -0.39938
 Alpha  occ. eigenvalues --   -0.27887  -0.26307
 Alpha virt. eigenvalues --   -0.00592   0.03706   0.06729   0.11896   0.20042
 Alpha virt. eigenvalues --    0.29890   0.41747   0.43932   0.48033   0.50172
 Alpha virt. eigenvalues --    0.54600   0.66139   0.67624   0.69217   0.73886

 Mulliken charges:
               1
     1  C    0.370643
     2  N   -0.342155
     3  H    0.072829
     4  O   -0.507485
     5  H    0.206098
     6  H    0.200069
 Sum of Mulliken charges =  -0.00000

 Dipole moment (field-independent basis, Debye):
    X=              4.9302    Y=              1.2218    Z=              0.1241  Tot=              5.0809
 Quadrupole moment (field-independent basis, Debye-Ang):
   XX=            -18.3213   YY=            -14.7953   ZZ=            -18.8893
   XY=             -1.2820   XZ=              0.0192   YZ=             -0.2008

 Normal termination of Gaussian 16 at Fri Sep 22 16:33:11 2023.
