 Gaussian 16, Revision A.03,
 Gaussian 16:  ES64L-G16RevA.03 25-Dec-2016

 ----------------------------------------------------------------------
 #p b3lyp/gen scrf=(cpcm,solvent=toluene) pop=hirshfeld empiricaldisper
 sion=gd3bj
 ----------------------------------------------------------------------

 ------------------------
 tmpdir/M2_conf_0_150.gjf
 ------------------------
 Symbolic Z-matrix:
 Charge =  0 Multiplicity = 1

                         Standard orientation:
 ---------------------------------------------------------------------
 Center     Atomic      Atomic             Coordinates (Angstroms)
 Number     Number       Type             X           Y           Z
 ---------------------------------------------------------------------
      1          1           0       -0.434664    1.001138    0.105199
      2          6           0        0.005399    0.000936   -0.003267
      3          1           0       -0.198422   -0.562072    0.916623
      4          1           0        1.104105    0.062047   -0.172205
      5          1           0       -0.503415   -0.506727   -0.830017
 ---------------------------------------------------------------------

 SCF Done:  E(RB3LYP) =  -40.5137352993     A.U. after    7 cycles

 The electronic state is 1-A.
 Alpha  occ. eigenvalues --  -10.16461  -0.69233  -0.39552  -0.39074  -0.38984
 Alpha virt. eigenvalues --    0.05619   0.12338   0.12553   0.12578   0.37297
 Alpha virt. eigenvalues --    0.37384   0.38321   0.63099   0.63672   0.63761
 Alpha virt. eigenvalues --    0.67336   0.96083   1.28799   1.29145   1.84657

 Mulliken charges:
               1
     1  H    0.087573
     2  C   -0.356053
     3  H    0.086070
     4  H    0.094650
     5  H    0.087759
 Sum of Mulliken charges =  -0.00000

 Dipole moment (field-independent basis, Debye):
    X=             -0.0386    Y=             -0.0066    Z=              0.0149  Tot=              0.0419
 Quadrupole moment (field-independent basis, Debye-Ang):
   XX=             -8.3451   YY=             -8.5182   ZZ=             -8.5313
   XY=              0.0006   XZ=              0.0065   YZ=              0.0057

 Normal termination of Gaussian 16 at Fri Sep 22 16:34:07 2023.
