 Gaussian 16, Revision A.03,
 Gaussian 16:  ES64L-G16RevA.03 25-Dec-2016

 ----------------------------------------------------------------------
 #p b3lyp/gen scrf=(cpcm,solvent=toluene) pop=hirshfeld empiricaldisper
 sion=gd3bj
 ----------------------------------------------------------------------

 ------------------------
 tmpdir/M2_conf_0_298.gjf
 ------------------------
 Symbolic Z-matrix:
 Charge =  0 Multiplicity = 1

                         Standard orientation:
 ---------------------------------------------------------------------
 Center     Atomic      Atomic             Coordinates (Angstroms)
 Number     Number       Type             X           Y           Z
 ---------------------------------------------------------------------
      1          6           0        0.700500    0.527676   -0.003454
      2          6           0       -0.712118    0.490819   -0.001458
      3          1           0       -1.256121    1.429066    0.009303
      4          1           0        1.217683    1.417432    0.006688
      5          8           0        1.340469   -0.559423    0.001393
      6          8           0       -1.326951   -0.560261    0.000293
 ---------------------------------------------------------------------

 SCF Done:  E(RB3LYP) =  -227.771678449     A.U. after   11 cycles

 The electronic state is 1-A.
 Alpha  occ. eigenvalues --  -19.16314 -19.16198 -10.28918 -10.28815  -1.09696
 Alpha  occ. eigenvalues --   -1.05501  -0.75972  -0.59023  -0.56054  -0.48174
 Alpha  occ. eigenvalues --   -0.45701  -0.45512  -0.38488  -0.31617  -0.28900
 Alpha virt. eigenvalues --   -0.14201   0.02109   0.05936   0.09582   0.14545
 Alpha virt. eigenvalues --    0.25935   0.31917   0.38059   0.39413   0.44829
 Alpha virt. eigenvalues --    0.49264   0.56440   0.57796   0.61863   0.66982

 Mulliken charges:
               1
     1  C    0.271419
     2  C    0.237482
     3  H    0.067570
     4  H    0.061935
     5  O   -0.335465
     6  O   -0.302940
 Sum of Mulliken charges =  -0.00000

 Dipole moment (field-independent basis, Debye):
    X=             -0.0287    Y=              4.3552    Z=             -0.0038  Tot=              4.3553
 Quadrupole moment (field-independent basis, Debye-Ang):
   XX=            -26.7024   YY=            -21.5070   ZZ=            -21.2237
   XY=              0.2186   XZ=             -0.0034   YZ=              0.0047

 Normal termination of Gaussian 16 at Fri Sep 22 16:35:32 2023.
