 Gaussian 16, Revision A.03,
 Gaussian 16:  ES64L-G16RevA.03 25-Dec-2016

 ----------------------------------------------------------------------
 #p b3lyp/gen scrf=(cpcm,solvent=toluene) pop=hirshfeld empiricaldisper
 sion=gd3bj
 ----------------------------------------------------------------------

 ------------------------
 tmpdir/M2_conf_0_105.gjf
 ------------------------
 Symbolic Z-matrix:
 Charge =  0 Multiplicity = 1

                         Standard orientation:
 ---------------------------------------------------------------------
 Center     Atomic      Atomic             Coordinates (Angstroms)
 Number     Number       Type             X           Y           Z
 ---------------------------------------------------------------------
      1          7           0       -0.726188   -0.009169   -0.009198
      2          6           0        0.717483    0.000242    0.007580
      3          1           0        1.064457   -0.836311   -0.600749
      4          1           0       -1.258969   -0.795757   -0.026336
      5          1           0       -1.226683    0.883100    0.060044
      6          1           0        1.070782   -0.133493    1.048344
      7          1           0        1.128832    0.945187   -0.462396
 ---------------------------------------------------------------------

 SCF Done:  E(RB3LYP) =  -95.8332331843     A.U. after    9 cycles

 The electronic state is 1-A.
 Alpha  occ. eigenvalues --  -14.27219 -10.19508  -0.86338  -0.65771  -0.49851
 Alpha  occ. eigenvalues --   -0.43219  -0.41706  -0.36892  -0.20777
 Alpha virt. eigenvalues --    0.05201   0.08394   0.09550   0.12362   0.15487
 Alpha virt. eigenvalues --    0.21017   0.40094   0.45075   0.46236   0.57298
 Alpha virt. eigenvalues --    0.59043   0.62682   0.65156   0.70034   0.71119

 Mulliken charges:
               1
     1  N   -0.516874
     2  C   -0.029472
     3  H    0.078407
     4  H    0.138514
     5  H    0.167341
     6  H    0.072872
     7  H    0.089212
 Sum of Mulliken charges =   0.00000

 Dipole moment (field-independent basis, Debye):
    X=             -0.1991    Y=              0.0545    Z=             -0.0035  Tot=              0.2064
 Quadrupole moment (field-independent basis, Debye-Ang):
   XX=            -12.9609   YY=            -12.3197   ZZ=            -15.6412
   XY=              0.0303   XZ=             -0.3508   YZ=              0.1051

 Normal termination of Gaussian 16 at Fri Sep 22 16:33:07 2023.
