 Gaussian 16, Revision A.03,
 Gaussian 16:  ES64L-G16RevA.03 25-Dec-2016

 ----------------------------------------------------------------------
 #p b3lyp/gen scrf=(cpcm,solvent=toluene) pop=hirshfeld empiricaldisper
 sion=gd3bj
 ----------------------------------------------------------------------

 ------------------------
 tmpdir/M2_conf_0_237.gjf
 ------------------------
 Symbolic Z-matrix:
 Charge =  0 Multiplicity = 1

                         Standard orientation:
 ---------------------------------------------------------------------
 Center     Atomic      Atomic             Coordinates (Angstroms)
 Number     Number       Type             X           Y           Z
 ---------------------------------------------------------------------
      1          6           0        0.678195    0.412502    0.168591
      2          6           0       -0.757093    0.441887   -0.174423
      3          1           0        1.178114    1.093426    0.852844
      4          6           0        1.597403   -0.576396   -0.187103
      5          6           0       -1.515274   -0.659922    0.170389
      6          1           0       -1.197501    1.198144   -0.717567
 ---------------------------------------------------------------------

 SCF Done:  E(RB3LYP) =  -153.296100551     A.U. after   13 cycles

 The electronic state is 1-A.
 Alpha  occ. eigenvalues --  -10.27927 -10.27534 -10.23314 -10.22539  -0.84747
 Alpha  occ. eigenvalues --   -0.74953  -0.59301  -0.52736  -0.50112  -0.34715
 Alpha  occ. eigenvalues --   -0.32938  -0.30760  -0.28443
 Alpha virt. eigenvalues --   -0.13479  -0.11962  -0.05101  -0.01198   0.07197
 Alpha virt. eigenvalues --    0.08493   0.22469   0.24611   0.25923   0.37617
 Alpha virt. eigenvalues --    0.39872   0.41180   0.42016   0.44622   0.48032

 Mulliken charges:
               1
     1  C   -0.207150
     2  C   -0.127190
     3  H    0.175567
     4  C    0.011158
     5  C    0.004949
     6  H    0.142666
 Sum of Mulliken charges =  -0.00000

 Dipole moment (field-independent basis, Debye):
    X=             -0.1703    Y=              3.1626    Z=              0.0312  Tot=              3.1674
 Quadrupole moment (field-independent basis, Debye-Ang):
   XX=            -28.0714   YY=            -25.3590   ZZ=            -24.5560
   XY=             -0.3053   XZ=              3.9982   YZ=              0.3466

 Normal termination of Gaussian 16 at Fri Sep 22 16:35:04 2023.
