 Gaussian 16, Revision A.03,
 Gaussian 16:  ES64L-G16RevA.03 25-Dec-2016

 ----------------------------------------------------------------------
 #p b3lyp/gen scrf=(cpcm,solvent=toluene) pop=hirshfeld empiricaldisper
 sion=gd3bj
 ----------------------------------------------------------------------

 ------------------------
 tmpdir/M2_conf_0_207.gjf
 ------------------------
 Symbolic Z-matrix:
 Charge =  0 Multiplicity = 1

                         Standard orientation:
 ---------------------------------------------------------------------
 Center     Atomic      Atomic             Coordinates (Angstroms)
 Number     Number       Type             X           Y           Z
 ---------------------------------------------------------------------
      1          6           0       -0.561387   -0.016485   -0.000306
      2          1           0       -1.078216    0.939787    0.000609
      3          1           0       -1.071455   -0.873129    0.000692
      4          8           0        0.689749    0.004032    0.000067
 ---------------------------------------------------------------------

 SCF Done:  E(RB3LYP) =  -114.477043614     A.U. after    9 cycles

 The electronic state is 1-A.
 Alpha  occ. eigenvalues --  -19.13998 -10.27300  -1.04483  -0.65989  -0.51181
 Alpha  occ. eigenvalues --   -0.44867  -0.39175  -0.27598
 Alpha virt. eigenvalues --   -0.06309   0.06627   0.11758   0.17556   0.40515
 Alpha virt. eigenvalues --    0.47443   0.52855   0.57300   0.62768   0.73212
 Alpha virt. eigenvalues --    0.79235   0.87558   0.97862   1.31976   1.49603

 Mulliken charges:
               1
     1  C    0.238817
     2  H    0.086106
     3  H    0.067615
     4  O   -0.392539
 Sum of Mulliken charges =  -0.00000

 Dipole moment (field-independent basis, Debye):
    X=             -2.9263    Y=             -0.1060    Z=              0.0002  Tot=              2.9282
 Quadrupole moment (field-independent basis, Debye-Ang):
   XX=            -11.9756   YY=            -11.4228   ZZ=            -11.5710
   XY=              0.1130   XZ=             -0.0006   YZ=              0.0001

 Normal termination of Gaussian 16 at Fri Sep 22 16:34:09 2023.
