 Gaussian 16, Revision A.03,
 Gaussian 16:  ES64L-G16RevA.03 25-Dec-2016

 ----------------------------------------------------------------------
 #p b3lyp/gen scrf=(cpcm,solvent=toluene) pop=hirshfeld empiricaldisper
 sion=gd3bj
 ----------------------------------------------------------------------

 ------------------------
 tmpdir/M2_conf_0_213.gjf
 ------------------------
 Symbolic Z-matrix:
 Charge =  0 Multiplicity = 1

                         Standard orientation:
 ---------------------------------------------------------------------
 Center     Atomic      Atomic             Coordinates (Angstroms)
 Number     Number       Type             X           Y           Z
 ---------------------------------------------------------------------
      1          6           0       -1.446443   -0.475259   -0.005844
      2          6           0       -0.570634    0.647184   -0.004613
      3          6           0        0.793860    0.486592    0.010777
      4          1           0       -2.540101   -0.327375    0.083264
      5          1           0       -1.051410   -1.389960   -0.041666
      6          1           0       -0.977604    1.654478   -0.046205
      7          8           0        1.308118   -0.656170   -0.000738
      8          1           0        1.443472    1.361116    0.008594
 ---------------------------------------------------------------------

 SCF Done:  E(RB3LYP) =  -191.869557225     A.U. after   12 cycles

 The electronic state is 1-A.
 Alpha  occ. eigenvalues --  -19.11630 -10.26223 -10.21950 -10.20176  -1.03466
 Alpha  occ. eigenvalues --   -0.80234  -0.68640  -0.55655  -0.52370  -0.45728
 Alpha  occ. eigenvalues --   -0.42819  -0.40377  -0.39716  -0.28374  -0.26763
 Alpha virt. eigenvalues --   -0.10214   0.04990   0.05452   0.07998   0.10885
 Alpha virt. eigenvalues --    0.13099   0.21431   0.24284   0.29405   0.40160
 Alpha virt. eigenvalues --    0.42078   0.44682   0.46202   0.47181   0.51416

 Mulliken charges:
               1
     1  C    0.009802
     2  C   -0.271532
     3  C    0.304880
     4  H    0.134727
     5  H    0.079987
     6  H    0.091295
     7  O   -0.411447
     8  H    0.062289
 Sum of Mulliken charges =  -0.00000

 Dipole moment (field-independent basis, Debye):
    X=             -2.7110    Y=              2.0852    Z=              0.0126  Tot=              3.4202
 Quadrupole moment (field-independent basis, Debye-Ang):
   XX=            -23.8131   YY=            -22.5221   ZZ=            -25.0896
   XY=              3.7622   XZ=             -0.0984   YZ=             -0.0373

 Normal termination of Gaussian 16 at Fri Sep 22 16:35:03 2023.
