 Gaussian 16, Revision A.03,
 Gaussian 16:  ES64L-G16RevA.03 25-Dec-2016

 ----------------------------------------------------------------------
 #p b3lyp/gen scrf=(cpcm,solvent=toluene) pop=hirshfeld empiricaldisper
 sion=gd3bj
 ----------------------------------------------------------------------

 ------------------------
 tmpdir/M2_conf_0_243.gjf
 ------------------------
 Symbolic Z-matrix:
 Charge =  0 Multiplicity = 1

                         Standard orientation:
 ---------------------------------------------------------------------
 Center     Atomic      Atomic             Coordinates (Angstroms)
 Number     Number       Type             X           Y           Z
 ---------------------------------------------------------------------
      1          7           0        1.082586   -0.206531   -0.028150
      2          6           0       -0.071767    0.588057   -0.004026
      3          6           0       -1.154207   -0.257168    0.008010
      4          1           0        0.828029   -1.140851   -0.021283
      5          1           0        2.040817    0.117330    0.176614
      6          1           0       -0.090978    1.668662   -0.026316
      7          1           0       -0.804972   -1.227410    0.013467
      8          1           0       -2.195150    0.042654    0.030661
 ---------------------------------------------------------------------

 SCF Done:  E(RB3LYP) =  -133.903929928     A.U. after   10 cycles

 The electronic state is 1-A.
 Alpha  occ. eigenvalues --  -14.31150 -10.21487 -10.14299  -0.91299  -0.72050
 Alpha  occ. eigenvalues --   -0.59748  -0.53002  -0.46324  -0.40087  -0.39270
 Alpha  occ. eigenvalues --   -0.34209  -0.19576
 Alpha virt. eigenvalues --    0.01925   0.05506   0.07296   0.09404   0.12293
 Alpha virt. eigenvalues --    0.17687   0.24203   0.26555   0.40997   0.43300
 Alpha virt. eigenvalues --    0.44561   0.51145   0.51798   0.52891   0.56251

 Mulliken charges:
               1
     1  N   -0.365456
     2  C    0.001242
     3  C   -0.203955
     4  H    0.155746
     5  H    0.189849
     6  H    0.092248
     7  H    0.044146
     8  H    0.086180
 Sum of Mulliken charges =  -0.00000

 Dipole moment (field-independent basis, Debye):
    X=              1.6599    Y=              0.2566    Z=              0.3945  Tot=              1.7253
 Quadrupole moment (field-independent basis, Debye-Ang):
   XX=            -17.1760   YY=            -16.3213   ZZ=            -22.9036
   XY=             -0.3780   XZ=              0.7998   YZ=              0.0190

 Normal termination of Gaussian 16 at Fri Sep 22 16:34:48 2023.
