 Gaussian 16, Revision A.03,
 Gaussian 16:  ES64L-G16RevA.03 25-Dec-2016

 ----------------------------------------------------------------------
 #p b3lyp/gen scrf=(cpcm,solvent=toluene) pop=hirshfeld empiricaldisper
 sion=gd3bj
 ----------------------------------------------------------------------

 ------------------------
 tmpdir/M2_conf_0_218.gjf
 ------------------------
 Symbolic Z-matrix:
 Charge =  0 Multiplicity = 1

                         Standard orientation:
 ---------------------------------------------------------------------
 Center     Atomic      Atomic             Coordinates (Angstroms)
 Number     Number       Type             X           Y           Z
 ---------------------------------------------------------------------
      1          6           0       -1.426107   -0.484926   -0.006386
      2          6           0       -0.596101    0.666261    0.010086
      3          6           0        0.824466    0.500588   -0.014089
      4          1           0       -1.044728   -1.406076   -0.013340
      5          1           0       -2.501205   -0.327292   -0.008848
      6          1           0       -0.986228    1.617777    0.039087
      7          8           0        1.286927   -0.663911    0.010137
      8          1           0        1.423197    1.335339   -0.035665
 ---------------------------------------------------------------------

 SCF Done:  E(RB3LYP) =  -191.867368484     A.U. after   11 cycles

 The electronic state is 1-A.
 Alpha  occ. eigenvalues --  -19.11839 -10.26295 -10.21170 -10.19721  -1.03526
 Alpha  occ. eigenvalues --   -0.79551  -0.68337  -0.57091  -0.52443  -0.45879
 Alpha  occ. eigenvalues --   -0.42370  -0.40585  -0.39970  -0.28219  -0.26874
 Alpha virt. eigenvalues --   -0.09651   0.04152   0.06193   0.08340   0.11255
 Alpha virt. eigenvalues --    0.13460   0.21220   0.24638   0.28159   0.40639
 Alpha virt. eigenvalues --    0.42638   0.46357   0.46529   0.48050   0.51511

 Mulliken charges:
               1
     1  C    0.010745
     2  C   -0.251960
     3  C    0.339012
     4  H    0.079679
     5  H    0.122353
     6  H    0.061539
     7  O   -0.410127
     8  H    0.048760
 Sum of Mulliken charges =  -0.00000

 Dipole moment (field-independent basis, Debye):
    X=             -2.3431    Y=              2.2470    Z=             -0.0462  Tot=              3.2467
 Quadrupole moment (field-independent basis, Debye-Ang):
   XX=            -23.8849   YY=            -22.2146   ZZ=            -25.0523
   XY=              3.8501   XZ=             -0.0623   YZ=              0.0636

 Normal termination of Gaussian 16 at Fri Sep 22 16:34:44 2023.
