 Gaussian 16, Revision A.03,
 Gaussian 16:  ES64L-G16RevA.03 25-Dec-2016

 ----------------------------------------------------------------------
 #p b3lyp/gen scrf=(cpcm,solvent=toluene) pop=hirshfeld empiricaldisper
 sion=gd3bj
 ----------------------------------------------------------------------

 ------------------------
 tmpdir/M2_conf_0_304.gjf
 ------------------------
 Symbolic Z-matrix:
 Charge =  0 Multiplicity = 1

                         Standard orientation:
 ---------------------------------------------------------------------
 Center     Atomic      Atomic             Coordinates (Angstroms)
 Number     Number       Type             X           Y           Z
 ---------------------------------------------------------------------
      1          6           0       -0.693487    0.513583   -0.000816
      2          6           0        0.728082    0.468083   -0.003579
      3          1           0       -1.202231    1.400826    0.016734
      4          6           0       -1.434164   -0.710701   -0.001113
      5          6           0        1.386059   -0.738337    0.002997
      6          1           0        1.283293    1.403406   -0.001668
 ---------------------------------------------------------------------

 SCF Done:  E(RB3LYP) =  -153.285863276     A.U. after   14 cycles

 The electronic state is 1-A.
 Alpha  occ. eigenvalues --  -10.27946 -10.27028 -10.22545 -10.22324  -0.85693
 Alpha  occ. eigenvalues --   -0.73517  -0.61653  -0.51125  -0.50019  -0.36887
 Alpha  occ. eigenvalues --   -0.33348  -0.31411  -0.25626
 Alpha virt. eigenvalues --   -0.14462  -0.11683  -0.08176   0.04237   0.06067
 Alpha virt. eigenvalues --    0.09941   0.19568   0.26404   0.30417   0.36512
 Alpha virt. eigenvalues --    0.39234   0.43237   0.44320   0.45776   0.46170

 Mulliken charges:
               1
     1  C   -0.132109
     2  C   -0.161511
     3  H    0.122677
     4  C    0.007053
     5  C   -0.000909
     6  H    0.164799
 Sum of Mulliken charges =   0.00000

 Dipole moment (field-independent basis, Debye):
    X=              0.0757    Y=              4.0054    Z=              0.0187  Tot=              4.0062
 Quadrupole moment (field-independent basis, Debye-Ang):
   XX=            -25.6154   YY=            -24.4370   ZZ=            -26.6304
   XY=              0.2117   XZ=             -0.0656   YZ=              0.0417

 Normal termination of Gaussian 16 at Fri Sep 22 16:36:19 2023.
