 Gaussian 16, Revision A.03,
 Gaussian 16:  ES64L-G16RevA.03 25-Dec-2016

 ----------------------------------------------------------------------
 #p b3lyp/gen scrf=(cpcm,solvent=toluene) pop=hirshfeld empiricaldisper
 sion=gd3bj
 ----------------------------------------------------------------------

 ------------------------
 tmpdir/M2_conf_0_389.gjf
 ------------------------
 Symbolic Z-matrix:
 Charge =  0 Multiplicity = 1

                         Standard orientation:
 ---------------------------------------------------------------------
 Center     Atomic      Atomic             Coordinates (Angstroms)
 Number     Number       Type             X           Y           Z
 ---------------------------------------------------------------------
      1          6           0       -0.645572    0.371673   -0.004601
      2          6           0        0.524852   -0.434497   -0.002069
      3          6           0        1.775770    0.140379    0.001711
      4          8           0       -1.792895   -0.127665    0.004183
      5          1           0       -0.544038    1.402039   -0.014159
      6          1           0        0.416502   -1.518496   -0.003840
      7          1           0        1.875567    1.160086    0.017411
      8          1           0        2.664827   -0.487636   -0.003117
 ---------------------------------------------------------------------

 SCF Done:  E(RB3LYP) =  -191.884113287     A.U. after   11 cycles

 The electronic state is 1-A.
 Alpha  occ. eigenvalues --  -19.12160 -10.26425 -10.21554 -10.20397  -1.03659
 Alpha  occ. eigenvalues --   -0.81393  -0.66943  -0.59305  -0.49797  -0.47937
 Alpha  occ. eigenvalues --   -0.42065  -0.40869  -0.40258  -0.29659  -0.26919
 Alpha virt. eigenvalues --   -0.08784   0.03606   0.05937   0.06871   0.10977
 Alpha virt. eigenvalues --    0.13159   0.20830   0.25857   0.28826   0.39619
 Alpha virt. eigenvalues --    0.43511   0.45037   0.46779   0.47449   0.50710

 Mulliken charges:
               1
     1  C    0.314821
     2  C   -0.223189
     3  C   -0.035945
     4  O   -0.410896
     5  H    0.039370
     6  H    0.097974
     7  H    0.091191
     8  H    0.126674
 Sum of Mulliken charges =  -0.00000

 Dipole moment (field-independent basis, Debye):
    X=              4.0343    Y=              0.9698    Z=             -0.0126  Tot=              4.1492
 Quadrupole moment (field-independent basis, Debye-Ang):
   XX=            -27.5752   YY=            -21.4984   ZZ=            -25.0753
   XY=             -1.0233   XZ=              0.0403   YZ=              0.0191

 Normal termination of Gaussian 16 at Fri Sep 22 16:36:45 2023.
