 Gaussian 16, Revision A.03,
 Gaussian 16:  ES64L-G16RevA.03 25-Dec-2016

 ----------------------------------------------------------------------
 #p b3lyp/gen scrf=(cpcm,solvent=toluene) pop=hirshfeld empiricaldisper
 sion=gd3bj
 ----------------------------------------------------------------------

 ------------------------
 tmpdir/M2_conf_0_354.gjf
 ------------------------
 Symbolic Z-matrix:
 Charge =  0 Multiplicity = 1

                         Standard orientation:
 ---------------------------------------------------------------------
 Center     Atomic      Atomic             Coordinates (Angstroms)
 Number     Number       Type             X           Y           Z
 ---------------------------------------------------------------------
      1          6           0        0.238724    0.388031    0.000656
      2          6           0       -1.147852   -0.138548   -0.001175
      3          8           0        1.217154   -0.274785   -0.000493
      4          1           0        0.309884    1.475306    0.001872
      5          1           0       -1.682989    0.198394    0.898506
      6          1           0       -1.704633    0.258046   -0.862477
      7          1           0       -1.204724   -1.230367   -0.030845
 ---------------------------------------------------------------------

 SCF Done:  E(RB3LYP) =  -153.813179135     A.U. after   10 cycles

 The electronic state is 1-A.
 Alpha  occ. eigenvalues --  -19.12692 -10.26842 -10.18283  -1.07620  -0.75977
 Alpha  occ. eigenvalues --   -0.58875  -0.49012  -0.45234  -0.45161  -0.39874
 Alpha  occ. eigenvalues --   -0.37788  -0.26580
 Alpha virt. eigenvalues --   -0.02523   0.05531   0.08266   0.10803   0.11886
 Alpha virt. eigenvalues --    0.21107   0.23411   0.41498   0.42407   0.44185
 Alpha virt. eigenvalues --    0.45948   0.55220   0.58734   0.60800   0.64869

 Mulliken charges:
               1
     1  C    0.177309
     2  C   -0.232135
     3  O   -0.334500
     4  H    0.043436
     5  H    0.121418
     6  H    0.119997
     7  H    0.104475
 Sum of Mulliken charges =   0.00000

 Dipole moment (field-independent basis, Debye):
    X=             -2.7526    Y=              1.3041    Z=              0.0152  Tot=              3.0459
 Quadrupole moment (field-independent basis, Debye-Ang):
   XX=            -21.1100   YY=            -18.1689   ZZ=            -17.8371
   XY=              0.9678   XZ=             -0.0165   YZ=             -0.0135

 Normal termination of Gaussian 16 at Fri Sep 22 16:36:22 2023.
