 Gaussian 16, Revision A.03,
 Gaussian 16:  ES64L-G16RevA.03 25-Dec-2016

 ----------------------------------------------------------------------
 #p b3lyp/gen scrf=(cpcm,solvent=toluene) pop=hirshfeld empiricaldisper
 sion=gd3bj
 ----------------------------------------------------------------------

 ------------------------
 tmpdir/M2_conf_0_312.gjf
 ------------------------
 Symbolic Z-matrix:
 Charge =  0 Multiplicity = 1

                         Standard orientation:
 ---------------------------------------------------------------------
 Center     Atomic      Atomic             Coordinates (Angstroms)
 Number     Number       Type             X           Y           Z
 ---------------------------------------------------------------------
      1          6           0       -0.688670   -0.007142   -0.003614
      2          6           0        0.687221   -0.007862    0.001470
      3          1           0        1.233984    0.932071   -0.013873
      4          1           0       -1.216381   -0.891688   -0.005138
      5          1           0       -1.225405    0.938724    0.020028
      6          1           0        1.216495   -0.889084    0.011852
 ---------------------------------------------------------------------

 SCF Done:  E(RB3LYP) =  -78.5749386065     A.U. after    9 cycles

 The electronic state is 1-A.
 Alpha  occ. eigenvalues --  -10.18054 -10.17982  -0.76110  -0.59400  -0.47940
 Alpha  occ. eigenvalues --   -0.41802  -0.37351  -0.27419
 Alpha virt. eigenvalues --   -0.01171   0.06584   0.09587   0.09995   0.16160
 Alpha virt. eigenvalues --    0.27683   0.35757   0.41970   0.43561   0.51269
 Alpha virt. eigenvalues --    0.51674   0.55109   0.63550   0.65460   0.70571

 Mulliken charges:
               1
     1  C   -0.185512
     2  C   -0.186962
     3  H    0.102179
     4  H    0.084418
     5  H    0.102594
     6  H    0.083284
 Sum of Mulliken charges =  -0.00000

 Dipole moment (field-independent basis, Debye):
    X=              0.0049    Y=             -0.0231    Z=              0.0139  Tot=              0.0274
 Quadrupole moment (field-independent basis, Debye-Ang):
   XX=            -12.3714   YY=            -12.3101   ZZ=            -15.6587
   XY=              0.0066   XZ=             -0.0226   YZ=              0.0001

 Normal termination of Gaussian 16 at Fri Sep 22 16:36:42 2023.
