 Gaussian 16, Revision A.03,
 Gaussian 16:  ES64L-G16RevA.03 25-Dec-2016

 ----------------------------------------------------------------------
 #p b3lyp/gen scrf=(cpcm,solvent=toluene) pop=hirshfeld empiricaldisper
 sion=gd3bj
 ----------------------------------------------------------------------

 ------------------------
 tmpdir/M2_conf_0_109.gjf
 ------------------------
 Symbolic Z-matrix:
 Charge =  0 Multiplicity = 1

                         Standard orientation:
 ---------------------------------------------------------------------
 Center     Atomic      Atomic             Coordinates (Angstroms)
 Number     Number       Type             X           Y           Z
 ---------------------------------------------------------------------
      1          1           0        1.095799    0.141869    1.030078
      2          6           0        0.780437   -0.008994   -0.003396
      3          6           0       -0.784232   -0.000173   -0.008516
      4          1           0        1.203721    0.850686   -0.611298
      5          1           0        1.195213   -0.962878   -0.382803
      6          1           0       -1.145241   -0.801660    0.673190
      7          1           0       -1.212732   -0.160567   -1.023007
      8          1           0       -1.113992    0.987550    0.385308
 ---------------------------------------------------------------------

 SCF Done:  E(RB3LYP) =  -79.8194852412     A.U. after    8 cycles

 The electronic state is 1-A.
 Alpha  occ. eigenvalues --  -10.17256 -10.17148  -0.74613  -0.61079  -0.43518
 Alpha  occ. eigenvalues --   -0.43063  -0.35922  -0.34825  -0.34387
 Alpha virt. eigenvalues --    0.04797   0.08944   0.10417   0.10644   0.13357
 Alpha virt. eigenvalues --    0.13591   0.20167   0.37812   0.38818   0.39416
 Alpha virt. eigenvalues --    0.46567   0.47022   0.56303   0.62782   0.63730

 Mulliken charges:
               1
     1  H    0.086574
     2  C   -0.273136
     3  C   -0.271987
     4  H    0.091154
     5  H    0.092554
     6  H    0.090708
     7  H    0.093702
     8  H    0.090430
 Sum of Mulliken charges =  -0.00000

 Dipole moment (field-independent basis, Debye):
    X=              0.0038    Y=              0.0022    Z=              0.0622  Tot=              0.0623
 Quadrupole moment (field-independent basis, Debye-Ang):
   XX=            -16.1106   YY=            -15.0052   ZZ=            -15.0682
   XY=              0.0217   XZ=              0.0205   YZ=              0.0422

 Normal termination of Gaussian 16 at Fri Sep 22 16:33:36 2023.
