 Gaussian 16, Revision A.03,
 Gaussian 16:  ES64L-G16RevA.03 25-Dec-2016

 ----------------------------------------------------------------------
 #p b3lyp/gen scrf=(cpcm,solvent=toluene) pop=hirshfeld empiricaldisper
 sion=gd3bj
 ----------------------------------------------------------------------

 ------------------------
 tmpdir/M2_conf_0_317.gjf
 ------------------------
 Symbolic Z-matrix:
 Charge =  0 Multiplicity = 1

                         Standard orientation:
 ---------------------------------------------------------------------
 Center     Atomic      Atomic             Coordinates (Angstroms)
 Number     Number       Type             X           Y           Z
 ---------------------------------------------------------------------
      1          6           0       -0.694951    0.530245   -0.000911
      2          6           0        0.726211    0.491229   -0.003605
      3          1           0        1.275359    1.430128   -0.001813
      4          1           0       -1.207726    1.415167    0.016477
      5          8           0       -1.343018   -0.552059   -0.000839
      6          8           0        1.311118   -0.569708    0.002393
 ---------------------------------------------------------------------

 SCF Done:  E(RB3LYP) =  -227.771995513     A.U. after   11 cycles

 The electronic state is 1-A.
 Alpha  occ. eigenvalues --  -19.16199 -19.16173 -10.28948 -10.28694  -1.09942
 Alpha  occ. eigenvalues --   -1.05466  -0.75655  -0.59064  -0.56029  -0.48167
 Alpha  occ. eigenvalues --   -0.45730  -0.45541  -0.38523  -0.31610  -0.28819
 Alpha virt. eigenvalues --   -0.13989   0.02065   0.05998   0.09559   0.14620
 Alpha virt. eigenvalues --    0.25880   0.31537   0.38130   0.39534   0.44770
 Alpha virt. eigenvalues --    0.49759   0.56504   0.57467   0.62301   0.67097

 Mulliken charges:
               1
     1  C    0.273762
     2  C    0.234672
     3  H    0.069867
     4  H    0.057408
     5  O   -0.337270
     6  O   -0.298440
 Sum of Mulliken charges =  -0.00000

 Dipole moment (field-independent basis, Debye):
    X=              0.1383    Y=              4.3676    Z=             -0.0024  Tot=              4.3698
 Quadrupole moment (field-independent basis, Debye-Ang):
   XX=            -26.6287   YY=            -21.4984   ZZ=            -21.2149
   XY=             -0.1377   XZ=             -0.0197   YZ=              0.0061

 Normal termination of Gaussian 16 at Fri Sep 22 16:35:57 2023.
