 Gaussian 16, Revision A.03,
 Gaussian 16:  ES64L-G16RevA.03 25-Dec-2016

 ----------------------------------------------------------------------
 #p b3lyp/gen scrf=(cpcm,solvent=toluene) pop=hirshfeld empiricaldisper
 sion=gd3bj
 ----------------------------------------------------------------------

 ------------------------
 tmpdir/M2_conf_0_159.gjf
 ------------------------
 Symbolic Z-matrix:
 Charge =  0 Multiplicity = 1

                         Standard orientation:
 ---------------------------------------------------------------------
 Center     Atomic      Atomic             Coordinates (Angstroms)
 Number     Number       Type             X           Y           Z
 ---------------------------------------------------------------------
      1          7           0        1.230521   -0.281721    0.000136
      2          6           0        0.016308    0.592299    0.079999
      3          6           0       -1.244311   -0.269981   -0.040967
      4          1           0        1.424437   -0.889745    0.681266
      5          1           0        1.817256   -0.072802   -0.824365
      6          1           0        0.135917    1.242569   -0.832800
      7          1           0        0.046214    1.206618    1.000659
      8          1           0       -1.398734   -0.880243    0.852799
      9          1           0       -2.125065    0.361610   -0.201982
     10          1           0       -1.145648   -0.929870   -0.910720
 ---------------------------------------------------------------------

 SCF Done:  E(RB3LYP) =  -135.140918982     A.U. after   10 cycles

 The electronic state is 1-A.
 Alpha  occ. eigenvalues --  -14.27321 -10.20138 -10.15903  -0.86172  -0.72495
 Alpha  occ. eigenvalues --   -0.60340  -0.51117  -0.44134  -0.42704  -0.37903
 Alpha  occ. eigenvalues --   -0.35955  -0.34400  -0.21270
 Alpha virt. eigenvalues --    0.04419   0.07857   0.09106   0.09707   0.12510
 Alpha virt. eigenvalues --    0.13954   0.15438   0.20358   0.21789   0.39200
 Alpha virt. eigenvalues --    0.40036   0.45085   0.45812   0.53254   0.53936

 Mulliken charges:
               1
     1  N   -0.486042
     2  C   -0.038989
     3  C   -0.191990
     4  H    0.131327
     5  H    0.180196
     6  H    0.085460
     7  H    0.088191
     8  H    0.083586
     9  H    0.073538
    10  H    0.074724
 Sum of Mulliken charges =  -0.00000

 Dipole moment (field-independent basis, Debye):
    X=              0.2248    Y=              0.1575    Z=             -0.1009  Tot=              0.2925
 Quadrupole moment (field-independent basis, Debye-Ang):
   XX=            -20.9656   YY=            -21.2667   ZZ=            -19.5080
   XY=             -0.7913   XZ=             -0.9408   YZ=             -1.4055

 Normal termination of Gaussian 16 at Fri Sep 22 16:34:58 2023.
