 Gaussian 16, Revision A.03,
 Gaussian 16:  ES64L-G16RevA.03 25-Dec-2016

 ----------------------------------------------------------------------
 #p b3lyp/gen scrf=(cpcm,solvent=toluene) pop=hirshfeld empiricaldisper
 sion=gd3bj
 ----------------------------------------------------------------------

 -----------------------
 tmpdir/M2_conf_0_47.gjf
 -----------------------
 Symbolic Z-matrix:
 Charge =  0 Multiplicity = 1

                         Standard orientation:
 ---------------------------------------------------------------------
 Center     Atomic      Atomic             Coordinates (Angstroms)
 Number     Number       Type             X           Y           Z
 ---------------------------------------------------------------------
      1          7           0       -0.004395    0.011226   -0.005775
      2          1           0        0.642046   -0.788391    0.012420
      3          1           0        0.388074    0.876353    0.014296
      4          1           0       -0.999353   -0.166547    0.013709
 ---------------------------------------------------------------------

 SCF Done:  E(RB3LYP) =  -56.5367312247     A.U. after    8 cycles

 The electronic state is 1-A.
 Alpha  occ. eigenvalues --  -14.27456  -0.83185  -0.48783  -0.46358  -0.23163
 Alpha virt. eigenvalues --    0.05121   0.12357   0.13111   0.52029   0.54853
 Alpha virt. eigenvalues --    0.59965   0.66065   0.76429   0.77569   1.07626
 Alpha virt. eigenvalues --    1.48190   1.49905   1.85313   1.96450   2.01706

 Mulliken charges:
               1
     1  N   -0.502258
     2  H    0.174936
     3  H    0.149087
     4  H    0.178236
 Sum of Mulliken charges =  -0.00000

 Dipole moment (field-independent basis, Debye):
    X=              0.0295    Y=             -0.0973    Z=              0.1096  Tot=              0.1495
 Quadrupole moment (field-independent basis, Debye-Ang):
   XX=             -5.5167   YY=             -5.7874   ZZ=             -9.3393
   XY=              0.0579   XZ=             -0.0004   YZ=              0.0042

 Normal termination of Gaussian 16 at Fri Sep 22 16:32:41 2023.
