 Gaussian 16, Revision A.03,
 Gaussian 16:  ES64L-G16RevA.03 25-Dec-2016

 ----------------------------------------------------------------------
 #p b3lyp/gen scrf=(cpcm,solvent=toluene) pop=hirshfeld empiricaldisper
 sion=gd3bj
 ----------------------------------------------------------------------

 ------------------------
 tmpdir/M2_conf_0_353.gjf
 ------------------------
 Symbolic Z-matrix:
 Charge =  0 Multiplicity = 1

                         Standard orientation:
 ---------------------------------------------------------------------
 Center     Atomic      Atomic             Coordinates (Angstroms)
 Number     Number       Type             X           Y           Z
 ---------------------------------------------------------------------
      1          1           0       -1.136299    0.972808    0.002050
      2          6           0       -0.670588   -0.014230   -0.002958
      3          6           0        0.669906   -0.013337    0.000058
      4          1           0       -1.376417   -0.830357    0.010943
      5          1           0        1.296652   -0.904154   -0.001508
      6          1           0        1.220156    0.927100    0.005911
 ---------------------------------------------------------------------

 SCF Done:  E(RB3LYP) =  -78.5798265117     A.U. after    9 cycles

 The electronic state is 1-A.
 Alpha  occ. eigenvalues --  -10.18336 -10.18201  -0.76451  -0.58710  -0.46908
 Alpha  occ. eigenvalues --   -0.43026  -0.35606  -0.28038
 Alpha virt. eigenvalues --   -0.00513   0.06455   0.08862   0.09326   0.16237
 Alpha virt. eigenvalues --    0.28819   0.35257   0.40701   0.43006   0.51392
 Alpha virt. eigenvalues --    0.51500   0.54576   0.61751   0.64741   0.71353

 Mulliken charges:
               1
     1  H    0.095158
     2  C   -0.198261
     3  C   -0.201434
     4  H    0.102519
     5  H    0.100902
     6  H    0.101117
 Sum of Mulliken charges =   0.00000

 Dipole moment (field-independent basis, Debye):
    X=             -0.0147    Y=              0.0425    Z=              0.0184  Tot=              0.0486
 Quadrupole moment (field-independent basis, Debye-Ang):
   XX=            -12.0902   YY=            -12.6057   ZZ=            -15.6658
   XY=              0.1800   XZ=             -0.0142   YZ=              0.0006

 Normal termination of Gaussian 16 at Fri Sep 22 16:36:14 2023.
