 Gaussian 16, Revision A.03,
 Gaussian 16:  ES64L-G16RevA.03 25-Dec-2016

 ----------------------------------------------------------------------
 #p b3lyp/gen scrf=(cpcm,solvent=toluene) pop=hirshfeld empiricaldisper
 sion=gd3bj
 ----------------------------------------------------------------------

 -----------------------
 tmpdir/M2_conf_0_15.gjf
 -----------------------
 Symbolic Z-matrix:
 Charge =  0 Multiplicity = 1

                         Standard orientation:
 ---------------------------------------------------------------------
 Center     Atomic      Atomic             Coordinates (Angstroms)
 Number     Number       Type             X           Y           Z
 ---------------------------------------------------------------------
      1          6           0        0.696606   -0.007395   -0.000610
      2          6           0       -0.694394   -0.008769   -0.000612
      3          1           0       -1.265655    0.913424    0.001810
      4          1           0        1.225510   -0.872293    0.001950
      5          1           0        1.221104    0.946520    0.001723
      6          1           0       -1.194233   -0.890663    0.001844
 ---------------------------------------------------------------------

 SCF Done:  E(RB3LYP) =  -78.5701319960     A.U. after    9 cycles

 The electronic state is 1-A.
 Alpha  occ. eigenvalues --  -10.18118 -10.18039  -0.75933  -0.59822  -0.47993
 Alpha  occ. eigenvalues --   -0.41736  -0.37672  -0.27210
 Alpha virt. eigenvalues --   -0.01488   0.06645   0.09779   0.10054   0.16134
 Alpha virt. eigenvalues --    0.27370   0.36018   0.41737   0.43738   0.51123
 Alpha virt. eigenvalues --    0.52258   0.54756   0.64124   0.65555   0.70549

 Mulliken charges:
               1
     1  C   -0.180978
     2  C   -0.183345
     3  H    0.103596
     4  H    0.079327
     5  H    0.103205
     6  H    0.078196
 Sum of Mulliken charges =   0.00000

 Dipole moment (field-independent basis, Debye):
    X=             -0.0103    Y=             -0.0293    Z=              0.0079  Tot=              0.0320
 Quadrupole moment (field-independent basis, Debye-Ang):
   XX=            -12.3060   YY=            -12.3242   ZZ=            -15.6708
   XY=             -0.0824   XZ=              0.0000   YZ=             -0.0001

 Normal termination of Gaussian 16 at Fri Sep 22 16:33:20 2023.
