 Gaussian 16, Revision A.03,
 Gaussian 16:  ES64L-G16RevA.03 25-Dec-2016

 ----------------------------------------------------------------------
 #p b3lyp/gen scrf=(cpcm,solvent=toluene) pop=hirshfeld empiricaldisper
 sion=gd3bj
 ----------------------------------------------------------------------

 ------------------------
 tmpdir/M2_conf_0_142.gjf
 ------------------------
 Symbolic Z-matrix:
 Charge =  0 Multiplicity = 1

                         Standard orientation:
 ---------------------------------------------------------------------
 Center     Atomic      Atomic             Coordinates (Angstroms)
 Number     Number       Type             X           Y           Z
 ---------------------------------------------------------------------
      1          1           0        0.449322    0.975042    0.218473
      2          6           0       -0.005274    0.004155   -0.005060
      3          1           0        0.074165   -0.631233    0.887019
      4          1           0       -1.078871    0.104869   -0.280343
      5          1           0        0.587026   -0.473609   -0.794793
 ---------------------------------------------------------------------

 SCF Done:  E(RB3LYP) =  -40.5135647714     A.U. after    7 cycles

 The electronic state is 1-A.
 Alpha  occ. eigenvalues --  -10.16444  -0.69251  -0.39720  -0.39170  -0.38733
 Alpha virt. eigenvalues --    0.05623   0.12335   0.12554   0.12590   0.37017
 Alpha virt. eigenvalues --    0.37460   0.38548   0.63066   0.63688   0.63829
 Alpha virt. eigenvalues --    0.67413   0.96081   1.28588   1.29377   1.83979

 Mulliken charges:
               1
     1  H    0.088190
     2  C   -0.355592
     3  H    0.084673
     4  H    0.095103
     5  H    0.087625
 Sum of Mulliken charges =  -0.00000

 Dipole moment (field-independent basis, Debye):
    X=              0.0376    Y=             -0.0175    Z=              0.0254  Tot=              0.0486
 Quadrupole moment (field-independent basis, Debye-Ang):
   XX=             -8.3146   YY=             -8.5015   ZZ=             -8.5760
   XY=              0.0051   XZ=             -0.0047   YZ=              0.0104

 Normal termination of Gaussian 16 at Fri Sep 22 16:34:09 2023.
