 Gaussian 16, Revision A.03,
 Gaussian 16:  ES64L-G16RevA.03 25-Dec-2016

 ----------------------------------------------------------------------
 #p b3lyp/gen scrf=(cpcm,solvent=toluene) pop=hirshfeld empiricaldisper
 sion=gd3bj
 ----------------------------------------------------------------------

 -----------------------
 tmpdir/M2_conf_0_39.gjf
 -----------------------
 Symbolic Z-matrix:
 Charge =  0 Multiplicity = 1

                         Standard orientation:
 ---------------------------------------------------------------------
 Center     Atomic      Atomic             Coordinates (Angstroms)
 Number     Number       Type             X           Y           Z
 ---------------------------------------------------------------------
      1          1           0        1.669086    0.161233    0.932879
      2          6           0        1.162040   -0.145299    0.006325
      3          6           0       -0.236669    0.370229    0.013170
      4          1           0        1.718410    0.372339   -0.903185
      5          1           0        1.237072   -1.233415   -0.092832
      6          1           0       -0.306071    1.459402    0.019410
      7          8           0       -1.233840   -0.263643   -0.009156
 ---------------------------------------------------------------------

 SCF Done:  E(RB3LYP) =  -153.809281684     A.U. after   10 cycles

 The electronic state is 1-A.
 Alpha  occ. eigenvalues --  -19.12750 -10.26909 -10.19301  -1.07626  -0.75648
 Alpha  occ. eigenvalues --   -0.58548  -0.48653  -0.45282  -0.44862  -0.39821
 Alpha  occ. eigenvalues --   -0.37624  -0.26535
 Alpha virt. eigenvalues --   -0.02537   0.04786   0.08238   0.10030   0.11749
 Alpha virt. eigenvalues --    0.21381   0.22635   0.41363   0.42506   0.44297
 Alpha virt. eigenvalues --    0.45772   0.54674   0.56302   0.59288   0.63226

 Mulliken charges:
               1
     1  H    0.127175
     2  C   -0.254035
     3  C    0.179233
     4  H    0.130560
     5  H    0.108596
     6  H    0.041510
     7  O   -0.333038
 Sum of Mulliken charges =  -0.00000

 Dipole moment (field-independent basis, Debye):
    X=              2.7659    Y=              1.2207    Z=              0.0824  Tot=              3.0244
 Quadrupole moment (field-independent basis, Debye-Ang):
   XX=            -21.3718   YY=            -18.2682   ZZ=            -17.8312
   XY=             -0.9300   XZ=              0.0314   YZ=             -0.0688

 Normal termination of Gaussian 16 at Fri Sep 22 16:32:55 2023.
