 Gaussian 16, Revision A.03,
 Gaussian 16:  ES64L-G16RevA.03 25-Dec-2016

 ----------------------------------------------------------------------
 #p b3lyp/gen scrf=(cpcm,solvent=toluene) pop=hirshfeld empiricaldisper
 sion=gd3bj
 ----------------------------------------------------------------------

 ------------------------
 tmpdir/M2_conf_0_301.gjf
 ------------------------
 Symbolic Z-matrix:
 Charge =  0 Multiplicity = 1

                         Standard orientation:
 ---------------------------------------------------------------------
 Center     Atomic      Atomic             Coordinates (Angstroms)
 Number     Number       Type             X           Y           Z
 ---------------------------------------------------------------------
      1          6           0       -0.818411    0.482069   -0.008764
      2          6           0        0.596094    0.636402   -0.008620
      3          6           0        1.425971   -0.460946    0.006361
      4          1           0       -1.501668    1.299472    0.066358
      5          8           0       -1.287023   -0.641836   -0.002620
      6          1           0        1.027655    1.634835    0.005576
      7          1           0        1.042834   -1.414676    0.025758
      8          1           0        2.505439   -0.330095   -0.010595
 ---------------------------------------------------------------------

 SCF Done:  E(RB3LYP) =  -191.881701360     A.U. after   11 cycles

 The electronic state is 1-A.
 Alpha  occ. eigenvalues --  -19.11816 -10.26310 -10.20742 -10.19715  -1.05557
 Alpha  occ. eigenvalues --   -0.79954  -0.67459  -0.56045  -0.52488  -0.45832
 Alpha  occ. eigenvalues --   -0.43142  -0.41085  -0.39502  -0.28856  -0.26817
 Alpha virt. eigenvalues --   -0.08859   0.05222   0.05739   0.08272   0.10641
 Alpha virt. eigenvalues --    0.13335   0.21957   0.25399   0.28681   0.40180
 Alpha virt. eigenvalues --    0.41152   0.45611   0.46346   0.48128   0.51737

 Mulliken charges:
               1
     1  C    0.309885
     2  C   -0.270612
     3  C   -0.010128
     4  H    0.052247
     5  O   -0.379752
     6  H    0.087617
     7  H    0.090656
     8  H    0.120087
 Sum of Mulliken charges =  -0.00000

 Dipole moment (field-independent basis, Debye):
    X=              2.2269    Y=              2.0454    Z=              0.0424  Tot=              3.0240
 Quadrupole moment (field-independent basis, Debye-Ang):
   XX=            -23.6477   YY=            -22.5995   ZZ=            -24.9954
   XY=             -3.6199   XZ=             -0.0273   YZ=              0.0060

 Normal termination of Gaussian 16 at Fri Sep 22 16:35:54 2023.
