 Gaussian 16, Revision A.03,
 Gaussian 16:  ES64L-G16RevA.03 25-Dec-2016

 ----------------------------------------------------------------------
 #p b3lyp/gen scrf=(cpcm,solvent=toluene) pop=hirshfeld empiricaldisper
 sion=gd3bj
 ----------------------------------------------------------------------

 ------------------------
 tmpdir/M2_conf_0_392.gjf
 ------------------------
 Symbolic Z-matrix:
 Charge =  0 Multiplicity = 1

                         Standard orientation:
 ---------------------------------------------------------------------
 Center     Atomic      Atomic             Coordinates (Angstroms)
 Number     Number       Type             X           Y           Z
 ---------------------------------------------------------------------
      1          6           0       -0.540362   -0.011430   -0.001193
      2          1           0       -1.099600    0.922418    0.002414
      3          1           0       -1.043908   -0.903865    0.002569
      4          8           0        0.673210    0.006254    0.000272
 ---------------------------------------------------------------------

 SCF Done:  E(RB3LYP) =  -114.483498270     A.U. after    9 cycles

 The electronic state is 1-A.
 Alpha  occ. eigenvalues --  -19.13875 -10.27051  -1.06428  -0.65024  -0.51204
 Alpha  occ. eigenvalues --   -0.45458  -0.40311  -0.27430
 Alpha virt. eigenvalues --   -0.05281   0.06554   0.11886   0.18143   0.40323
 Alpha virt. eigenvalues --    0.47596   0.52774   0.60910   0.62557   0.72773
 Alpha virt. eigenvalues --    0.78064   0.87668   0.98017   1.32103   1.50571

 Mulliken charges:
               1
     1  C    0.221663
     2  H    0.077327
     3  H    0.065413
     4  O   -0.364403
 Sum of Mulliken charges =  -0.00000

 Dipole moment (field-independent basis, Debye):
    X=             -2.7519    Y=             -0.0917    Z=              0.0005  Tot=              2.7534
 Quadrupole moment (field-independent basis, Debye-Ang):
   XX=            -12.0592   YY=            -11.4830   ZZ=            -11.5044
   XY=              0.0440   XZ=             -0.0024   YZ=              0.0001

 Normal termination of Gaussian 16 at Fri Sep 22 16:37:03 2023.
