 Gaussian 16, Revision A.03,
 Gaussian 16:  ES64L-G16RevA.03 25-Dec-2016

 ----------------------------------------------------------------------
 #p b3lyp/gen scrf=(cpcm,solvent=toluene) pop=hirshfeld empiricaldisper
 sion=gd3bj
 ----------------------------------------------------------------------

 ----------------------
 tmpdir/M2_conf_0_8.gjf
 ----------------------
 Symbolic Z-matrix:
 Charge =  0 Multiplicity = 1

                         Standard orientation:
 ---------------------------------------------------------------------
 Center     Atomic      Atomic             Coordinates (Angstroms)
 Number     Number       Type             X           Y           Z
 ---------------------------------------------------------------------
      1          6           0       -1.441966   -0.476053   -0.006725
      2          6           0       -0.574597    0.651016   -0.000549
      3          6           0        0.815542    0.481788   -0.001804
      4          1           0       -1.044824   -1.414565   -0.000809
      5          1           0       -2.465046   -0.301839    0.028270
      6          1           0       -1.065149    1.633199    0.007173
      7          8           0        1.287983   -0.649834    0.002686
      8          1           0        1.477282    1.341375   -0.001653
 ---------------------------------------------------------------------

 SCF Done:  E(RB3LYP) =  -191.874061422     A.U. after   11 cycles

 The electronic state is 1-A.
 Alpha  occ. eigenvalues --  -19.11821 -10.26391 -10.21015 -10.20116  -1.05050
 Alpha  occ. eigenvalues --   -0.79702  -0.68140  -0.55810  -0.52693  -0.45665
 Alpha  occ. eigenvalues --   -0.43198  -0.40915  -0.39762  -0.28353  -0.26920
 Alpha virt. eigenvalues --   -0.09599   0.05076   0.05803   0.08324   0.10653
 Alpha virt. eigenvalues --    0.13575   0.21329   0.24505   0.29550   0.40282
 Alpha virt. eigenvalues --    0.41391   0.45686   0.46279   0.47364   0.51477

 Mulliken charges:
               1
     1  C    0.019238
     2  C   -0.294769
     3  C    0.315445
     4  H    0.090700
     5  H    0.105667
     6  H    0.093340
     7  O   -0.388320
     8  H    0.058700
 Sum of Mulliken charges =  -0.00000

 Dipole moment (field-independent basis, Debye):
    X=             -2.4352    Y=              2.0372    Z=              0.0205  Tot=              3.1750
 Quadrupole moment (field-independent basis, Debye-Ang):
   XX=            -23.6286   YY=            -22.6153   ZZ=            -25.0634
   XY=              3.4919   XZ=             -0.0821   YZ=              0.0082

 Normal termination of Gaussian 16 at Fri Sep 22 16:34:05 2023.
