 Gaussian 16, Revision A.03,
 Gaussian 16:  ES64L-G16RevA.03 25-Dec-2016

 ----------------------------------------------------------------------
 #p b3lyp/gen scrf=(cpcm,solvent=toluene) pop=hirshfeld empiricaldisper
 sion=gd3bj
 ----------------------------------------------------------------------

 ------------------------
 tmpdir/M2_conf_0_152.gjf
 ------------------------
 Symbolic Z-matrix:
 Charge =  0 Multiplicity = 1

                         Standard orientation:
 ---------------------------------------------------------------------
 Center     Atomic      Atomic             Coordinates (Angstroms)
 Number     Number       Type             X           Y           Z
 ---------------------------------------------------------------------
      1          6           0       -0.779352   -0.023400   -0.001326
      2          6           0        0.776622   -0.004549   -0.007601
      3          1           0       -1.037224    1.123609    0.066506
      4          1           0       -1.156061   -0.540789    0.904494
      5          1           0       -1.165989   -0.447815   -0.948046
      6          1           0        1.061540    1.008462   -0.348006
      7          1           0        1.138773   -0.170095    1.015541
      8          1           0        1.175341   -0.805678   -0.636928
 ---------------------------------------------------------------------

 SCF Done:  E(RB3LYP) =  -79.8103083664     A.U. after    9 cycles

 The electronic state is 1-A.
 Alpha  occ. eigenvalues --  -10.17510 -10.16601  -0.74917  -0.60464  -0.43976
 Alpha  occ. eigenvalues --   -0.43853  -0.35330  -0.34707  -0.33662
 Alpha virt. eigenvalues --    0.04388   0.08615   0.09337   0.09418   0.15566
 Alpha virt. eigenvalues --    0.16036   0.20154   0.37174   0.38560   0.39729
 Alpha virt. eigenvalues --    0.47936   0.51113   0.57036   0.60114   0.63123

 Mulliken charges:
               1
     1  C   -0.290659
     2  C   -0.259198
     3  H    0.088681
     4  H    0.096288
     5  H    0.097112
     6  H    0.091861
     7  H    0.086165
     8  H    0.089750
 Sum of Mulliken charges =  -0.00000

 Dipole moment (field-independent basis, Debye):
    X=              0.0616    Y=             -0.0340    Z=              0.0240  Tot=              0.0744
 Quadrupole moment (field-independent basis, Debye-Ang):
   XX=            -16.6781   YY=            -14.8920   ZZ=            -14.9173
   XY=              0.0807   XZ=              0.0723   YZ=             -0.0034

 Normal termination of Gaussian 16 at Fri Sep 22 16:34:18 2023.
