 Gaussian 16, Revision A.03,
 Gaussian 16:  ES64L-G16RevA.03 25-Dec-2016

 ----------------------------------------------------------------------
 #p b3lyp/gen scrf=(cpcm,solvent=toluene) pop=hirshfeld empiricaldisper
 sion=gd3bj
 ----------------------------------------------------------------------

 ------------------------
 tmpdir/M2_conf_0_227.gjf
 ------------------------
 Symbolic Z-matrix:
 Charge =  0 Multiplicity = 1

                         Standard orientation:
 ---------------------------------------------------------------------
 Center     Atomic      Atomic             Coordinates (Angstroms)
 Number     Number       Type             X           Y           Z
 ---------------------------------------------------------------------
      1          6           0       -0.818717    0.497694    0.012249
      2          6           0        0.600741    0.672209   -0.014704
      3          6           0        1.423567   -0.486801    0.003220
      4          8           0       -1.290868   -0.660930   -0.008234
      5          1           0       -1.421911    1.330341    0.048125
      6          1           0        0.985447    1.624823   -0.031363
      7          1           0        1.023817   -1.397515    0.007825
      8          1           0        2.506044   -0.368822    0.036694
 ---------------------------------------------------------------------

 SCF Done:  E(RB3LYP) =  -191.867338385     A.U. after   11 cycles

 The electronic state is 1-A.
 Alpha  occ. eigenvalues --  -19.11815 -10.26268 -10.21244 -10.19801  -1.03594
 Alpha  occ. eigenvalues --   -0.79593  -0.68313  -0.57091  -0.52431  -0.45856
 Alpha  occ. eigenvalues --   -0.42446  -0.40628  -0.39998  -0.28238  -0.26871
 Alpha virt. eigenvalues --   -0.09653   0.04143   0.06221   0.08330   0.11303
 Alpha virt. eigenvalues --    0.13373   0.21330   0.24730   0.27986   0.40646
 Alpha virt. eigenvalues --    0.42815   0.46253   0.46364   0.48045   0.51411

 Mulliken charges:
               1
     1  C    0.335935
     2  C   -0.248270
     3  C    0.009592
     4  O   -0.409486
     5  H    0.048010
     6  H    0.061193
     7  H    0.078915
     8  H    0.124112
 Sum of Mulliken charges =  -0.00000

 Dipole moment (field-independent basis, Debye):
    X=              2.3800    Y=              2.2178    Z=              0.0737  Tot=              3.2540
 Quadrupole moment (field-independent basis, Debye-Ang):
   XX=            -23.8972   YY=            -22.2201   ZZ=            -25.0514
   XY=             -3.8642   XZ=              0.0106   YZ=             -0.0431

 Normal termination of Gaussian 16 at Fri Sep 22 16:34:41 2023.
