 Gaussian 16, Revision A.03,
 Gaussian 16:  ES64L-G16RevA.03 25-Dec-2016

 ----------------------------------------------------------------------
 #p b3lyp/gen scrf=(cpcm,solvent=toluene) pop=hirshfeld empiricaldisper
 sion=gd3bj
 ----------------------------------------------------------------------

 ------------------------
 tmpdir/M2_conf_0_339.gjf
 ------------------------
 Symbolic Z-matrix:
 Charge =  0 Multiplicity = 1

                         Standard orientation:
 ---------------------------------------------------------------------
 Center     Atomic      Atomic             Coordinates (Angstroms)
 Number     Number       Type             X           Y           Z
 ---------------------------------------------------------------------
      1          6           0        1.282309   -0.259653    0.022083
      2          6           0       -0.025368    0.558613   -0.065979
      3          7           0       -1.246905   -0.260539    0.029999
      4          1           0        1.443351   -0.625230    1.093749
      5          1           0        2.171940    0.355010   -0.254800
      6          1           0        1.229019   -1.138905   -0.620261
      7          1           0       -0.102342    1.209260   -0.968175
      8          1           0       -0.030570    1.203018    0.818695
      9          1           0       -1.996039   -0.027191    0.597584
     10          1           0       -1.528666   -0.945952   -0.613411
 ---------------------------------------------------------------------

 SCF Done:  E(RB3LYP) =  -135.145987912     A.U. after   10 cycles

 The electronic state is 1-A.
 Alpha  occ. eigenvalues --  -14.27304 -10.20310 -10.16890  -0.86603  -0.72779
 Alpha  occ. eigenvalues --   -0.60826  -0.49233  -0.45381  -0.42657  -0.38315
 Alpha  occ. eigenvalues --   -0.36433  -0.33861  -0.21431
 Alpha virt. eigenvalues --    0.04889   0.08017   0.08899   0.09262   0.12018
 Alpha virt. eigenvalues --    0.13523   0.15827   0.20351   0.22669   0.38664
 Alpha virt. eigenvalues --    0.41198   0.43857   0.46573   0.51192   0.57149

 Mulliken charges:
               1
     1  C   -0.220710
     2  C    0.004168
     3  N   -0.489571
     4  H    0.085381
     5  H    0.083193
     6  H    0.084092
     7  H    0.082282
     8  H    0.086963
     9  H    0.140160
    10  H    0.144042
 Sum of Mulliken charges =  -0.00000

 Dipole moment (field-independent basis, Debye):
    X=             -0.4444    Y=              0.2193    Z=             -0.1486  Tot=              0.5174
 Quadrupole moment (field-independent basis, Debye-Ang):
   XX=            -19.3147   YY=            -21.0589   ZZ=            -20.5914
   XY=              0.8322   XZ=             -0.2525   YZ=              1.5175

 Normal termination of Gaussian 16 at Fri Sep 22 16:36:48 2023.
