 Gaussian 16, Revision A.03,
 Gaussian 16:  ES64L-G16RevA.03 25-Dec-2016

 ----------------------------------------------------------------------
 #p b3lyp/gen scrf=(cpcm,solvent=toluene) pop=hirshfeld empiricaldisper
 sion=gd3bj
 ----------------------------------------------------------------------

 -----------------------
 tmpdir/M2_conf_0_10.gjf
 -----------------------
 Symbolic Z-matrix:
 Charge =  0 Multiplicity = 1

                         Standard orientation:
 ---------------------------------------------------------------------
 Center     Atomic      Atomic             Coordinates (Angstroms)
 Number     Number       Type             X           Y           Z
 ---------------------------------------------------------------------
      1          6           0        0.754096   -0.631130    0.002176
      2          6           0       -0.428899    0.118294   -0.000037
      3          8           0       -1.599816   -0.527436   -0.009251
      4          8           0        1.836393   -0.054566   -0.002811
      5          1           0        0.721831   -1.715451    0.003205
      6          8           0       -0.366913    1.370654    0.004136
      7          1           0       -1.630326   -1.516754    0.047368
 ---------------------------------------------------------------------

 SCF Done:  E(RB3LYP) =  -303.009672826     A.U. after   12 cycles

 The electronic state is 1-A.
 Alpha  occ. eigenvalues --  -19.20779 -19.16789 -19.14267 -10.34045 -10.30036
 Alpha  occ. eigenvalues --   -1.14028  -1.09022  -1.03655  -0.75928  -0.65956
 Alpha  occ. eigenvalues --   -0.57705  -0.49935  -0.49458  -0.46492  -0.42357
 Alpha  occ. eigenvalues --   -0.41467  -0.34625  -0.31714  -0.30295
 Alpha virt. eigenvalues --   -0.12900   0.00586   0.04457   0.07845   0.17711
 Alpha virt. eigenvalues --    0.22064   0.28693   0.31006   0.37642   0.42660
 Alpha virt. eigenvalues --    0.45331   0.46155   0.50600   0.55149   0.59648

 Mulliken charges:
               1
     1  C    0.231839
     2  C    0.444275
     3  O   -0.354682
     4  O   -0.297746
     5  H    0.071787
     6  O   -0.374660
     7  H    0.279187
 Sum of Mulliken charges =  -0.00000

 Dipole moment (field-independent basis, Debye):
    X=             -1.7220    Y=             -5.7852    Z=              0.1147  Tot=              6.0371
 Quadrupole moment (field-independent basis, Debye-Ang):
   XX=            -33.5085   YY=            -25.8753   ZZ=            -26.6161
   XY=              3.3008   XZ=             -0.1804   YZ=             -0.1948

 Normal termination of Gaussian 16 at Fri Sep 22 16:32:44 2023.
