 Gaussian 16, Revision A.03,
 Gaussian 16:  ES64L-G16RevA.03 25-Dec-2016

 ----------------------------------------------------------------------
 #p b3lyp/gen scrf=(cpcm,solvent=toluene) pop=hirshfeld empiricaldisper
 sion=gd3bj
 ----------------------------------------------------------------------

 ------------------------
 tmpdir/M2_conf_0_299.gjf
 ------------------------
 Symbolic Z-matrix:
 Charge =  0 Multiplicity = 1

                         Standard orientation:
 ---------------------------------------------------------------------
 Center     Atomic      Atomic             Coordinates (Angstroms)
 Number     Number       Type             X           Y           Z
 ---------------------------------------------------------------------
      1          6           0       -0.688290   -0.007124   -0.003614
      2          6           0        0.686800   -0.007855    0.001469
      3          1           0       -1.216009   -0.891663   -0.005135
      4          1           0       -1.225018    0.938744    0.020022
      5          1           0        1.216067   -0.889083    0.011853
      6          1           0        1.233900    0.931876   -0.013866
 ---------------------------------------------------------------------

 SCF Done:  E(RB3LYP) =  -78.5750053290     A.U. after    9 cycles

 The electronic state is 1-A.
 Alpha  occ. eigenvalues --  -10.18043 -10.17970  -0.76126  -0.59393  -0.47945
 Alpha  occ. eigenvalues --   -0.41812  -0.37339  -0.27430
 Alpha virt. eigenvalues --   -0.01154   0.06585   0.09584   0.09998   0.16164
 Alpha virt. eigenvalues --    0.27704   0.35744   0.41980   0.43553   0.51278
 Alpha virt. eigenvalues --    0.51675   0.55146   0.63539   0.65473   0.70602

 Mulliken charges:
               1
     1  C   -0.185339
     2  C   -0.186868
     3  H    0.084354
     4  H    0.102531
     5  H    0.083210
     6  H    0.102112
 Sum of Mulliken charges =  -0.00000

 Dipole moment (field-independent basis, Debye):
    X=              0.0050    Y=             -0.0232    Z=              0.0139  Tot=              0.0275
 Quadrupole moment (field-independent basis, Debye-Ang):
   XX=            -12.3728   YY=            -12.3100   ZZ=            -15.6559
   XY=              0.0069   XZ=             -0.0226   YZ=              0.0001

 Normal termination of Gaussian 16 at Fri Sep 22 16:35:37 2023.
