 Gaussian 16, Revision A.03,
 Gaussian 16:  ES64L-G16RevA.03 25-Dec-2016

 ----------------------------------------------------------------------
 #p b3lyp/gen scrf=(cpcm,solvent=toluene) pop=hirshfeld empiricaldisper
 sion=gd3bj
 ----------------------------------------------------------------------

 ----------------------
 tmpdir/M2_conf_0_0.gjf
 ----------------------
 Symbolic Z-matrix:
 Charge =  0 Multiplicity = 1

                         Standard orientation:
 ---------------------------------------------------------------------
 Center     Atomic      Atomic             Coordinates (Angstroms)
 Number     Number       Type             X           Y           Z
 ---------------------------------------------------------------------
      1          6           0       -0.701296   -0.001265   -0.006022
      2          6           0        0.702216   -0.015756    0.000248
      3          1           0       -1.212018   -0.883020    0.009072
      4          1           0       -1.177657    0.921075    0.019358
      5          1           0        1.192531   -0.902947    0.008476
      6          1           0        1.191624    0.967021   -0.002263
 ---------------------------------------------------------------------

 SCF Done:  E(RB3LYP) =  -78.5660455463     A.U. after    9 cycles

 The electronic state is 1-A.
 Alpha  occ. eigenvalues --  -10.18224 -10.17702  -0.75914  -0.59689  -0.48745
 Alpha  occ. eigenvalues --   -0.40791  -0.38365  -0.27010
 Alpha virt. eigenvalues --   -0.01665   0.06542   0.09807   0.10500   0.16147
 Alpha virt. eigenvalues --    0.26420   0.35543   0.43905   0.44120   0.51083
 Alpha virt. eigenvalues --    0.51534   0.55240   0.64277   0.66083   0.69676

 Mulliken charges:
               1
     1  C   -0.167128
     2  C   -0.190505
     3  H    0.082189
     4  H    0.088685
     5  H    0.079217
     6  H    0.107542
 Sum of Mulliken charges =  -0.00000

 Dipole moment (field-independent basis, Debye):
    X=             -0.0241    Y=             -0.0081    Z=              0.0383  Tot=              0.0460
 Quadrupole moment (field-independent basis, Debye-Ang):
   XX=            -12.6210   YY=            -12.1082   ZZ=            -15.6830
   XY=             -0.0244   XZ=             -0.0281   YZ=             -0.0001

 Normal termination of Gaussian 16 at Fri Sep 22 16:32:28 2023.
