 Gaussian 16, Revision A.03,
 Gaussian 16:  ES64L-G16RevA.03 25-Dec-2016

 ----------------------------------------------------------------------
 #p b3lyp/gen scrf=(cpcm,solvent=toluene) pop=hirshfeld empiricaldisper
 sion=gd3bj
 ----------------------------------------------------------------------

 ------------------------
 tmpdir/M2_conf_0_133.gjf
 ------------------------
 Symbolic Z-matrix:
 Charge =  0 Multiplicity = 1

                         Standard orientation:
 ---------------------------------------------------------------------
 Center     Atomic      Atomic             Coordinates (Angstroms)
 Number     Number       Type             X           Y           Z
 ---------------------------------------------------------------------
      1          1           0        0.423929    0.950561   -0.345075
      2          6           0       -0.006407   -0.000302   -0.004727
      3          1           0        0.211463   -0.099080    1.066075
      4          1           0       -1.106136   -0.031331   -0.169223
      5          1           0        0.509184   -0.818341   -0.523413
 ---------------------------------------------------------------------

 SCF Done:  E(RB3LYP) =  -40.5136639919     A.U. after    7 cycles

 The electronic state is 1-A.
 Alpha  occ. eigenvalues --  -10.16463  -0.69235  -0.39608  -0.39107  -0.38888
 Alpha virt. eigenvalues --    0.05617   0.12348   0.12552   0.12562   0.37193
 Alpha virt. eigenvalues --    0.37423   0.38387   0.63147   0.63665   0.63699
 Alpha virt. eigenvalues --    0.67347   0.96111   1.28838   1.29094   1.84425

 Mulliken charges:
               1
     1  H    0.087723
     2  C   -0.356087
     3  H    0.085106
     4  H    0.095209
     5  H    0.088050
 Sum of Mulliken charges =  -0.00000

 Dipole moment (field-independent basis, Debye):
    X=              0.0410    Y=              0.0012    Z=              0.0234  Tot=              0.0472
 Quadrupole moment (field-independent basis, Debye-Ang):
   XX=             -8.3309   YY=             -8.5070   ZZ=             -8.5578
   XY=             -0.0012   XZ=             -0.0043   YZ=              0.0020

 Normal termination of Gaussian 16 at Fri Sep 22 16:34:08 2023.
