 Gaussian 16, Revision A.03,
 Gaussian 16:  ES64L-G16RevA.03 25-Dec-2016

 ----------------------------------------------------------------------
 #p b3lyp/gen scrf=(cpcm,solvent=toluene) pop=hirshfeld empiricaldisper
 sion=gd3bj
 ----------------------------------------------------------------------

 -----------------------
 tmpdir/M2_conf_0_74.gjf
 -----------------------
 Symbolic Z-matrix:
 Charge =  0 Multiplicity = 1

                         Standard orientation:
 ---------------------------------------------------------------------
 Center     Atomic      Atomic             Coordinates (Angstroms)
 Number     Number       Type             X           Y           Z
 ---------------------------------------------------------------------
      1          1           0       -0.035151    0.517029    0.959887
      2          6           0       -0.006802   -0.009975   -0.005920
      3          1           0        0.265224    0.747946   -0.751619
      4          1           0        0.814789   -0.764560    0.032658
      5          1           0       -1.004047   -0.440566   -0.205407
 ---------------------------------------------------------------------

 SCF Done:  E(RB3LYP) =  -40.5130733306     A.U. after    7 cycles

 The electronic state is 1-A.
 Alpha  occ. eigenvalues --  -10.16604  -0.69147  -0.39934  -0.38902  -0.38584
 Alpha virt. eigenvalues --    0.05554   0.12278   0.12418   0.12534   0.36898
 Alpha virt. eigenvalues --    0.37338   0.38824   0.62817   0.63308   0.63691
 Alpha virt. eigenvalues --    0.66991   0.96109   1.28701   1.29332   1.82349

 Mulliken charges:
               1
     1  H    0.083930
     2  C   -0.359562
     3  H    0.086365
     4  H    0.092874
     5  H    0.096392
 Sum of Mulliken charges =  -0.00000

 Dipole moment (field-independent basis, Debye):
    X=              0.0195    Y=              0.0577    Z=              0.0237  Tot=              0.0654
 Quadrupole moment (field-independent basis, Debye-Ang):
   XX=             -8.2847   YY=             -8.5133   ZZ=             -8.6335
   XY=              0.0241   XZ=              0.0040   YZ=             -0.0062

 Normal termination of Gaussian 16 at Fri Sep 22 16:32:42 2023.
