 Gaussian 16, Revision A.03,
 Gaussian 16:  ES64L-G16RevA.03 25-Dec-2016

 ----------------------------------------------------------------------
 #p b3lyp/gen scrf=(cpcm,solvent=toluene) pop=hirshfeld empiricaldisper
 sion=gd3bj
 ----------------------------------------------------------------------

 ------------------------
 tmpdir/M2_conf_0_306.gjf
 ------------------------
 Symbolic Z-matrix:
 Charge =  0 Multiplicity = 1

                         Standard orientation:
 ---------------------------------------------------------------------
 Center     Atomic      Atomic             Coordinates (Angstroms)
 Number     Number       Type             X           Y           Z
 ---------------------------------------------------------------------
      1          6           0        1.234123   -0.613363   -0.002163
      2          6           0       -0.001729    0.071793   -0.011196
      3          6           0       -1.241617   -0.623832   -0.007279
      4          8           0        2.297278   -0.019734    0.008225
      5          1           0        1.225501   -1.697897    0.006168
      6          8           0       -0.001499    1.333270   -0.003584
      7          8           0       -2.287875   -0.013312    0.011589
      8          1           0       -1.233405   -1.711484   -0.012184
 ---------------------------------------------------------------------

 SCF Done:  E(RB3LYP) =  -341.063517034     A.U. after   12 cycles

 The electronic state is 1-A.
 Alpha  occ. eigenvalues --  -19.18030 -19.17271 -19.17249 -10.30247 -10.30170
 Alpha  occ. eigenvalues --  -10.30070  -1.11874  -1.09888  -1.06555  -0.81209
 Alpha  occ. eigenvalues --   -0.67804  -0.58703  -0.57164  -0.50384  -0.49116
 Alpha  occ. eigenvalues --   -0.47507  -0.47398  -0.43304  -0.38838  -0.33300
 Alpha  occ. eigenvalues --   -0.32477  -0.29130
 Alpha virt. eigenvalues --   -0.17741  -0.06986   0.04503   0.05316   0.09633
 Alpha virt. eigenvalues --    0.12633   0.24305   0.26721   0.27800   0.35060
 Alpha virt. eigenvalues --    0.35288   0.37094   0.43264   0.47568   0.51564

 Mulliken charges:
               1
     1  C    0.283675
     2  C    0.159202
     3  C    0.280649
     4  O   -0.293964
     5  H    0.069342
     6  O   -0.282641
     7  O   -0.289117
     8  H    0.072855
 Sum of Mulliken charges =  -0.00000

 Dipole moment (field-independent basis, Debye):
    X=             -0.0647    Y=             -4.7464    Z=             -0.0588  Tot=              4.7472
 Quadrupole moment (field-independent basis, Debye-Ang):
   XX=            -45.6818   YY=            -32.6818   ZZ=            -30.8675
   XY=              0.0917   XZ=              0.0332   YZ=              0.0144

 Normal termination of Gaussian 16 at Fri Sep 22 16:35:44 2023.
