 Gaussian 16, Revision A.03,
 Gaussian 16:  ES64L-G16RevA.03 25-Dec-2016

 ----------------------------------------------------------------------
 #p b3lyp/gen scrf=(cpcm,solvent=toluene) pop=hirshfeld empiricaldisper
 sion=gd3bj
 ----------------------------------------------------------------------

 ----------------------
 tmpdir/M2_conf_0_6.gjf
 ----------------------
 Symbolic Z-matrix:
 Charge =  0 Multiplicity = 1

                         Standard orientation:
 ---------------------------------------------------------------------
 Center     Atomic      Atomic             Coordinates (Angstroms)
 Number     Number       Type             X           Y           Z
 ---------------------------------------------------------------------
      1          6           0       -0.684982    0.502465    0.001428
      2          6           0        0.708808    0.485403   -0.002726
      3          6           0       -1.400851   -0.726432   -0.001856
      4          1           0       -1.297292    1.413732    0.009260
      5          6           0        1.381040   -0.732360    0.002425
      6          1           0        1.273206    1.411814   -0.004883
 ---------------------------------------------------------------------

 SCF Done:  E(RB3LYP) =  -153.285947365     A.U. after   14 cycles

 The electronic state is 1-A.
 Alpha  occ. eigenvalues --  -10.27618 -10.27289 -10.22758 -10.22344  -0.85997
 Alpha  occ. eigenvalues --   -0.73062  -0.61424  -0.50901  -0.49396  -0.37157
 Alpha  occ. eigenvalues --   -0.33417  -0.31198  -0.25325
 Alpha virt. eigenvalues --   -0.14715  -0.11263  -0.08370   0.04538   0.05701
 Alpha virt. eigenvalues --    0.09333   0.19215   0.26475   0.31235   0.36152
 Alpha virt. eigenvalues --    0.39240   0.43573   0.43784   0.45030   0.46246

 Mulliken charges:
               1
     1  C   -0.177812
     2  C   -0.144710
     3  C   -0.002595
     4  H    0.165505
     5  C   -0.001557
     6  H    0.161170
 Sum of Mulliken charges =   0.00000

 Dipole moment (field-independent basis, Debye):
    X=              0.0307    Y=              4.0261    Z=              0.0050  Tot=              4.0262
 Quadrupole moment (field-independent basis, Debye-Ang):
   XX=            -25.4106   YY=            -24.5013   ZZ=            -26.6800
   XY=             -0.0235   XZ=             -0.0554   YZ=              0.0123

 Normal termination of Gaussian 16 at Fri Sep 22 16:33:46 2023.
