 Gaussian 16, Revision A.03,
 Gaussian 16:  ES64L-G16RevA.03 25-Dec-2016

 ----------------------------------------------------------------------
 #p b3lyp/gen scrf=(cpcm,solvent=toluene) pop=hirshfeld empiricaldisper
 sion=gd3bj
 ----------------------------------------------------------------------

 ------------------------
 tmpdir/M2_conf_0_379.gjf
 ------------------------
 Symbolic Z-matrix:
 Charge =  0 Multiplicity = 1

                         Standard orientation:
 ---------------------------------------------------------------------
 Center     Atomic      Atomic             Coordinates (Angstroms)
 Number     Number       Type             X           Y           Z
 ---------------------------------------------------------------------
      1          6           0        0.644497    0.364814    0.017890
      2          6           0       -0.527978   -0.435332    0.010767
      3          6           0       -1.777163    0.142643   -0.012138
      4          1           0        0.548852    1.395590    0.038128
      5          8           0        1.797922   -0.123929   -0.017561
      6          1           0       -0.423456   -1.516704    0.039877
      7          1           0       -2.667745   -0.482646   -0.019330
      8          1           0       -1.877159    1.162440   -0.017304
 ---------------------------------------------------------------------

 SCF Done:  E(RB3LYP) =  -191.883890424     A.U. after   11 cycles

 The electronic state is 1-A.
 Alpha  occ. eigenvalues --  -19.12152 -10.26412 -10.21616 -10.20429  -1.03541
 Alpha  occ. eigenvalues --   -0.81467  -0.67017  -0.59305  -0.49817  -0.47978
 Alpha  occ. eigenvalues --   -0.42048  -0.40954  -0.40162  -0.29694  -0.26898
 Alpha virt. eigenvalues --   -0.08849   0.03613   0.05944   0.06896   0.10944
 Alpha virt. eigenvalues --    0.13161   0.20920   0.25769   0.28839   0.39613
 Alpha virt. eigenvalues --    0.43517   0.44966   0.46785   0.47537   0.50705

 Mulliken charges:
               1
     1  C    0.313442
     2  C   -0.220240
     3  C   -0.034907
     4  H    0.038380
     5  O   -0.412365
     6  H    0.097135
     7  H    0.126943
     8  H    0.091611
 Sum of Mulliken charges =  -0.00000

 Dipole moment (field-independent basis, Debye):
    X=             -4.0752    Y=              0.9479    Z=              0.0861  Tot=              4.1849
 Quadrupole moment (field-independent basis, Debye-Ang):
   XX=            -27.5626   YY=            -21.5296   ZZ=            -25.0693
   XY=              0.9974   XZ=              0.1410   YZ=             -0.0428

 Normal termination of Gaussian 16 at Fri Sep 22 16:36:16 2023.
