 Gaussian 16, Revision A.03,
 Gaussian 16:  ES64L-G16RevA.03 25-Dec-2016

 ----------------------------------------------------------------------
 #p b3lyp/gen scrf=(cpcm,solvent=toluene) pop=hirshfeld empiricaldisper
 sion=gd3bj
 ----------------------------------------------------------------------

 ------------------------
 tmpdir/M2_conf_0_123.gjf
 ------------------------
 Symbolic Z-matrix:
 Charge =  0 Multiplicity = 1

                         Standard orientation:
 ---------------------------------------------------------------------
 Center     Atomic      Atomic             Coordinates (Angstroms)
 Number     Number       Type             X           Y           Z
 ---------------------------------------------------------------------
      1          6           0        1.251831   -0.267556    0.002160
      2          6           0        0.000055    0.623787   -0.001252
      3          6           0       -1.251711   -0.269642   -0.000992
      4          1           0        2.176264    0.323576    0.009749
      5          1           0        1.263949   -0.939637    0.870100
      6          1           0        1.265768   -0.889402   -0.901696
      7          1           0       -0.014281    1.229210    0.955967
      8          1           0        0.005133    1.260627   -0.913919
      9          1           0       -1.299470   -0.883853    0.908004
     10          1           0       -2.171426    0.322616   -0.060020
     11          1           0       -1.226984   -0.942671   -0.867679
 ---------------------------------------------------------------------

 SCF Done:  E(RB3LYP) =  -119.131034939     A.U. after   10 cycles

 The electronic state is 1-A.
 Alpha  occ. eigenvalues --  -10.17573 -10.16311 -10.16296  -0.78101  -0.67821
 Alpha  occ. eigenvalues --   -0.58053  -0.46117  -0.43624  -0.39681  -0.38053
 Alpha  occ. eigenvalues --   -0.33844  -0.33595  -0.33176
 Alpha virt. eigenvalues --    0.04668   0.08689   0.08759   0.08892   0.11562
 Alpha virt. eigenvalues --    0.13465   0.14441   0.15525   0.18729   0.23259
 Alpha virt. eigenvalues --    0.37802   0.38712   0.39802   0.40080   0.41135

 Mulliken charges:
               1
     1  C   -0.214681
     2  C   -0.255405
     3  C   -0.214542
     4  H    0.085714
     5  H    0.082585
     6  H    0.080365
     7  H    0.093545
     8  H    0.093810
     9  H    0.083397
    10  H    0.085234
    11  H    0.079978
 Sum of Mulliken charges =   0.00000

 Dipole moment (field-independent basis, Debye):
    X=             -0.0017    Y=              0.0149    Z=             -0.0183  Tot=              0.0237
 Quadrupole moment (field-independent basis, Debye-Ang):
   XX=            -22.7611   YY=            -22.4720   ZZ=            -21.5149
   XY=             -0.0236   XZ=             -0.0345   YZ=             -0.1122

 Normal termination of Gaussian 16 at Fri Sep 22 16:35:05 2023.
