 Gaussian 16, Revision A.03,
 Gaussian 16:  ES64L-G16RevA.03 25-Dec-2016

 ----------------------------------------------------------------------
 #p b3lyp/gen scrf=(cpcm,solvent=toluene) pop=hirshfeld empiricaldisper
 sion=gd3bj
 ----------------------------------------------------------------------

 ------------------------
 tmpdir/M2_conf_0_310.gjf
 ------------------------
 Symbolic Z-matrix:
 Charge =  0 Multiplicity = 1

                         Standard orientation:
 ---------------------------------------------------------------------
 Center     Atomic      Atomic             Coordinates (Angstroms)
 Number     Number       Type             X           Y           Z
 ---------------------------------------------------------------------
      1          6           0       -0.539082   -0.011029   -0.001120
      2          1           0       -1.098988    0.923003    0.002250
      3          8           0        0.673801    0.005279    0.000258
      4          1           0       -1.056931   -0.899060    0.002404
 ---------------------------------------------------------------------

 SCF Done:  E(RB3LYP) =  -114.484034890     A.U. after    9 cycles

 The electronic state is 1-A.
 Alpha  occ. eigenvalues --  -19.13926 -10.27098  -1.06486  -0.65035  -0.51080
 Alpha  occ. eigenvalues --   -0.45534  -0.40355  -0.27451
 Alpha virt. eigenvalues --   -0.05280   0.06532   0.11915   0.18119   0.40309
 Alpha virt. eigenvalues --    0.47898   0.52463   0.60626   0.62610   0.72663
 Alpha virt. eigenvalues --    0.78020   0.87640   0.97949   1.32232   1.50414

 Mulliken charges:
               1
     1  C    0.220518
     2  H    0.076177
     3  O   -0.362938
     4  H    0.066243
 Sum of Mulliken charges =  -0.00000

 Dipole moment (field-independent basis, Debye):
    X=             -2.7483    Y=             -0.0895    Z=              0.0004  Tot=              2.7497
 Quadrupole moment (field-independent basis, Debye-Ang):
   XX=            -12.0461   YY=            -11.5109   ZZ=            -11.5052
   XY=              0.0566   XZ=             -0.0023   YZ=              0.0002

 Normal termination of Gaussian 16 at Fri Sep 22 16:36:23 2023.
