 Gaussian 16, Revision A.03,
 Gaussian 16:  ES64L-G16RevA.03 25-Dec-2016

 ----------------------------------------------------------------------
 #p b3lyp/gen scrf=(cpcm,solvent=toluene) pop=hirshfeld empiricaldisper
 sion=gd3bj
 ----------------------------------------------------------------------

 ------------------------
 tmpdir/M2_conf_0_160.gjf
 ------------------------
 Symbolic Z-matrix:
 Charge =  0 Multiplicity = 1

                         Standard orientation:
 ---------------------------------------------------------------------
 Center     Atomic      Atomic             Coordinates (Angstroms)
 Number     Number       Type             X           Y           Z
 ---------------------------------------------------------------------
      1          7           0        1.384984   -0.517426   -0.127022
      2          6           0        0.579743    0.717484    0.139788
      3          6           0       -0.896905    0.455727   -0.160800
      4          1           0        1.382443   -0.913417   -0.972255
      5          1           0        1.849266   -0.880421    0.721731
      6          1           0        0.738858    0.865899    1.245687
      7          1           0        1.007662    1.567434   -0.429922
      8          1           0       -1.480017    1.169663   -0.540656
      9          8           0       -1.411266   -0.653305    0.123830
 ---------------------------------------------------------------------

 SCF Done:  E(RB3LYP) =  -209.116016946     A.U. after   11 cycles

 The electronic state is 1-A.
 Alpha  occ. eigenvalues --  -19.12572 -14.28725 -10.26491 -10.22191  -1.03477
 Alpha  occ. eigenvalues --   -0.87286  -0.71574  -0.60456  -0.52386  -0.48834
 Alpha  occ. eigenvalues --   -0.44288  -0.42587  -0.40532  -0.36396  -0.26779
 Alpha  occ. eigenvalues --   -0.22598
 Alpha virt. eigenvalues --   -0.05516   0.04735   0.07632   0.09042   0.10764
 Alpha virt. eigenvalues --    0.14379   0.17730   0.23220   0.23974   0.41964
 Alpha virt. eigenvalues --    0.44371   0.45472   0.50625   0.52019   0.54625

 Mulliken charges:
               1
     1  N   -0.465235
     2  C   -0.022081
     3  C    0.278788
     4  H    0.136445
     5  H    0.188767
     6  H    0.134011
     7  H    0.107449
     8  H    0.030916
     9  O   -0.389059
 Sum of Mulliken charges =  -0.00000

 Dipole moment (field-independent basis, Debye):
    X=              1.7126    Y=              2.4059    Z=             -0.2447  Tot=              2.9633
 Quadrupole moment (field-independent basis, Debye-Ang):
   XX=            -27.5435   YY=            -24.1626   ZZ=            -21.5753
   XY=             -4.3960   XZ=              1.8619   YZ=              0.3813

 Normal termination of Gaussian 16 at Fri Sep 22 16:35:14 2023.
