 Gaussian 16, Revision A.03,
 Gaussian 16:  ES64L-G16RevA.03 25-Dec-2016

 ----------------------------------------------------------------------
 #p b3lyp/gen scrf=(cpcm,solvent=toluene) pop=hirshfeld empiricaldisper
 sion=gd3bj
 ----------------------------------------------------------------------

 ------------------------
 tmpdir/M2_conf_0_352.gjf
 ------------------------
 Symbolic Z-matrix:
 Charge =  0 Multiplicity = 1

                         Standard orientation:
 ---------------------------------------------------------------------
 Center     Atomic      Atomic             Coordinates (Angstroms)
 Number     Number       Type             X           Y           Z
 ---------------------------------------------------------------------
      1          6           0        1.210461   -0.189272    0.007287
      2          6           0       -0.122958    0.477143    0.015648
      3          6           0       -1.268293   -0.219092   -0.004409
      4          1           0        1.798072    0.262869   -0.917360
      5          1           0        1.781808    0.042060    0.918119
      6          1           0        1.144475   -1.277189   -0.100215
      7          1           0       -0.072023    1.567352    0.016456
      8          1           0       -1.340391   -1.305895   -0.009240
      9          1           0       -2.227203    0.298132   -0.018916
 ---------------------------------------------------------------------

 SCF Done:  E(RB3LYP) =  -117.893135466     A.U. after   10 cycles

 The electronic state is 1-A.
 Alpha  occ. eigenvalues --  -10.18425 -10.17991 -10.17049  -0.79108  -0.68183
 Alpha  occ. eigenvalues --   -0.55830  -0.46679  -0.42922  -0.41072  -0.36901
 Alpha  occ. eigenvalues --   -0.34925  -0.26093
 Alpha virt. eigenvalues --    0.00586   0.05206   0.07899   0.08994   0.11106
 Alpha virt. eigenvalues --    0.12913   0.13954   0.22143   0.31810   0.37006
 Alpha virt. eigenvalues --    0.40297   0.40488   0.47920   0.49307   0.53248

 Mulliken charges:
               1
     1  C   -0.183547
     2  C   -0.246362
     3  C   -0.137584
     4  H    0.105747
     5  H    0.107113
     6  H    0.091262
     7  H    0.080907
     8  H    0.091462
     9  H    0.091001
 Sum of Mulliken charges =  -0.00000

 Dipole moment (field-independent basis, Debye):
    X=              0.4165    Y=              0.0729    Z=              0.0286  Tot=              0.4238
 Quadrupole moment (field-independent basis, Debye-Ang):
   XX=            -19.8941   YY=            -18.9758   ZZ=            -22.0897
   XY=              0.4509   XZ=              0.1761   YZ=             -0.0552

 Normal termination of Gaussian 16 at Fri Sep 22 16:36:08 2023.
