 Gaussian 16, Revision A.03,
 Gaussian 16:  ES64L-G16RevA.03 25-Dec-2016

 ----------------------------------------------------------------------
 #p b3lyp/gen scrf=(cpcm,solvent=toluene) pop=hirshfeld empiricaldisper
 sion=gd3bj
 ----------------------------------------------------------------------

 ------------------------
 tmpdir/M2_conf_0_193.gjf
 ------------------------
 Symbolic Z-matrix:
 Charge =  0 Multiplicity = 1

                         Standard orientation:
 ---------------------------------------------------------------------
 Center     Atomic      Atomic             Coordinates (Angstroms)
 Number     Number       Type             X           Y           Z
 ---------------------------------------------------------------------
      1          6           0        0.002057    0.004577   -0.002652
      2          1           0       -0.382547   -0.698595   -0.750065
      3          1           0        1.082837    0.191211   -0.167532
      4          1           0       -0.575683    0.931378   -0.050943
      5          1           0       -0.136949   -0.451457    0.984452
 ---------------------------------------------------------------------

 SCF Done:  E(RB3LYP) =  -40.5139228638     A.U. after    7 cycles

 The electronic state is 1-A.
 Alpha  occ. eigenvalues --  -10.16360  -0.69302  -0.39523  -0.39255  -0.38958
 Alpha virt. eigenvalues --    0.05662   0.12409   0.12585   0.12622   0.37272
 Alpha virt. eigenvalues --    0.37584   0.38132   0.63307   0.63755   0.63999
 Alpha virt. eigenvalues --    0.67567   0.96113   1.28833   1.29046   1.84978

 Mulliken charges:
               1
     1  C   -0.353510
     2  H    0.086870
     3  H    0.092141
     4  H    0.089063
     5  H    0.085436
 Sum of Mulliken charges =  -0.00000

 Dipole moment (field-independent basis, Debye):
    X=             -0.0232    Y=             -0.0196    Z=              0.0134  Tot=              0.0332
 Quadrupole moment (field-independent basis, Debye-Ang):
   XX=             -8.3751   YY=             -8.4630   ZZ=             -8.5334
   XY=             -0.0117   XZ=              0.0041   YZ=              0.0025

 Normal termination of Gaussian 16 at Fri Sep 22 16:34:34 2023.
