 Gaussian 16, Revision A.03,
 Gaussian 16:  ES64L-G16RevA.03 25-Dec-2016

 ----------------------------------------------------------------------
 #p b3lyp/gen scrf=(cpcm,solvent=toluene) pop=hirshfeld empiricaldisper
 sion=gd3bj
 ----------------------------------------------------------------------

 ------------------------
 tmpdir/M2_conf_0_323.gjf
 ------------------------
 Symbolic Z-matrix:
 Charge =  0 Multiplicity = 1

                         Standard orientation:
 ---------------------------------------------------------------------
 Center     Atomic      Atomic             Coordinates (Angstroms)
 Number     Number       Type             X           Y           Z
 ---------------------------------------------------------------------
      1          6           0       -0.709756    0.474066   -0.000374
      2          6           0        0.707043    0.475166   -0.000648
      3          6           0       -1.402365   -0.712832   -0.000122
      4          1           0       -1.249099    1.419078    0.003596
      5          6           0        1.406134   -0.710011    0.000575
      6          1           0        1.242758    1.422593   -0.000186
 ---------------------------------------------------------------------

 SCF Done:  E(RB3LYP) =  -153.297605689     A.U. after   12 cycles

 The electronic state is 1-A.
 Alpha  occ. eigenvalues --  -10.27005 -10.26982 -10.22412 -10.22364  -0.86181
 Alpha  occ. eigenvalues --   -0.74022  -0.61706  -0.50598  -0.49618  -0.37309
 Alpha  occ. eigenvalues --   -0.33218  -0.31358  -0.25963
 Alpha virt. eigenvalues --   -0.14213  -0.11624  -0.07566   0.04946   0.05694
 Alpha virt. eigenvalues --    0.09564   0.20478   0.26687   0.30976   0.36052
 Alpha virt. eigenvalues --    0.39025   0.42950   0.44143   0.44322   0.45985

 Mulliken charges:
               1
     1  C   -0.161582
     2  C   -0.163644
     3  C   -0.001691
     4  H    0.163950
     5  C   -0.001351
     6  H    0.164318
 Sum of Mulliken charges =  -0.00000

 Dipole moment (field-independent basis, Debye):
    X=             -0.0143    Y=              4.1481    Z=              0.0043  Tot=              4.1481
 Quadrupole moment (field-independent basis, Debye-Ang):
   XX=            -25.8349   YY=            -24.2163   ZZ=            -26.5392
   XY=             -0.0024   XZ=             -0.0124   YZ=              0.0094

 Normal termination of Gaussian 16 at Fri Sep 22 16:37:04 2023.
