 Gaussian 16, Revision A.03,
 Gaussian 16:  ES64L-G16RevA.03 25-Dec-2016

 ----------------------------------------------------------------------
 #p b3lyp/gen scrf=(cpcm,solvent=toluene) pop=hirshfeld empiricaldisper
 sion=gd3bj
 ----------------------------------------------------------------------

 ------------------------
 tmpdir/M2_conf_0_112.gjf
 ------------------------
 Symbolic Z-matrix:
 Charge =  0 Multiplicity = 1

                         Standard orientation:
 ---------------------------------------------------------------------
 Center     Atomic      Atomic             Coordinates (Angstroms)
 Number     Number       Type             X           Y           Z
 ---------------------------------------------------------------------
      1          6           0        0.143406    0.433012   -0.003310
      2          7           0       -1.061051   -0.151950   -0.008073
      3          1           0        0.228699    1.536358   -0.038506
      4          8           0        1.182639   -0.274215    0.008419
      5          1           0       -1.147613   -1.196847   -0.041169
      6          1           0       -1.975272    0.319788    0.088699
 ---------------------------------------------------------------------

 SCF Done:  E(RB3LYP) =  -169.872889666     A.U. after   11 cycles

 The electronic state is 1-A.
 Alpha  occ. eigenvalues --  -19.09008 -14.35545 -10.28807  -1.02807  -0.90938
 Alpha  occ. eigenvalues --   -0.63538  -0.55477  -0.48821  -0.41399  -0.40517
 Alpha  occ. eigenvalues --   -0.27820  -0.26251
 Alpha virt. eigenvalues --    0.00641   0.03827   0.06136   0.11006   0.20930
 Alpha virt. eigenvalues --    0.29494   0.41358   0.43583   0.47609   0.51394
 Alpha virt. eigenvalues --    0.59029   0.64904   0.66332   0.69927   0.74141

 Mulliken charges:
               1
     1  C    0.349053
     2  N   -0.365800
     3  H    0.083599
     4  O   -0.483517
     5  H    0.210975
     6  H    0.205690
 Sum of Mulliken charges =   0.00000

 Dipole moment (field-independent basis, Debye):
    X=             -4.6279    Y=              1.1583    Z=              0.0704  Tot=              4.7712
 Quadrupole moment (field-independent basis, Debye-Ang):
   XX=            -17.7303   YY=            -14.9731   ZZ=            -18.8718
   XY=              1.7889   XZ=             -0.3250   YZ=              0.1438

 Normal termination of Gaussian 16 at Fri Sep 22 16:34:03 2023.
