 Gaussian 16, Revision A.03,
 Gaussian 16:  ES64L-G16RevA.03 25-Dec-2016

 ----------------------------------------------------------------------
 #p b3lyp/gen scrf=(cpcm,solvent=toluene) pop=hirshfeld empiricaldisper
 sion=gd3bj
 ----------------------------------------------------------------------

 ------------------------
 tmpdir/M2_conf_0_264.gjf
 ------------------------
 Symbolic Z-matrix:
 Charge =  0 Multiplicity = 1

                         Standard orientation:
 ---------------------------------------------------------------------
 Center     Atomic      Atomic             Coordinates (Angstroms)
 Number     Number       Type             X           Y           Z
 ---------------------------------------------------------------------
      1          6           0        0.143756    0.419974    0.005657
      2          8           0       -1.114053   -0.079500   -0.005917
      3          1           0        0.161919    1.478118    0.004602
      4          8           0        1.140491   -0.287475   -0.002498
      5          1           0       -1.235957   -1.062162    0.028779
 ---------------------------------------------------------------------

 SCF Done:  E(RB3LYP) =  -189.733956343     A.U. after   10 cycles

 The electronic state is 1-A.
 Alpha  occ. eigenvalues --  -19.18172 -19.12869 -10.32477  -1.11326  -1.02866
 Alpha  occ. eigenvalues --   -0.68361  -0.54480  -0.49008  -0.45255  -0.40270
 Alpha  occ. eigenvalues --   -0.33697  -0.29818
 Alpha virt. eigenvalues --   -0.01835   0.03577   0.08281   0.21080   0.23150
 Alpha virt. eigenvalues --    0.39314   0.42935   0.49823   0.57897   0.61132
 Alpha virt. eigenvalues --    0.67796   0.76790   0.81789   0.86063   0.89945

 Mulliken charges:
               1
     1  C    0.437317
     2  O   -0.387719
     3  H    0.096965
     4  O   -0.411181
     5  H    0.264617
 Sum of Mulliken charges =  -0.00000

 Dipole moment (field-independent basis, Debye):
    X=             -1.9686    Y=              0.3019    Z=              0.0870  Tot=              1.9935
 Quadrupole moment (field-independent basis, Debye-Ang):
   XX=            -20.9969   YY=            -13.3642   ZZ=            -16.9869
   XY=              3.6700   XZ=             -0.0878   YZ=             -0.0740

 Normal termination of Gaussian 16 at Fri Sep 22 16:34:58 2023.
