 Gaussian 16, Revision A.03,
 Gaussian 16:  ES64L-G16RevA.03 25-Dec-2016

 ----------------------------------------------------------------------
 #p b3lyp/gen scrf=(cpcm,solvent=toluene) pop=hirshfeld empiricaldisper
 sion=gd3bj
 ----------------------------------------------------------------------

 ------------------------
 tmpdir/M2_conf_0_346.gjf
 ------------------------
 Symbolic Z-matrix:
 Charge =  0 Multiplicity = 1

                         Standard orientation:
 ---------------------------------------------------------------------
 Center     Atomic      Atomic             Coordinates (Angstroms)
 Number     Number       Type             X           Y           Z
 ---------------------------------------------------------------------
      1          6           0       -0.622185    0.428123    0.001732
      2          6           0        0.583988   -0.347720   -0.029970
      3          1           0        0.399930   -1.405198    0.131119
      4          8           0       -1.715188   -0.186323   -0.006018
      5          1           0       -0.618711    1.444652    0.073917
      6          8           0        1.771183    0.121090    0.001567
 ---------------------------------------------------------------------

 SCF Done:  E(RB3LYP) =  -227.774307053     A.U. after   11 cycles

 The electronic state is 1-A.
 Alpha  occ. eigenvalues --  -19.17217 -19.17183 -10.30015 -10.29602  -1.08326
 Alpha  occ. eigenvalues --   -1.05867  -0.75225  -0.62722  -0.51564  -0.50008
 Alpha  occ. eigenvalues --   -0.46061  -0.44881  -0.38837  -0.33000  -0.29259
 Alpha virt. eigenvalues --   -0.14653  -0.00047   0.07243   0.08807   0.14337
 Alpha virt. eigenvalues --    0.23669   0.29177   0.38254   0.40866   0.44528
 Alpha virt. eigenvalues --    0.48000   0.55575   0.56840   0.59134   0.67652

 Mulliken charges:
               1
     1  C    0.284185
     2  C    0.240588
     3  H    0.096671
     4  O   -0.343483
     5  H    0.072897
     6  O   -0.350858
 Sum of Mulliken charges =  -0.00000

 Dipole moment (field-independent basis, Debye):
    X=             -0.3235    Y=              0.3941    Z=              0.0645  Tot=              0.5139
 Quadrupole moment (field-independent basis, Debye-Ang):
   XX=            -32.8288   YY=            -20.4380   ZZ=            -21.3503
   XY=             -2.2881   XZ=             -0.0283   YZ=             -0.0372

 Normal termination of Gaussian 16 at Fri Sep 22 16:36:18 2023.
