 Gaussian 16, Revision A.03,
 Gaussian 16:  ES64L-G16RevA.03 25-Dec-2016

 ----------------------------------------------------------------------
 #p b3lyp/gen scrf=(cpcm,solvent=toluene) pop=hirshfeld empiricaldisper
 sion=gd3bj
 ----------------------------------------------------------------------

 ------------------------
 tmpdir/M2_conf_0_229.gjf
 ------------------------
 Symbolic Z-matrix:
 Charge =  0 Multiplicity = 1

                         Standard orientation:
 ---------------------------------------------------------------------
 Center     Atomic      Atomic             Coordinates (Angstroms)
 Number     Number       Type             X           Y           Z
 ---------------------------------------------------------------------
      1          6           0        1.808338    0.115066    0.009019
      2          6           0        0.496833   -0.432690   -0.015019
      3          6           0       -0.670664    0.374736   -0.015897
      4          1           0        2.609018   -0.474859   -0.002425
      5          1           0        1.931154    1.196065    0.065115
      6          1           0        0.395539   -1.463117   -0.016931
      7          8           0       -1.772887   -0.131941    0.018737
      8          1           0       -0.559664    1.454770   -0.064275
 ---------------------------------------------------------------------

 SCF Done:  E(RB3LYP) =  -191.877086679     A.U. after   11 cycles

 The electronic state is 1-A.
 Alpha  occ. eigenvalues --  -19.12235 -10.26531 -10.21670 -10.20173  -1.05812
 Alpha  occ. eigenvalues --   -0.80411  -0.67178  -0.58863  -0.49227  -0.48608
 Alpha  occ. eigenvalues --   -0.43042  -0.41244  -0.40870  -0.29105  -0.26965
 Alpha virt. eigenvalues --   -0.08819   0.03819   0.06248   0.07296   0.10697
 Alpha virt. eigenvalues --    0.13315   0.20975   0.25422   0.29321   0.39697
 Alpha virt. eigenvalues --    0.41386   0.45448   0.46713   0.49452   0.50831

 Mulliken charges:
               1
     1  C   -0.025170
     2  C   -0.211331
     3  C    0.287391
     4  H    0.087153
     5  H    0.119023
     6  H    0.071246
     7  O   -0.378189
     8  H    0.049876
 Sum of Mulliken charges =  -0.00000

 Dipole moment (field-independent basis, Debye):
    X=              3.8035    Y=              0.8958    Z=             -0.0448  Tot=              3.9078
 Quadrupole moment (field-independent basis, Debye-Ang):
   XX=            -27.1198   YY=            -21.6516   ZZ=            -25.0888
   XY=             -1.0069   XZ=              0.1899   YZ=              0.0660

 Normal termination of Gaussian 16 at Fri Sep 22 16:35:13 2023.
