 Gaussian 16, Revision A.03,
 Gaussian 16:  ES64L-G16RevA.03 25-Dec-2016

 ----------------------------------------------------------------------
 #p b3lyp/gen scrf=(cpcm,solvent=toluene) pop=hirshfeld empiricaldisper
 sion=gd3bj
 ----------------------------------------------------------------------

 ------------------------
 tmpdir/M2_conf_0_294.gjf
 ------------------------
 Symbolic Z-matrix:
 Charge =  0 Multiplicity = 1

                         Standard orientation:
 ---------------------------------------------------------------------
 Center     Atomic      Atomic             Coordinates (Angstroms)
 Number     Number       Type             X           Y           Z
 ---------------------------------------------------------------------
      1          6           0       -0.713485    0.469044   -0.001387
      2          6           0        0.699730    0.509632   -0.003425
      3          6           0       -1.407731   -0.724998    0.000318
      4          1           0       -1.258965    1.406427    0.009640
      5          1           0        1.214576    1.400746    0.006927
      6          6           0        1.428884   -0.721540    0.001733
 ---------------------------------------------------------------------

 SCF Done:  E(RB3LYP) =  -153.285460902     A.U. after   12 cycles

 The electronic state is 1-A.
 Alpha  occ. eigenvalues --  -10.27990 -10.27087 -10.22528 -10.22286  -0.85699
 Alpha  occ. eigenvalues --   -0.73419  -0.61726  -0.51183  -0.49894  -0.36906
 Alpha  occ. eigenvalues --   -0.33351  -0.31394  -0.25549
 Alpha virt. eigenvalues --   -0.14458  -0.11727  -0.08285   0.04301   0.06029
 Alpha virt. eigenvalues --    0.09976   0.19533   0.26346   0.30782   0.36621
 Alpha virt. eigenvalues --    0.39230   0.43033   0.44638   0.45601   0.46207

 Mulliken charges:
               1
     1  C   -0.168436
     2  C   -0.129755
     3  C    0.000357
     4  H    0.164229
     5  H    0.124987
     6  C    0.008617
 Sum of Mulliken charges =  -0.00000

 Dipole moment (field-independent basis, Debye):
    X=              0.0406    Y=              3.9781    Z=              0.0209  Tot=              3.9784
 Quadrupole moment (field-independent basis, Debye-Ang):
   XX=            -25.7774   YY=            -24.3773   ZZ=            -26.6403
   XY=             -0.2186   XZ=             -0.0106   YZ=              0.0438

 Normal termination of Gaussian 16 at Fri Sep 22 16:36:17 2023.
