 Gaussian 16, Revision A.03,
 Gaussian 16:  ES64L-G16RevA.03 25-Dec-2016

 ----------------------------------------------------------------------
 #p b3lyp/gen scrf=(cpcm,solvent=toluene) pop=hirshfeld empiricaldisper
 sion=gd3bj
 ----------------------------------------------------------------------

 ------------------------
 tmpdir/M2_conf_0_241.gjf
 ------------------------
 Symbolic Z-matrix:
 Charge =  0 Multiplicity = 1

                         Standard orientation:
 ---------------------------------------------------------------------
 Center     Atomic      Atomic             Coordinates (Angstroms)
 Number     Number       Type             X           Y           Z
 ---------------------------------------------------------------------
      1          6           0        0.684725   -0.025851   -0.004588
      2          6           0       -0.688063   -0.010143    0.003141
      3          1           0        1.029531    1.020455    0.005405
      4          1           0        1.323493   -0.897787    0.011723
      5          1           0       -0.998775    0.973123   -0.001588
      6          1           0       -1.334223   -0.879829   -0.006858
 ---------------------------------------------------------------------

 SCF Done:  E(RB3LYP) =  -78.5685255067     A.U. after    9 cycles

 The electronic state is 1-A.
 Alpha  occ. eigenvalues --  -10.18485 -10.17875  -0.76550  -0.58077  -0.48825
 Alpha  occ. eigenvalues --   -0.40418  -0.37067  -0.27540
 Alpha virt. eigenvalues --   -0.00986   0.05960   0.09091   0.10042   0.16516
 Alpha virt. eigenvalues --    0.26357   0.34568   0.43435   0.43501   0.51302
 Alpha virt. eigenvalues --    0.52480   0.53788   0.61934   0.66554   0.68991

 Mulliken charges:
               1
     1  C   -0.220559
     2  C   -0.171614
     3  H    0.101606
     4  H    0.103396
     5  H    0.081540
     6  H    0.105631
 Sum of Mulliken charges =  -0.00000

 Dipole moment (field-independent basis, Debye):
    X=             -0.0180    Y=              0.0313    Z=              0.0096  Tot=              0.0373
 Quadrupole moment (field-independent basis, Debye-Ang):
   XX=            -12.8665   YY=            -12.0851   ZZ=            -15.7415
   XY=             -0.0339   XZ=              0.0349   YZ=              0.0002

 Normal termination of Gaussian 16 at Fri Sep 22 16:35:49 2023.
