 Gaussian 16, Revision A.03,
 Gaussian 16:  ES64L-G16RevA.03 25-Dec-2016

 ----------------------------------------------------------------------
 #p b3lyp/gen scrf=(cpcm,solvent=toluene) pop=hirshfeld empiricaldisper
 sion=gd3bj
 ----------------------------------------------------------------------

 ------------------------
 tmpdir/M2_conf_0_232.gjf
 ------------------------
 Symbolic Z-matrix:
 Charge =  0 Multiplicity = 1

                         Standard orientation:
 ---------------------------------------------------------------------
 Center     Atomic      Atomic             Coordinates (Angstroms)
 Number     Number       Type             X           Y           Z
 ---------------------------------------------------------------------
      1          7           0        0.736675   -0.005576   -0.037097
      2          6           0       -0.737069   -0.013947    0.009381
      3          1           0        1.263583    0.801048    0.060528
      4          1           0        1.317578   -0.788244    0.077481
      5          1           0       -1.213735   -0.610302   -0.808053
      6          1           0       -1.058088   -0.302103    1.037557
      7          1           0       -1.043648    1.022317   -0.164120
 ---------------------------------------------------------------------

 SCF Done:  E(RB3LYP) =  -95.8331389991     A.U. after    9 cycles

 The electronic state is 1-A.
 Alpha  occ. eigenvalues --  -14.27176 -10.20005  -0.85943  -0.66492  -0.48725
 Alpha  occ. eigenvalues --   -0.43545  -0.41846  -0.36897  -0.21152
 Alpha virt. eigenvalues --    0.05404   0.07999   0.10005   0.12188   0.15566
 Alpha virt. eigenvalues --    0.19983   0.38766   0.44480   0.46441   0.58733
 Alpha virt. eigenvalues --    0.61006   0.64134   0.65783   0.67129   0.71832

 Mulliken charges:
               1
     1  N   -0.516581
     2  C   -0.023919
     3  H    0.141039
     4  H    0.145117
     5  H    0.091816
     6  H    0.080824
     7  H    0.081704
 Sum of Mulliken charges =   0.00000

 Dipole moment (field-independent basis, Debye):
    X=              0.1234    Y=              0.1578    Z=              0.3914  Tot=              0.4397
 Quadrupole moment (field-independent basis, Debye-Ang):
   XX=            -12.5088   YY=            -12.7078   ZZ=            -15.5061
   XY=             -0.1310   XZ=              0.7774   YZ=             -0.0022

 Normal termination of Gaussian 16 at Fri Sep 22 16:35:34 2023.
