 Gaussian 16, Revision A.03,
 Gaussian 16:  ES64L-G16RevA.03 25-Dec-2016

 ----------------------------------------------------------------------
 #p b3lyp/gen scrf=(cpcm,solvent=toluene) pop=hirshfeld empiricaldisper
 sion=gd3bj
 ----------------------------------------------------------------------

 ------------------------
 tmpdir/M2_conf_0_396.gjf
 ------------------------
 Symbolic Z-matrix:
 Charge =  1 Multiplicity = 1

                         Standard orientation:
 ---------------------------------------------------------------------
 Center     Atomic      Atomic             Coordinates (Angstroms)
 Number     Number       Type             X           Y           Z
 ---------------------------------------------------------------------
      1          8           0        0.076020    0.464067   -0.000000
      2          1           0       -1.216326    1.281372    0.000000
      3          8           0        0.076020   -0.624238    0.000000
 ---------------------------------------------------------------------

 SCF Done:  E(RB3LYP) =  -150.442843376     A.U. after   10 cycles

 The electronic state is 1-A'.
 Alpha  occ. eigenvalues --  -19.58507 -19.53658  -1.67526  -1.03209  -0.83750
 Alpha  occ. eigenvalues --   -0.82533  -0.80567  -0.49272
 Alpha virt. eigenvalues --   -0.38415  -0.29414   0.13645   0.21316   0.48940
 Alpha virt. eigenvalues --    0.49158   0.53311   0.56677   0.63349   0.72443
 Alpha virt. eigenvalues --    0.82696   1.35795   1.46770   1.50691   1.58443

 Mulliken charges:
               1
     1  O    0.211255
     2  H    0.469852
     3  O    0.318893
 Sum of Mulliken charges =   1.00000

 Dipole moment (field-independent basis, Debye):
    X=             -2.4000    Y=              2.2997    Z=              0.0000  Tot=              3.3239
 Quadrupole moment (field-independent basis, Debye-Ang):
   XX=             -6.6143   YY=             -5.5142   ZZ=             -8.7080
   XY=             -3.5779   XZ=             -0.0000   YZ=              0.0000

 Normal termination of Gaussian 16 at Fri Sep 22 16:36:28 2023.
