 Gaussian 16, Revision A.03,
 Gaussian 16:  ES64L-G16RevA.03 25-Dec-2016

 ----------------------------------------------------------------------
 #p b3lyp/gen scrf=(cpcm,solvent=toluene) pop=hirshfeld empiricaldisper
 sion=gd3bj
 ----------------------------------------------------------------------

 -----------------------
 tmpdir/M2_conf_0_16.gjf
 -----------------------
 Symbolic Z-matrix:
 Charge =  0 Multiplicity = 1

                         Standard orientation:
 ---------------------------------------------------------------------
 Center     Atomic      Atomic             Coordinates (Angstroms)
 Number     Number       Type             X           Y           Z
 ---------------------------------------------------------------------
      1          6           0       -0.687433    0.481276   -0.002264
      2          6           0        0.709260    0.478402    0.001052
      3          6           0       -1.414407   -0.704636    0.001847
      4          1           0       -1.225667    1.427509   -0.003077
      5          6           0        1.386815   -0.728858   -0.001302
      6          1           0        1.260256    1.415385    0.007080
 ---------------------------------------------------------------------

 SCF Done:  E(RB3LYP) =  -153.292526164     A.U. after   13 cycles

 The electronic state is 1-A.
 Alpha  occ. eigenvalues --  -10.27186 -10.27166 -10.22371 -10.22302  -0.86287
 Alpha  occ. eigenvalues --   -0.73579  -0.61847  -0.50797  -0.49437  -0.37364
 Alpha  occ. eigenvalues --   -0.33311  -0.31286  -0.25639
 Alpha virt. eigenvalues --   -0.14417  -0.11479  -0.07952   0.04942   0.05655
 Alpha virt. eigenvalues --    0.09630   0.20129   0.26592   0.31517   0.36257
 Alpha virt. eigenvalues --    0.39088   0.43077   0.44017   0.44815   0.46121

 Mulliken charges:
               1
     1  C   -0.171443
     2  C   -0.151712
     3  C   -0.000843
     4  H    0.164222
     5  C   -0.000561
     6  H    0.160336
 Sum of Mulliken charges =  -0.00000

 Dipole moment (field-independent basis, Debye):
    X=              0.1256    Y=              4.0976    Z=              0.0052  Tot=              4.0996
 Quadrupole moment (field-independent basis, Debye-Ang):
   XX=            -25.7968   YY=            -24.2643   ZZ=            -26.5681
   XY=             -0.0258   XZ=              0.0381   YZ=              0.0101

 Normal termination of Gaussian 16 at Fri Sep 22 16:33:30 2023.
