 Gaussian 16, Revision A.03,
 Gaussian 16:  ES64L-G16RevA.03 25-Dec-2016

 ----------------------------------------------------------------------
 #p b3lyp/gen scrf=(cpcm,solvent=toluene) pop=hirshfeld empiricaldisper
 sion=gd3bj
 ----------------------------------------------------------------------

 ------------------------
 tmpdir/M2_conf_0_212.gjf
 ------------------------
 Symbolic Z-matrix:
 Charge =  0 Multiplicity = 1

                         Standard orientation:
 ---------------------------------------------------------------------
 Center     Atomic      Atomic             Coordinates (Angstroms)
 Number     Number       Type             X           Y           Z
 ---------------------------------------------------------------------
      1          6           0       -0.561247   -0.016285   -0.003937
      2          1           0       -1.122536    0.914045    0.007894
      3          8           0        0.693721    0.007563    0.000875
      4          1           0       -1.059755   -0.876841    0.008728
 ---------------------------------------------------------------------

 SCF Done:  E(RB3LYP) =  -114.476576848     A.U. after    9 cycles

 The electronic state is 1-A.
 Alpha  occ. eigenvalues --  -19.14124 -10.27367  -1.04327  -0.66236  -0.50928
 Alpha  occ. eigenvalues --   -0.44981  -0.39105  -0.27704
 Alpha virt. eigenvalues --   -0.06457   0.06636   0.11849   0.17421   0.40522
 Alpha virt. eigenvalues --    0.48187   0.52021   0.57176   0.62375   0.73274
 Alpha virt. eigenvalues --    0.79260   0.87481   0.97648   1.32314   1.49059

 Mulliken charges:
               1
     1  C    0.241887
     2  H    0.086708
     3  O   -0.393924
     4  H    0.065328
 Sum of Mulliken charges =   0.00000

 Dipole moment (field-independent basis, Debye):
    X=             -2.9489    Y=             -0.1124    Z=              0.0027  Tot=              2.9510
 Quadrupole moment (field-independent basis, Debye-Ang):
   XX=            -11.9157   YY=            -11.4818   ZZ=            -11.5722
   XY=              0.0584   XZ=             -0.0083   YZ=              0.0010

 Normal termination of Gaussian 16 at Fri Sep 22 16:34:49 2023.
