 Gaussian 16, Revision A.03,
 Gaussian 16:  ES64L-G16RevA.03 25-Dec-2016

 ----------------------------------------------------------------------
 #p b3lyp/gen scrf=(cpcm,solvent=toluene) pop=hirshfeld empiricaldisper
 sion=gd3bj
 ----------------------------------------------------------------------

 ------------------------
 tmpdir/M2_conf_0_185.gjf
 ------------------------
 Symbolic Z-matrix:
 Charge =  0 Multiplicity = 1

                         Standard orientation:
 ---------------------------------------------------------------------
 Center     Atomic      Atomic             Coordinates (Angstroms)
 Number     Number       Type             X           Y           Z
 ---------------------------------------------------------------------
      1          6           0       -0.759762   -0.020493    0.000780
      2          6           0        0.765354   -0.005419   -0.004765
      3          1           0        1.143100   -0.116335    1.018187
      4          1           0       -1.160858   -0.294284   -0.983758
      5          1           0       -1.174707   -0.684897    0.763047
      6          1           0       -1.029311    1.080776    0.245557
      7          1           0        1.008453    0.992765   -0.414350
      8          1           0        1.179771   -0.822556   -0.604770
 ---------------------------------------------------------------------

 SCF Done:  E(RB3LYP) =  -79.8137882409     A.U. after    9 cycles

 The electronic state is 1-A.
 Alpha  occ. eigenvalues --  -10.16912 -10.16476  -0.75583  -0.60595  -0.44490
 Alpha  occ. eigenvalues --   -0.43808  -0.35911  -0.34490  -0.33807
 Alpha virt. eigenvalues --    0.04599   0.09231   0.09557   0.09900   0.14721
 Alpha virt. eigenvalues --    0.15063   0.21128   0.36683   0.38943   0.40784
 Alpha virt. eigenvalues --    0.46461   0.48742   0.58873   0.61062   0.64032

 Mulliken charges:
               1
     1  C   -0.278031
     2  C   -0.252789
     3  H    0.087083
     4  H    0.090273
     5  H    0.089245
     6  H    0.086704
     7  H    0.089451
     8  H    0.088064
 Sum of Mulliken charges =   0.00000

 Dipole moment (field-independent basis, Debye):
    X=              0.0250    Y=             -0.0375    Z=              0.0054  Tot=              0.0454
 Quadrupole moment (field-independent basis, Debye-Ang):
   XX=            -16.4998   YY=            -14.8445   ZZ=            -14.9785
   XY=              0.0414   XZ=              0.1238   YZ=             -0.0407

 Normal termination of Gaussian 16 at Fri Sep 22 16:34:23 2023.
