 Gaussian 16, Revision A.03,
 Gaussian 16:  ES64L-G16RevA.03 25-Dec-2016

 ----------------------------------------------------------------------
 #p b3lyp/gen scrf=(cpcm,solvent=toluene) pop=hirshfeld empiricaldisper
 sion=gd3bj
 ----------------------------------------------------------------------

 ------------------------
 tmpdir/M2_conf_0_246.gjf
 ------------------------
 Symbolic Z-matrix:
 Charge =  0 Multiplicity = 1

                         Standard orientation:
 ---------------------------------------------------------------------
 Center     Atomic      Atomic             Coordinates (Angstroms)
 Number     Number       Type             X           Y           Z
 ---------------------------------------------------------------------
      1          6           0       -0.705776    0.555200   -0.006898
      2          6           0        0.718637    0.526886   -0.011047
      3          6           0       -1.149690   -0.768549   -0.005807
      4          1           0       -1.277985    1.441730    0.074531
      5          6           0        1.121429   -0.785900    0.013082
      6          1           0        1.370382    1.392445   -0.010513
 ---------------------------------------------------------------------

 SCF Done:  E(RB3LYP) =  -153.275437958     A.U. after   14 cycles

 The electronic state is 1-A.
 Alpha  occ. eigenvalues --  -10.27039 -10.26561 -10.22552 -10.22355  -0.87932
 Alpha  occ. eigenvalues --   -0.71797  -0.62051  -0.50489  -0.49919  -0.37779
 Alpha  occ. eigenvalues --   -0.35014  -0.30245  -0.24613
 Alpha virt. eigenvalues --   -0.16394  -0.08325  -0.06452   0.04308   0.06292
 Alpha virt. eigenvalues --    0.09178   0.18664   0.27254   0.28707   0.35383
 Alpha virt. eigenvalues --    0.40135   0.41877   0.44584   0.45620   0.46382

 Mulliken charges:
               1
     1  C   -0.102086
     2  C   -0.121922
     3  C   -0.029606
     4  H    0.136214
     5  C   -0.035181
     6  H    0.152581
 Sum of Mulliken charges =  -0.00000

 Dipole moment (field-independent basis, Debye):
    X=              0.0938    Y=              4.3131    Z=              0.0953  Tot=              4.3152
 Quadrupole moment (field-independent basis, Debye-Ang):
   XX=            -22.4932   YY=            -25.1505   ZZ=            -26.3882
   XY=              0.0697   XZ=             -0.4951   YZ=              0.1470

 Normal termination of Gaussian 16 at Fri Sep 22 16:35:25 2023.
