 Gaussian 16, Revision A.03,
 Gaussian 16:  ES64L-G16RevA.03 25-Dec-2016

 ----------------------------------------------------------------------
 #p b3lyp/gen scrf=(cpcm,solvent=toluene) pop=hirshfeld empiricaldisper
 sion=gd3bj
 ----------------------------------------------------------------------

 ------------------------
 tmpdir/M2_conf_0_336.gjf
 ------------------------
 Symbolic Z-matrix:
 Charge =  0 Multiplicity = 1

                         Standard orientation:
 ---------------------------------------------------------------------
 Center     Atomic      Atomic             Coordinates (Angstroms)
 Number     Number       Type             X           Y           Z
 ---------------------------------------------------------------------
      1          6           0        0.687234   -0.006886   -0.001488
      2          6           0       -0.688766   -0.007104   -0.000159
      3          1           0       -1.232949    0.935472    0.006133
      4          1           0        1.211764   -0.889894    0.008634
      5          1           0        1.239685    0.929835   -0.001361
      6          1           0       -1.209309   -0.891470   -0.003526
 ---------------------------------------------------------------------

 SCF Done:  E(RB3LYP) =  -78.5745532236     A.U. after    9 cycles

 The electronic state is 1-A.
 Alpha  occ. eigenvalues --  -10.18033 -10.17968  -0.76124  -0.59441  -0.47944
 Alpha  occ. eigenvalues --   -0.41828  -0.37366  -0.27421
 Alpha virt. eigenvalues --   -0.01170   0.06602   0.09601   0.10000   0.16170
 Alpha virt. eigenvalues --    0.27709   0.35764   0.41908   0.43563   0.51271
 Alpha virt. eigenvalues --    0.51789   0.55106   0.63605   0.65539   0.70643

 Mulliken charges:
               1
     1  C   -0.186913
     2  C   -0.183965
     3  H    0.102917
     4  H    0.082833
     5  H    0.102309
     6  H    0.082818
 Sum of Mulliken charges =  -0.00000

 Dipole moment (field-independent basis, Debye):
    X=              0.0042    Y=             -0.0265    Z=              0.0106  Tot=              0.0289
 Quadrupole moment (field-independent basis, Debye-Ang):
   XX=            -12.3603   YY=            -12.3137   ZZ=            -15.6546
   XY=              0.0054   XZ=              0.0061   YZ=             -0.0001

 Normal termination of Gaussian 16 at Fri Sep 22 16:36:15 2023.
