 Gaussian 16, Revision A.03,
 Gaussian 16:  ES64L-G16RevA.03 25-Dec-2016

 ----------------------------------------------------------------------
 #p b3lyp/gen scrf=(cpcm,solvent=toluene) pop=hirshfeld empiricaldisper
 sion=gd3bj
 ----------------------------------------------------------------------

 ------------------------
 tmpdir/M2_conf_0_391.gjf
 ------------------------
 Symbolic Z-matrix:
 Charge =  0 Multiplicity = 1

                         Standard orientation:
 ---------------------------------------------------------------------
 Center     Atomic      Atomic             Coordinates (Angstroms)
 Number     Number       Type             X           Y           Z
 ---------------------------------------------------------------------
      1          6           0       -0.689236   -0.007394   -0.001121
      2          6           0        0.687463   -0.006592    0.000106
      3          1           0        1.238180    0.933336    0.005616
      4          1           0       -1.205259   -0.892638    0.007903
      5          1           0       -1.235354    0.934197   -0.002658
      6          1           0        1.213073   -0.890980   -0.004770
 ---------------------------------------------------------------------

 SCF Done:  E(RB3LYP) =  -78.5744940658     A.U. after    9 cycles

 The electronic state is 1-A.
 Alpha  occ. eigenvalues --  -10.18053 -10.17982  -0.76109  -0.59417  -0.47948
 Alpha  occ. eigenvalues --   -0.41786  -0.37377  -0.27412
 Alpha virt. eigenvalues --   -0.01181   0.06588   0.09592   0.09997   0.16161
 Alpha virt. eigenvalues --    0.27667   0.35758   0.41947   0.43569   0.51263
 Alpha virt. eigenvalues --    0.51730   0.55033   0.63592   0.65515   0.70593

 Mulliken charges:
               1
     1  C   -0.182978
     2  C   -0.188820
     3  H    0.102808
     4  H    0.082228
     5  H    0.103175
     6  H    0.083587
 Sum of Mulliken charges =  -0.00000

 Dipole moment (field-independent basis, Debye):
    X=              0.0029    Y=             -0.0271    Z=              0.0066  Tot=              0.0280
 Quadrupole moment (field-independent basis, Debye-Ang):
   XX=            -12.3714   YY=            -12.3065   ZZ=            -15.6601
   XY=             -0.0034   XZ=             -0.0057   YZ=             -0.0002

 Normal termination of Gaussian 16 at Fri Sep 22 16:36:59 2023.
