 Gaussian 16, Revision A.03,
 Gaussian 16:  ES64L-G16RevA.03 25-Dec-2016

 ----------------------------------------------------------------------
 #p b3lyp/gen scrf=(cpcm,solvent=toluene) pop=hirshfeld empiricaldisper
 sion=gd3bj
 ----------------------------------------------------------------------

 ------------------------
 tmpdir/M2_conf_0_177.gjf
 ------------------------
 Symbolic Z-matrix:
 Charge =  0 Multiplicity = 1

                         Standard orientation:
 ---------------------------------------------------------------------
 Center     Atomic      Atomic             Coordinates (Angstroms)
 Number     Number       Type             X           Y           Z
 ---------------------------------------------------------------------
      1          6           0       -0.779830   -0.023423   -0.001373
      2          6           0        0.777042   -0.004534   -0.007599
      3          1           0        1.176314   -0.804750   -0.637738
      4          1           0       -1.037720    1.123506    0.067801
      5          1           0       -1.156551   -0.541882    0.903821
      6          1           0       -1.166444   -0.446728   -0.948597
      7          1           0        1.061954    1.008877   -0.346806
      8          1           0        1.139176   -0.171280    1.015353
 ---------------------------------------------------------------------

 SCF Done:  E(RB3LYP) =  -79.8103205618     A.U. after    9 cycles

 The electronic state is 1-A.
 Alpha  occ. eigenvalues --  -10.17517 -10.16607  -0.74900  -0.60473  -0.43967
 Alpha  occ. eigenvalues --   -0.43843  -0.35321  -0.34715  -0.33670
 Alpha virt. eigenvalues --    0.04389   0.08620   0.09332   0.09421   0.15563
 Alpha virt. eigenvalues --    0.16033   0.20129   0.37195   0.38550   0.39720
 Alpha virt. eigenvalues --    0.47942   0.51117   0.56983   0.60114   0.63129

 Mulliken charges:
               1
     1  C   -0.290726
     2  C   -0.259358
     3  H    0.089784
     4  H    0.088740
     5  H    0.096330
     6  H    0.097155
     7  H    0.091886
     8  H    0.086189
 Sum of Mulliken charges =  -0.00000

 Dipole moment (field-independent basis, Debye):
    X=              0.0616    Y=             -0.0339    Z=              0.0240  Tot=              0.0743
 Quadrupole moment (field-independent basis, Debye-Ang):
   XX=            -16.6743   YY=            -14.8931   ZZ=            -14.9184
   XY=              0.0799   XZ=              0.0719   YZ=             -0.0036

 Normal termination of Gaussian 16 at Fri Sep 22 16:34:32 2023.
