 Gaussian 16, Revision A.03,
 Gaussian 16:  ES64L-G16RevA.03 25-Dec-2016

 ----------------------------------------------------------------------
 #p b3lyp/gen scrf=(cpcm,solvent=toluene) pop=hirshfeld empiricaldisper
 sion=gd3bj
 ----------------------------------------------------------------------

 -----------------------
 tmpdir/M2_conf_0_17.gjf
 -----------------------
 Symbolic Z-matrix:
 Charge =  0 Multiplicity = 1

                         Standard orientation:
 ---------------------------------------------------------------------
 Center     Atomic      Atomic             Coordinates (Angstroms)
 Number     Number       Type             X           Y           Z
 ---------------------------------------------------------------------
      1          6           0        0.547175   -0.013659   -0.000666
      2          1           0        1.086648    0.931520    0.001330
      3          8           0       -0.678991    0.004663    0.000150
      4          1           0        1.062231   -0.886873    0.001464
 ---------------------------------------------------------------------

 SCF Done:  E(RB3LYP) =  -114.481729540     A.U. after    9 cycles

 The electronic state is 1-A.
 Alpha  occ. eigenvalues --  -19.13927 -10.27132  -1.05763  -0.65400  -0.51157
 Alpha  occ. eigenvalues --   -0.45279  -0.39923  -0.27499
 Alpha virt. eigenvalues --   -0.05638   0.06589   0.11859   0.17952   0.40388
 Alpha virt. eigenvalues --    0.47724   0.52710   0.59782   0.62512   0.72855
 Alpha virt. eigenvalues --    0.78456   0.87630   0.97937   1.32107   1.50147

 Mulliken charges:
               1
     1  C    0.228372
     2  H    0.079350
     3  O   -0.374198
     4  H    0.066476
 Sum of Mulliken charges =  -0.00000

 Dipole moment (field-independent basis, Debye):
    X=              2.8137    Y=             -0.1013    Z=              0.0004  Tot=              2.8155
 Quadrupole moment (field-independent basis, Debye-Ang):
   XX=            -12.0234   YY=            -11.4699   ZZ=            -11.5249
   XY=             -0.0882   XZ=              0.0014   YZ=              0.0002

 Normal termination of Gaussian 16 at Fri Sep 22 16:33:33 2023.
