 Gaussian 16, Revision A.03,
 Gaussian 16:  ES64L-G16RevA.03 25-Dec-2016

 ----------------------------------------------------------------------
 #p b3lyp/gen scrf=(cpcm,solvent=toluene) pop=hirshfeld empiricaldisper
 sion=gd3bj
 ----------------------------------------------------------------------

 ------------------------
 tmpdir/M2_conf_0_394.gjf
 ------------------------
 Symbolic Z-matrix:
 Charge =  0 Multiplicity = 1

                         Standard orientation:
 ---------------------------------------------------------------------
 Center     Atomic      Atomic             Coordinates (Angstroms)
 Number     Number       Type             X           Y           Z
 ---------------------------------------------------------------------
      1          6           0       -0.707146    0.495349    0.002257
      2          6           0        0.708335    0.495535   -0.004962
      3          1           0        1.246676    1.441584   -0.009267
      4          8           0       -1.321711   -0.551126   -0.002564
      5          1           0       -1.242718    1.442501    0.017806
      6          8           0        1.320324   -0.552547    0.003525
 ---------------------------------------------------------------------

 SCF Done:  E(RB3LYP) =  -227.778798033     A.U. after   10 cycles

 The electronic state is 1-A.
 Alpha  occ. eigenvalues --  -19.16138 -19.16132 -10.28746 -10.28703  -1.10711
 Alpha  occ. eigenvalues --   -1.07084  -0.75285  -0.57908  -0.55980  -0.48450
 Alpha  occ. eigenvalues --   -0.46345  -0.45820  -0.39304  -0.31837  -0.28546
 Alpha virt. eigenvalues --   -0.13445   0.02882   0.05815   0.09274   0.15226
 Alpha virt. eigenvalues --    0.26035   0.32325   0.37937   0.38633   0.44551
 Alpha virt. eigenvalues --    0.50618   0.56892   0.58833   0.63413   0.66107

 Mulliken charges:
               1
     1  C    0.234547
     2  C    0.233828
     3  H    0.068439
     4  O   -0.302333
     5  H    0.067911
     6  O   -0.302393
 Sum of Mulliken charges =  -0.00000

 Dipole moment (field-independent basis, Debye):
    X=              0.0080    Y=              4.1491    Z=             -0.0028  Tot=              4.1491
 Quadrupole moment (field-independent basis, Debye-Ang):
   XX=            -26.5874   YY=            -21.7175   ZZ=            -21.1672
   XY=              0.0108   XZ=             -0.0294   YZ=              0.0024

 Normal termination of Gaussian 16 at Fri Sep 22 16:37:22 2023.
