 Gaussian 16, Revision A.03,
 Gaussian 16:  ES64L-G16RevA.03 25-Dec-2016

 ----------------------------------------------------------------------
 #p b3lyp/gen scrf=(cpcm,solvent=toluene) pop=hirshfeld empiricaldisper
 sion=gd3bj
 ----------------------------------------------------------------------

 -----------------------
 tmpdir/M2_conf_0_18.gjf
 -----------------------
 Symbolic Z-matrix:
 Charge =  0 Multiplicity = 1

                         Standard orientation:
 ---------------------------------------------------------------------
 Center     Atomic      Atomic             Coordinates (Angstroms)
 Number     Number       Type             X           Y           Z
 ---------------------------------------------------------------------
      1          6           0       -1.418330   -0.469518    0.000480
      2          6           0       -0.583047    0.642765   -0.002375
      3          6           0        0.807926    0.479741    0.001455
      4          1           0       -1.014202   -1.399170    0.005202
      5          1           0       -2.494684   -0.334398    0.002738
      6          1           0       -1.029885    1.635429   -0.002621
      7          8           0        1.279628   -0.645919   -0.001406
      8          1           0        1.462454    1.347563    0.008564
 ---------------------------------------------------------------------

 SCF Done:  E(RB3LYP) =  -191.879014462     A.U. after   11 cycles

 The electronic state is 1-A.
 Alpha  occ. eigenvalues --  -19.11819 -10.26296 -10.20902 -10.19652  -1.05395
 Alpha  occ. eigenvalues --   -0.80107  -0.67871  -0.55647  -0.52635  -0.45897
 Alpha  occ. eigenvalues --   -0.42843  -0.41150  -0.39770  -0.28689  -0.26903
 Alpha virt. eigenvalues --   -0.09207   0.05438   0.05661   0.08204   0.10833
 Alpha virt. eigenvalues --    0.13394   0.21868   0.25060   0.29316   0.40160
 Alpha virt. eigenvalues --    0.41664   0.45341   0.46182   0.47908   0.51617

 Mulliken charges:
               1
     1  C    0.002755
     2  C   -0.278825
     3  C    0.308583
     4  H    0.085061
     5  H    0.121035
     6  H    0.087819
     7  O   -0.383819
     8  H    0.057390
 Sum of Mulliken charges =  -0.00000

 Dipole moment (field-independent basis, Debye):
    X=             -2.3568    Y=              2.0267    Z=              0.0139  Tot=              3.1084
 Quadrupole moment (field-independent basis, Debye-Ang):
   XX=            -23.7516   YY=            -22.5892   ZZ=            -24.9969
   XY=              3.5166   XZ=             -0.0010   YZ=             -0.0072

 Normal termination of Gaussian 16 at Fri Sep 22 16:32:35 2023.
