 Gaussian 16, Revision A.03,
 Gaussian 16:  ES64L-G16RevA.03 25-Dec-2016

 ----------------------------------------------------------------------
 #p b3lyp/gen scrf=(cpcm,solvent=toluene) pop=hirshfeld empiricaldisper
 sion=gd3bj
 ----------------------------------------------------------------------

 ------------------------
 tmpdir/M2_conf_0_263.gjf
 ------------------------
 Symbolic Z-matrix:
 Charge =  0 Multiplicity = 1

                         Standard orientation:
 ---------------------------------------------------------------------
 Center     Atomic      Atomic             Coordinates (Angstroms)
 Number     Number       Type             X           Y           Z
 ---------------------------------------------------------------------
      1          1           0        0.788698   -0.584279   -0.489991
      2          6           0       -0.005071   -0.000046   -0.010368
      3          1           0        0.335922    1.039291    0.076592
      4          1           0       -0.953343   -0.058644   -0.526037
      5          1           0       -0.140851   -0.396092    1.001644
 ---------------------------------------------------------------------

 SCF Done:  E(RB3LYP) =  -40.5135893846     A.U. after    7 cycles

 The electronic state is 1-A.
 Alpha  occ. eigenvalues --  -10.16117  -0.69494  -0.40180  -0.39083  -0.38772
 Alpha virt. eigenvalues --    0.05755   0.12552   0.12597   0.12782   0.36953
 Alpha virt. eigenvalues --    0.37474   0.38586   0.63692   0.63766   0.64784
 Alpha virt. eigenvalues --    0.68298   0.96227   1.28424   1.29359   1.83968

 Mulliken charges:
               1
     1  H    0.088244
     2  C   -0.346891
     3  H    0.086410
     4  H    0.089982
     5  H    0.082256
 Sum of Mulliken charges =  -0.00000

 Dipole moment (field-independent basis, Debye):
    X=              0.0076    Y=             -0.0029    Z=              0.0383  Tot=              0.0391
 Quadrupole moment (field-independent basis, Debye-Ang):
   XX=             -8.2930   YY=             -8.4738   ZZ=             -8.5523
   XY=             -0.0017   XZ=              0.0265   YZ=              0.0087

 Normal termination of Gaussian 16 at Fri Sep 22 16:34:52 2023.
