 Gaussian 16, Revision A.03,
 Gaussian 16:  ES64L-G16RevA.03 25-Dec-2016

 ----------------------------------------------------------------------
 #p b3lyp/gen scrf=(cpcm,solvent=toluene) pop=hirshfeld empiricaldisper
 sion=gd3bj
 ----------------------------------------------------------------------

 ------------------------
 tmpdir/M2_conf_0_244.gjf
 ------------------------
 Symbolic Z-matrix:
 Charge =  0 Multiplicity = 1

                         Standard orientation:
 ---------------------------------------------------------------------
 Center     Atomic      Atomic             Coordinates (Angstroms)
 Number     Number       Type             X           Y           Z
 ---------------------------------------------------------------------
      1          7           0        1.080026   -0.795398    0.030518
      2          6           0        0.001279    0.098677   -0.007126
      3          6           0       -1.444958   -0.273094    0.004842
      4          1           0        1.909607   -0.295814    0.034297
      5          1           0        1.032216   -1.805577   -0.175088
      6          8           0        0.456251    1.220737   -0.011750
      7          1           0       -2.033419    0.636165   -0.157710
      8          1           0       -1.717741   -0.987836   -0.780115
      9          1           0       -1.738778   -0.698549    0.972689
 ---------------------------------------------------------------------

 SCF Done:  E(RB3LYP) =  -209.180040032     A.U. after   11 cycles

 The electronic state is 1-A.
 Alpha  occ. eigenvalues --  -19.08567 -14.32268 -10.28473 -10.19179  -1.05665
 Alpha  occ. eigenvalues --   -0.88287  -0.75593  -0.57747  -0.53841  -0.47911
 Alpha  occ. eigenvalues --   -0.45582  -0.42314  -0.40039  -0.37859  -0.26851
 Alpha  occ. eigenvalues --   -0.25693
 Alpha virt. eigenvalues --    0.01107   0.03994   0.07975   0.10386   0.11441
 Alpha virt. eigenvalues --    0.12125   0.18931   0.25621   0.30317   0.41061
 Alpha virt. eigenvalues --    0.41790   0.46331   0.47722   0.49590   0.50941

 Mulliken charges:
               1
     1  N   -0.360680
     2  C    0.226894
     3  C   -0.148497
     4  H    0.167336
     5  H    0.182949
     6  O   -0.434182
     7  H    0.114929
     8  H    0.120357
     9  H    0.130895
 Sum of Mulliken charges =  -0.00000

 Dipole moment (field-independent basis, Debye):
    X=             -1.0003    Y=             -3.8532    Z=             -0.3114  Tot=              3.9931
 Quadrupole moment (field-independent basis, Debye-Ang):
   XX=            -20.4253   YY=            -26.0938   ZZ=            -24.9372
   XY=             -1.9147   XZ=             -0.3665   YZ=              0.7413

 Normal termination of Gaussian 16 at Fri Sep 22 16:35:03 2023.
