 Gaussian 16, Revision A.03,
 Gaussian 16:  ES64L-G16RevA.03 25-Dec-2016

 ----------------------------------------------------------------------
 #p b3lyp/gen scrf=(cpcm,solvent=toluene) pop=hirshfeld empiricaldisper
 sion=gd3bj
 ----------------------------------------------------------------------

 ------------------------
 tmpdir/M2_conf_0_233.gjf
 ------------------------
 Symbolic Z-matrix:
 Charge =  0 Multiplicity = 1

                         Standard orientation:
 ---------------------------------------------------------------------
 Center     Atomic      Atomic             Coordinates (Angstroms)
 Number     Number       Type             X           Y           Z
 ---------------------------------------------------------------------
      1          6           0        1.142352    0.250688   -0.002135
      2          7           0        0.035404    1.079755   -0.018867
      3          6           0       -1.128583    0.299044   -0.008570
      4          8           0        0.735368   -0.910780    0.019332
      5          1           0        2.156206    0.566945   -0.114830
      6          1           0        0.084987    2.089110    0.190322
      7          8           0       -0.789312   -0.863212    0.000605
      8          1           0       -2.140084    0.679196   -0.038683
 ---------------------------------------------------------------------

 SCF Done:  E(RB3LYP) =  -282.915746865     A.U. after   20 cycles

 The electronic state is 1-A.
 Alpha  occ. eigenvalues --  -19.10833 -19.09788 -14.37943 -10.28693 -10.27246
 Alpha  occ. eigenvalues --   -1.15960  -1.01085  -0.94077  -0.66992  -0.63975
 Alpha  occ. eigenvalues --   -0.60139  -0.50425  -0.48864  -0.47908  -0.39144
 Alpha  occ. eigenvalues --   -0.36765  -0.35544  -0.32346  -0.08882
 Alpha virt. eigenvalues --   -0.02506   0.00380   0.04022   0.07783   0.08668
 Alpha virt. eigenvalues --    0.18159   0.21468   0.22260   0.29129   0.38498
 Alpha virt. eigenvalues --    0.43233   0.43657   0.45168   0.48972   0.58414

 Mulliken charges:
               1
     1  C    0.349671
     2  N   -0.433227
     3  C    0.373935
     4  O   -0.329243
     5  H    0.053298
     6  H    0.212332
     7  O   -0.294598
     8  H    0.067832
 Sum of Mulliken charges =  -0.00000

 Dipole moment (field-independent basis, Debye):
    X=             -0.2224    Y=              5.3022    Z=              0.3915  Tot=              5.3213
 Quadrupole moment (field-independent basis, Debye-Ang):
   XX=            -26.1959   YY=            -27.4976   ZZ=            -28.8735
   XY=              0.0679   XZ=             -0.0139   YZ=              1.2990

 Normal termination of Gaussian 16 at Fri Sep 22 16:36:00 2023.
