 Gaussian 16, Revision A.03,
 Gaussian 16:  ES64L-G16RevA.03 25-Dec-2016

 ----------------------------------------------------------------------
 #p b3lyp/gen scrf=(cpcm,solvent=toluene) pop=hirshfeld empiricaldisper
 sion=gd3bj
 ----------------------------------------------------------------------

 ------------------------
 tmpdir/M2_conf_0_292.gjf
 ------------------------
 Symbolic Z-matrix:
 Charge =  0 Multiplicity = 1

                         Standard orientation:
 ---------------------------------------------------------------------
 Center     Atomic      Atomic             Coordinates (Angstroms)
 Number     Number       Type             X           Y           Z
 ---------------------------------------------------------------------
      1          6           0       -1.315729   -0.395125    0.317666
      2          6           0        0.040450    0.167071    0.170968
      3          6           0        1.187214   -0.661584    0.019640
      4          1           0       -1.676976   -0.957496    1.175004
      5          8           0       -2.276054   -0.194916   -0.425843
      6          8           0        0.138736    1.377947    0.087831
      7          8           0        2.277971   -0.178285   -0.199545
      8          1           0        1.080141   -1.742646    0.075806
 ---------------------------------------------------------------------

 SCF Done:  E(RB3LYP) =  -341.061366224     A.U. after   14 cycles

 The electronic state is 1-A.
 Alpha  occ. eigenvalues --  -19.18319 -19.17542 -19.16432 -10.31215 -10.30383
 Alpha  occ. eigenvalues --  -10.30246  -1.12829  -1.09371  -1.07775  -0.79681
 Alpha  occ. eigenvalues --   -0.67935  -0.58561  -0.57161  -0.50535  -0.49910
 Alpha  occ. eigenvalues --   -0.47844  -0.46211  -0.42336  -0.40536  -0.34633
 Alpha  occ. eigenvalues --   -0.31926  -0.28101
 Alpha virt. eigenvalues --   -0.15663  -0.08031   0.01035   0.05595   0.08281
 Alpha virt. eigenvalues --    0.16927   0.20197   0.23759   0.27250   0.31274
 Alpha virt. eigenvalues --    0.38660   0.39279   0.44412   0.46943   0.52034

 Mulliken charges:
               1
     1  C    0.249667
     2  C    0.181020
     3  C    0.277966
     4  H    0.097516
     5  O   -0.326152
     6  O   -0.267915
     7  O   -0.289288
     8  H    0.077186
 Sum of Mulliken charges =  -0.00000

 Dipole moment (field-independent basis, Debye):
    X=             -0.1972    Y=             -3.6223    Z=              2.0925  Tot=              4.1879
 Quadrupole moment (field-independent basis, Debye-Ang):
   XX=            -45.1132   YY=            -33.4796   ZZ=            -31.2468
   XY=             -0.9875   XZ=             -2.3182   YZ=             -0.7217

 Normal termination of Gaussian 16 at Fri Sep 22 16:35:54 2023.
