 Gaussian 16, Revision A.03,
 Gaussian 16:  ES64L-G16RevA.03 25-Dec-2016

 ----------------------------------------------------------------------
 #p b3lyp/gen scrf=(cpcm,solvent=toluene) pop=hirshfeld empiricaldisper
 sion=gd3bj
 ----------------------------------------------------------------------

 ------------------------
 tmpdir/M2_conf_0_195.gjf
 ------------------------
 Symbolic Z-matrix:
 Charge =  0 Multiplicity = 1

                         Standard orientation:
 ---------------------------------------------------------------------
 Center     Atomic      Atomic             Coordinates (Angstroms)
 Number     Number       Type             X           Y           Z
 ---------------------------------------------------------------------
      1          6           0        0.760761   -0.025597    0.002340
      2          6           0       -0.771140   -0.001697   -0.003801
      3          1           0       -1.172870   -0.449565   -0.916553
      4          1           0        1.156518    0.403336    0.966573
      5          1           0        1.167910    0.742472   -0.792041
      6          1           0        1.189854   -1.029784   -0.180377
      7          1           0       -1.165001   -0.539841    0.865586
      8          1           0       -1.114137    1.037145    0.065579
 ---------------------------------------------------------------------

 SCF Done:  E(RB3LYP) =  -79.8172891993     A.U. after    9 cycles

 The electronic state is 1-A.
 Alpha  occ. eigenvalues --  -10.17688 -10.16625  -0.75114  -0.60932  -0.43934
 Alpha  occ. eigenvalues --   -0.42902  -0.36810  -0.34878  -0.33394
 Alpha virt. eigenvalues --    0.04738   0.08919   0.09936   0.10361   0.13395
 Alpha virt. eigenvalues --    0.13948   0.21314   0.37353   0.38300   0.39405
 Alpha virt. eigenvalues --    0.46404   0.48249   0.58061   0.60766   0.63346

 Mulliken charges:
               1
     1  C   -0.295877
     2  C   -0.242236
     3  H    0.089816
     4  H    0.089112
     5  H    0.087381
     6  H    0.097680
     7  H    0.087448
     8  H    0.086676
 Sum of Mulliken charges =  -0.00000

 Dipole moment (field-independent basis, Debye):
    X=             -0.0669    Y=              0.0166    Z=              0.0487  Tot=              0.0845
 Quadrupole moment (field-independent basis, Debye-Ang):
   XX=            -16.0488   YY=            -14.9232   ZZ=            -15.2421
   XY=             -0.0153   XZ=              0.0612   YZ=              0.0980

 Normal termination of Gaussian 16 at Fri Sep 22 16:34:45 2023.
