 Gaussian 16, Revision A.03,
 Gaussian 16:  ES64L-G16RevA.03 25-Dec-2016

 ----------------------------------------------------------------------
 #p b3lyp/gen scrf=(cpcm,solvent=toluene) pop=hirshfeld empiricaldisper
 sion=gd3bj
 ----------------------------------------------------------------------

 ------------------------
 tmpdir/M2_conf_0_165.gjf
 ------------------------
 Symbolic Z-matrix:
 Charge =  0 Multiplicity = 1

                         Standard orientation:
 ---------------------------------------------------------------------
 Center     Atomic      Atomic             Coordinates (Angstroms)
 Number     Number       Type             X           Y           Z
 ---------------------------------------------------------------------
      1          6           0       -0.735464   -0.001782   -0.004127
      2          7           0        0.738688   -0.029531    0.011846
      3          1           0       -0.959245    0.991033   -0.432221
      4          1           0       -1.122926   -0.093086    1.018958
      5          1           0       -1.117865   -0.823313   -0.615277
      6          1           0        1.281355   -0.787976   -0.027115
      7          1           0        1.160645    0.930755   -0.002504
 ---------------------------------------------------------------------

 SCF Done:  E(RB3LYP) =  -95.8272360783     A.U. after    9 cycles

 The electronic state is 1-A.
 Alpha  occ. eigenvalues --  -14.27213 -10.19372  -0.85701  -0.65913  -0.50353
 Alpha  occ. eigenvalues --   -0.41756  -0.41435  -0.37886  -0.20760
 Alpha virt. eigenvalues --    0.04803   0.08431   0.09901   0.12526   0.15788
 Alpha virt. eigenvalues --    0.19969   0.41469   0.43741   0.45046   0.54753
 Alpha virt. eigenvalues --    0.60683   0.62563   0.65300   0.70848   0.71999

 Mulliken charges:
               1
     1  C   -0.021247
     2  N   -0.528708
     3  H    0.083185
     4  H    0.075580
     5  H    0.084471
     6  H    0.129985
     7  H    0.176735
 Sum of Mulliken charges =  -0.00000

 Dipole moment (field-independent basis, Debye):
    X=              0.0676    Y=              0.1735    Z=             -0.1873  Tot=              0.2641
 Quadrupole moment (field-independent basis, Debye-Ang):
   XX=            -13.2416   YY=            -12.0236   ZZ=            -15.6897
   XY=              0.0809   XZ=             -0.0656   YZ=              0.0259

 Normal termination of Gaussian 16 at Fri Sep 22 16:33:56 2023.
