 Gaussian 16, Revision A.03,
 Gaussian 16:  ES64L-G16RevA.03 25-Dec-2016

 ----------------------------------------------------------------------
 #p b3lyp/gen scrf=(cpcm,solvent=toluene) pop=hirshfeld empiricaldisper
 sion=gd3bj
 ----------------------------------------------------------------------

 ------------------------
 tmpdir/M2_conf_0_121.gjf
 ------------------------
 Symbolic Z-matrix:
 Charge =  0 Multiplicity = 1

                         Standard orientation:
 ---------------------------------------------------------------------
 Center     Atomic      Atomic             Coordinates (Angstroms)
 Number     Number       Type             X           Y           Z
 ---------------------------------------------------------------------
      1          6           0        1.263115   -0.268603   -0.000503
      2          6           0       -0.011842    0.638396    0.010550
      3          6           0       -1.241512   -0.285130   -0.001059
      4          1           0        1.267641   -0.985051    0.879533
      5          1           0        1.224804   -0.873608   -0.907580
      6          1           0        2.196287    0.327194    0.009515
      7          1           0       -0.015179    1.256127   -0.914563
      8          1           0       -0.057165    1.307241    0.898883
      9          1           0       -1.205873   -0.981112   -0.849687
     10          1           0       -1.313392   -0.874632    0.919512
     11          1           0       -2.155688    0.315859   -0.089542
 ---------------------------------------------------------------------

 SCF Done:  E(RB3LYP) =  -119.130026722     A.U. after   10 cycles

 The electronic state is 1-A.
 Alpha  occ. eigenvalues --  -10.17558 -10.16903 -10.16314  -0.77774  -0.67482
 Alpha  occ. eigenvalues --   -0.58296  -0.45700  -0.43515  -0.39606  -0.37830
 Alpha  occ. eigenvalues --   -0.34309  -0.33394  -0.33027
 Alpha virt. eigenvalues --    0.04668   0.08515   0.08792   0.08824   0.11607
 Alpha virt. eigenvalues --    0.13310   0.14381   0.15544   0.18682   0.22497
 Alpha virt. eigenvalues --    0.38053   0.38956   0.39486   0.40473   0.40957

 Mulliken charges:
               1
     1  C   -0.229291
     2  C   -0.250207
     3  C   -0.216970
     4  H    0.087615
     5  H    0.083206
     6  H    0.090278
     7  H    0.091459
     8  H    0.093566
     9  H    0.082016
    10  H    0.084737
    11  H    0.083593
 Sum of Mulliken charges =  -0.00000

 Dipole moment (field-independent basis, Debye):
    X=             -0.0469    Y=              0.0544    Z=             -0.0457  Tot=              0.0851
 Quadrupole moment (field-independent basis, Debye-Ang):
   XX=            -22.8995   YY=            -22.2456   ZZ=            -21.6607
   XY=             -0.0052   XZ=             -0.0597   YZ=              0.0056

 Normal termination of Gaussian 16 at Fri Sep 22 16:34:32 2023.
