 Gaussian 16, Revision A.03,
 Gaussian 16:  ES64L-G16RevA.03 25-Dec-2016

 ----------------------------------------------------------------------
 #p b3lyp/gen scrf=(cpcm,solvent=toluene) pop=hirshfeld empiricaldisper
 sion=gd3bj
 ----------------------------------------------------------------------

 ------------------------
 tmpdir/M2_conf_0_153.gjf
 ------------------------
 Symbolic Z-matrix:
 Charge =  0 Multiplicity = 1

                         Standard orientation:
 ---------------------------------------------------------------------
 Center     Atomic      Atomic             Coordinates (Angstroms)
 Number     Number       Type             X           Y           Z
 ---------------------------------------------------------------------
      1          6           0        0.743007   -0.009702   -0.001340
      2          7           0       -0.755195   -0.023998    0.008069
      3          1           0        0.965975    1.094266   -0.044789
      4          1           0        1.122254   -0.443763    0.946216
      5          1           0        1.125420   -0.518727   -0.907185
      6          1           0       -1.223276   -0.830982   -0.022263
      7          1           0       -1.162050    0.925404   -0.020421
 ---------------------------------------------------------------------

 SCF Done:  E(RB3LYP) =  -95.8261630360     A.U. after    9 cycles

 The electronic state is 1-A.
 Alpha  occ. eigenvalues --  -14.27268 -10.19829  -0.85412  -0.65399  -0.50929
 Alpha  occ. eigenvalues --   -0.41703  -0.40690  -0.37451  -0.21033
 Alpha virt. eigenvalues --    0.04585   0.08246   0.10011   0.12288   0.15611
 Alpha virt. eigenvalues --    0.19358   0.40884   0.44186   0.45364   0.53236
 Alpha virt. eigenvalues --    0.59945   0.61863   0.63563   0.71407   0.71739

 Mulliken charges:
               1
     1  C   -0.051360
     2  N   -0.520632
     3  H    0.084334
     4  H    0.086539
     5  H    0.086603
     6  H    0.134258
     7  H    0.180259
 Sum of Mulliken charges =  -0.00000

 Dipole moment (field-independent basis, Debye):
    X=              0.0010    Y=              0.1968    Z=             -0.1302  Tot=              0.2360
 Quadrupole moment (field-independent basis, Debye-Ang):
   XX=            -13.5713   YY=            -11.9968   ZZ=            -15.6053
   XY=             -0.0364   XZ=              0.1342   YZ=              0.0083

 Normal termination of Gaussian 16 at Fri Sep 22 16:33:40 2023.
