 Gaussian 16, Revision A.03,
 Gaussian 16:  ES64L-G16RevA.03 25-Dec-2016

 ----------------------------------------------------------------------
 #p b3lyp/gen scrf=(cpcm,solvent=toluene) pop=hirshfeld empiricaldisper
 sion=gd3bj
 ----------------------------------------------------------------------

 -----------------------
 tmpdir/M2_conf_0_12.gjf
 -----------------------
 Symbolic Z-matrix:
 Charge =  0 Multiplicity = 1

                         Standard orientation:
 ---------------------------------------------------------------------
 Center     Atomic      Atomic             Coordinates (Angstroms)
 Number     Number       Type             X           Y           Z
 ---------------------------------------------------------------------
      1          6           0       -0.547991   -0.013122   -0.000673
      2          1           0       -1.103355    0.921761    0.001369
      3          1           0       -1.033813   -0.902816    0.001466
      4          8           0        0.678139    0.007473    0.000150
 ---------------------------------------------------------------------

 SCF Done:  E(RB3LYP) =  -114.481601224     A.U. after    9 cycles

 The electronic state is 1-A.
 Alpha  occ. eigenvalues --  -19.13875 -10.27095  -1.05748  -0.65308  -0.51277
 Alpha  occ. eigenvalues --   -0.45210  -0.39901  -0.27478
 Alpha virt. eigenvalues --   -0.05615   0.06594   0.11822   0.17984   0.40398
 Alpha virt. eigenvalues --    0.47318   0.53058   0.60204   0.62319   0.72948
 Alpha virt. eigenvalues --    0.78455   0.87660   0.98022   1.31968   1.50346

 Mulliken charges:
               1
     1  C    0.228051
     2  H    0.081632
     3  H    0.065338
     4  O   -0.375021
 Sum of Mulliken charges =  -0.00000

 Dipole moment (field-independent basis, Debye):
    X=             -2.8130    Y=             -0.0990    Z=              0.0004  Tot=              2.8148
 Quadrupole moment (field-independent basis, Debye-Ang):
   XX=            -12.0408   YY=            -11.4416   ZZ=            -11.5255
   XY=              0.0357   XZ=             -0.0014   YZ=              0.0001

 Normal termination of Gaussian 16 at Fri Sep 22 16:32:53 2023.
