 Gaussian 16, Revision A.03,
 Gaussian 16:  ES64L-G16RevA.03 25-Dec-2016

 ----------------------------------------------------------------------
 #p b3lyp/gen scrf=(cpcm,solvent=toluene) pop=hirshfeld empiricaldisper
 sion=gd3bj
 ----------------------------------------------------------------------

 -----------------------
 tmpdir/M2_conf_0_22.gjf
 -----------------------
 Symbolic Z-matrix:
 Charge =  0 Multiplicity = 1

                         Standard orientation:
 ---------------------------------------------------------------------
 Center     Atomic      Atomic             Coordinates (Angstroms)
 Number     Number       Type             X           Y           Z
 ---------------------------------------------------------------------
      1          6           0        0.543979   -0.011675   -0.001412
      2          1           0        1.097422    0.920502    0.002854
      3          1           0        1.049826   -0.896360    0.003058
      4          8           0       -0.676390    0.005739    0.000320
 ---------------------------------------------------------------------

 SCF Done:  E(RB3LYP) =  -114.482594901     A.U. after    9 cycles

 The electronic state is 1-A.
 Alpha  occ. eigenvalues --  -19.13898 -10.27058  -1.06063  -0.65272  -0.51203
 Alpha  occ. eigenvalues --   -0.45371  -0.40096  -0.27474
 Alpha virt. eigenvalues --   -0.05474   0.06609   0.11899   0.18041   0.40364
 Alpha virt. eigenvalues --    0.47858   0.52677   0.60580   0.62370   0.72849
 Alpha virt. eigenvalues --    0.78267   0.87651   0.97959   1.32114   1.50295

 Mulliken charges:
               1
     1  C    0.226828
     2  H    0.077914
     3  H    0.065400
     4  O   -0.370142
 Sum of Mulliken charges =  -0.00000

 Dipole moment (field-independent basis, Debye):
    X=              2.7888    Y=             -0.0905    Z=              0.0007  Tot=              2.7903
 Quadrupole moment (field-independent basis, Debye-Ang):
   XX=            -12.0312   YY=            -11.4786   ZZ=            -11.5101
   XY=             -0.0512   XZ=              0.0029   YZ=              0.0002

 Normal termination of Gaussian 16 at Fri Sep 22 16:32:58 2023.
