 Gaussian 16, Revision A.03,
 Gaussian 16:  ES64L-G16RevA.03 25-Dec-2016

 ----------------------------------------------------------------------
 #p b3lyp/gen scrf=(cpcm,solvent=toluene) pop=hirshfeld empiricaldisper
 sion=gd3bj
 ----------------------------------------------------------------------

 ------------------------
 tmpdir/M2_conf_0_371.gjf
 ------------------------
 Symbolic Z-matrix:
 Charge =  0 Multiplicity = 1

                         Standard orientation:
 ---------------------------------------------------------------------
 Center     Atomic      Atomic             Coordinates (Angstroms)
 Number     Number       Type             X           Y           Z
 ---------------------------------------------------------------------
      1          6           0        0.256703    0.424774   -0.003529
      2          6           0       -1.138051   -0.141154    0.000111
      3          1           0       -1.735532    0.171464   -0.868829
      4          8           0        1.193733   -0.295378    0.000709
      5          1           0        0.303356    1.512958   -0.008758
      6          1           0       -1.134703   -1.236587    0.012081
      7          1           0       -1.694904    0.213471    0.880343
 ---------------------------------------------------------------------

 SCF Done:  E(RB3LYP) =  -153.811896048     A.U. after   10 cycles

 The electronic state is 1-A.
 Alpha  occ. eigenvalues --  -19.12904 -10.27107 -10.18015  -1.07806  -0.75146
 Alpha  occ. eigenvalues --   -0.59234  -0.49007  -0.45029  -0.44748  -0.39765
 Alpha  occ. eigenvalues --   -0.37719  -0.26664
 Alpha virt. eigenvalues --   -0.02787   0.05757   0.08213   0.10976   0.11803
 Alpha virt. eigenvalues --    0.20218   0.23678   0.41180   0.42042   0.44393
 Alpha virt. eigenvalues --    0.46048   0.54896   0.58469   0.61087   0.64736

 Mulliken charges:
               1
     1  C    0.189118
     2  C   -0.247855
     3  H    0.117123
     4  O   -0.332032
     5  H    0.054836
     6  H    0.103356
     7  H    0.115456
 Sum of Mulliken charges =  -0.00000

 Dipole moment (field-independent basis, Debye):
    X=             -2.5623    Y=              1.4602    Z=             -0.0096  Tot=              2.9492
 Quadrupole moment (field-independent basis, Debye-Ang):
   XX=            -21.1050   YY=            -18.0021   ZZ=            -17.9427
   XY=              1.0105   XZ=              0.0257   YZ=              0.0307

 Normal termination of Gaussian 16 at Fri Sep 22 16:36:12 2023.
