 Gaussian 16, Revision A.03,
 Gaussian 16:  ES64L-G16RevA.03 25-Dec-2016

 ----------------------------------------------------------------------
 #p b3lyp/gen scrf=(cpcm,solvent=toluene) pop=hirshfeld empiricaldisper
 sion=gd3bj
 ----------------------------------------------------------------------

 ----------------------
 tmpdir/M2_conf_0_3.gjf
 ----------------------
 Symbolic Z-matrix:
 Charge =  0 Multiplicity = 1

                         Standard orientation:
 ---------------------------------------------------------------------
 Center     Atomic      Atomic             Coordinates (Angstroms)
 Number     Number       Type             X           Y           Z
 ---------------------------------------------------------------------
      1          6           0        1.430059   -0.485921   -0.000076
      2          6           0        0.585804    0.658555   -0.007885
      3          6           0       -0.810375    0.478131   -0.002977
      4          1           0        1.016733   -1.411524   -0.002366
      5          1           0        2.509395   -0.285158    0.010253
      6          1           0        1.035236    1.593951    0.028464
      7          8           0       -1.291495   -0.643527    0.002873
      8          1           0       -1.462333    1.346358    0.006297
 ---------------------------------------------------------------------

 SCF Done:  E(RB3LYP) =  -191.874031620     A.U. after   11 cycles

 The electronic state is 1-A.
 Alpha  occ. eigenvalues --  -19.11817 -10.26305 -10.21452 -10.19582  -1.05297
 Alpha  occ. eigenvalues --   -0.79795  -0.67701  -0.55921  -0.52879  -0.45895
 Alpha  occ. eigenvalues --   -0.42166  -0.41002  -0.40572  -0.28389  -0.26871
 Alpha virt. eigenvalues --   -0.09437   0.05043   0.05834   0.08148   0.11010
 Alpha virt. eigenvalues --    0.13349   0.21706   0.24205   0.29213   0.40352
 Alpha virt. eigenvalues --    0.41766   0.46225   0.46307   0.48172   0.51436

 Mulliken charges:
               1
     1  C   -0.010699
     2  C   -0.250007
     3  C    0.307658
     4  H    0.087910
     5  H    0.127311
     6  H    0.066583
     7  O   -0.384532
     8  H    0.055777
 Sum of Mulliken charges =  -0.00000

 Dipole moment (field-independent basis, Debye):
    X=              2.4355    Y=              2.0412    Z=              0.0322  Tot=              3.1780
 Quadrupole moment (field-independent basis, Debye-Ang):
   XX=            -23.8025   YY=            -22.5679   ZZ=            -25.0625
   XY=             -3.3219   XZ=              0.0728   YZ=              0.0577

 Normal termination of Gaussian 16 at Fri Sep 22 16:33:03 2023.
