 Gaussian 16, Revision A.03,
 Gaussian 16:  ES64L-G16RevA.03 25-Dec-2016

 ----------------------------------------------------------------------
 #p b3lyp/gen scrf=(cpcm,solvent=toluene) pop=hirshfeld empiricaldisper
 sion=gd3bj
 ----------------------------------------------------------------------

 ------------------------
 tmpdir/M2_conf_0_258.gjf
 ------------------------
 Symbolic Z-matrix:
 Charge =  0 Multiplicity = 1

                         Standard orientation:
 ---------------------------------------------------------------------
 Center     Atomic      Atomic             Coordinates (Angstroms)
 Number     Number       Type             X           Y           Z
 ---------------------------------------------------------------------
      1          6           0       -0.223426    0.385685   -0.008493
      2          6           0        1.183002   -0.116130    0.000824
      3          1           0        1.158218   -1.200872   -0.148073
      4          1           0       -0.525155    1.445095    0.009916
      5          8           0       -1.233203   -0.282350    0.001824
      6          1           0        1.804251    0.313314   -0.793569
      7          1           0        1.670848    0.083932    0.963144
 ---------------------------------------------------------------------

 SCF Done:  E(RB3LYP) =  -153.808127908     A.U. after   10 cycles

 The electronic state is 1-A.
 Alpha  occ. eigenvalues --  -19.12379 -10.27158 -10.19053  -1.05971  -0.75939
 Alpha  occ. eigenvalues --   -0.58467  -0.49047  -0.45150  -0.44543  -0.39840
 Alpha  occ. eigenvalues --   -0.37402  -0.26118
 Alpha virt. eigenvalues --   -0.03318   0.05581   0.07735   0.10873   0.11481
 Alpha virt. eigenvalues --    0.21636   0.21876   0.40007   0.41741   0.45075
 Alpha virt. eigenvalues --    0.45573   0.56605   0.57992   0.60738   0.62994

 Mulliken charges:
               1
     1  C    0.150648
     2  C   -0.205673
     3  H    0.105375
     4  H    0.051471
     5  O   -0.360369
     6  H    0.125610
     7  H    0.132938
 Sum of Mulliken charges =  -0.00000

 Dipole moment (field-independent basis, Debye):
    X=              2.9181    Y=              1.2771    Z=              0.0314  Tot=              3.1855
 Quadrupole moment (field-independent basis, Debye-Ang):
   XX=            -20.8547   YY=            -18.3935   ZZ=            -17.8465
   XY=             -1.2619   XZ=              0.0521   YZ=              0.0018

 Normal termination of Gaussian 16 at Fri Sep 22 16:35:29 2023.
