 Gaussian 16, Revision A.03,
 Gaussian 16:  ES64L-G16RevA.03 25-Dec-2016

 ----------------------------------------------------------------------
 #p b3lyp/gen scrf=(cpcm,solvent=toluene) pop=hirshfeld empiricaldisper
 sion=gd3bj
 ----------------------------------------------------------------------

 -----------------------
 tmpdir/M2_conf_0_45.gjf
 -----------------------
 Symbolic Z-matrix:
 Charge =  0 Multiplicity = 1

                         Standard orientation:
 ---------------------------------------------------------------------
 Center     Atomic      Atomic             Coordinates (Angstroms)
 Number     Number       Type             X           Y           Z
 ---------------------------------------------------------------------
      1          7           0        1.549781   -0.271690   -0.008429
      2          6           0        0.449024    0.521925    0.006725
      3         16           0       -1.138033   -0.106833   -0.002912
      4          1           0        2.457757    0.203063   -0.048860
      5          1           0        1.530381   -1.279040    0.073956
      6          1           0        0.677778    1.555586    0.040144
 ---------------------------------------------------------------------

 SCF Done:  E(RB3LYP) =  -492.847666912     A.U. after   11 cycles

 The electronic state is 1-A.
 Alpha  occ. eigenvalues --  -88.81302 -14.37773 -10.28209  -7.89786  -5.86709
 Alpha  occ. eigenvalues --   -5.86251  -5.85754  -0.95998  -0.74716  -0.63089
 Alpha  occ. eigenvalues --   -0.55963  -0.49727  -0.39005  -0.37642  -0.24797
 Alpha  occ. eigenvalues --   -0.22758
 Alpha virt. eigenvalues --   -0.05767   0.02819   0.06311   0.06893   0.13280
 Alpha virt. eigenvalues --    0.22186   0.31504   0.32747   0.33856   0.37187
 Alpha virt. eigenvalues --    0.44006   0.44715   0.44966   0.49088   0.60300

 Mulliken charges:
               1
     1  N   -0.281680
     2  C    0.052835
     3  S   -0.315047
     4  H    0.208572
     5  H    0.210682
     6  H    0.124639
 Sum of Mulliken charges =  -0.00000

 Dipole moment (field-independent basis, Debye):
    X=              5.6481    Y=              0.3874    Z=              0.0967  Tot=              5.6622
 Quadrupole moment (field-independent basis, Debye-Ang):
   XX=            -21.3625   YY=            -23.7094   ZZ=            -27.9711
   XY=              0.2937   XZ=              0.0728   YZ=             -0.1985

 Normal termination of Gaussian 16 at Fri Sep 22 16:32:30 2023.
