 Gaussian 16, Revision A.03,
 Gaussian 16:  ES64L-G16RevA.03 25-Dec-2016

 ----------------------------------------------------------------------
 #p b3lyp/gen scrf=(cpcm,solvent=toluene) pop=hirshfeld empiricaldisper
 sion=gd3bj
 ----------------------------------------------------------------------

 ------------------------
 tmpdir/M2_conf_0_125.gjf
 ------------------------
 Symbolic Z-matrix:
 Charge =  0 Multiplicity = 1

                         Standard orientation:
 ---------------------------------------------------------------------
 Center     Atomic      Atomic             Coordinates (Angstroms)
 Number     Number       Type             X           Y           Z
 ---------------------------------------------------------------------
      1          6           0       -0.006298    0.000161   -0.004777
      2          1           0        0.511709   -0.781851   -0.573770
      3          1           0       -1.105184   -0.019444   -0.176510
      4          1           0        0.425936    0.971255   -0.279193
      5          1           0        0.205329   -0.170926    1.058136
 ---------------------------------------------------------------------

 SCF Done:  E(RB3LYP) =  -40.5136672782     A.U. after    7 cycles

 The electronic state is 1-A.
 Alpha  occ. eigenvalues --  -10.16461  -0.69236  -0.39608  -0.39111  -0.38886
 Alpha virt. eigenvalues --    0.05618   0.12349   0.12553   0.12563   0.37189
 Alpha virt. eigenvalues --    0.37427   0.38386   0.63145   0.63671   0.63704
 Alpha virt. eigenvalues --    0.67352   0.96110   1.28824   1.29108   1.84430

 Mulliken charges:
               1
     1  C   -0.356036
     2  H    0.087975
     3  H    0.095155
     4  H    0.087807
     5  H    0.085098
 Sum of Mulliken charges =   0.00000

 Dipole moment (field-independent basis, Debye):
    X=              0.0406    Y=             -0.0012    Z=              0.0236  Tot=              0.0470
 Quadrupole moment (field-independent basis, Debye-Ang):
   XX=             -8.3314   YY=             -8.5063   ZZ=             -8.5576
   XY=             -0.0009   XZ=             -0.0046   YZ=              0.0027

 Normal termination of Gaussian 16 at Fri Sep 22 16:35:25 2023.
