 Gaussian 16, Revision A.03,
 Gaussian 16:  ES64L-G16RevA.03 25-Dec-2016

 ----------------------------------------------------------------------
 #p b3lyp/gen scrf=(cpcm,solvent=toluene) pop=hirshfeld empiricaldisper
 sion=gd3bj
 ----------------------------------------------------------------------

 ------------------------
 tmpdir/M2_conf_0_230.gjf
 ------------------------
 Symbolic Z-matrix:
 Charge =  0 Multiplicity = 1

                         Standard orientation:
 ---------------------------------------------------------------------
 Center     Atomic      Atomic             Coordinates (Angstroms)
 Number     Number       Type             X           Y           Z
 ---------------------------------------------------------------------
      1          7           0       -1.022824   -0.180241   -0.030442
      2          6           0        0.169121    0.514185    0.007495
      3          1           0       -0.836433   -1.143668   -0.044920
      4          1           0       -1.934057    0.253602    0.185084
      5          8           0        1.080299   -0.313356    0.013503
      6          1           0        0.273143    1.573492   -0.080072
 ---------------------------------------------------------------------

 SCF Done:  E(RB3LYP) =  -169.855758906     A.U. after   11 cycles

 The electronic state is 1-A.
 Alpha  occ. eigenvalues --  -19.09146 -14.33503 -10.28526  -1.05087  -0.89092
 Alpha  occ. eigenvalues --   -0.63177  -0.55587  -0.49387  -0.42531  -0.40783
 Alpha  occ. eigenvalues --   -0.27374  -0.26180
 Alpha virt. eigenvalues --   -0.00321   0.05136   0.07389   0.11794   0.19974
 Alpha virt. eigenvalues --    0.27359   0.41179   0.42386   0.48417   0.53685
 Alpha virt. eigenvalues --    0.61762   0.66936   0.67963   0.70915   0.75135

 Mulliken charges:
               1
     1  N   -0.343807
     2  C    0.351105
     3  H    0.179444
     4  H    0.191536
     5  O   -0.468670
     6  H    0.090392
 Sum of Mulliken charges =  -0.00000

 Dipole moment (field-independent basis, Debye):
    X=             -3.5701    Y=              1.6963    Z=              0.2977  Tot=              3.9638
 Quadrupole moment (field-independent basis, Debye-Ang):
   XX=            -18.4553   YY=            -14.5973   ZZ=            -18.7001
   XY=              1.4132   XZ=             -0.8274   YZ=              0.1468

 Normal termination of Gaussian 16 at Fri Sep 22 16:35:20 2023.
