 Gaussian 16, Revision A.03,
 Gaussian 16:  ES64L-G16RevA.03 25-Dec-2016

 ----------------------------------------------------------------------
 #p b3lyp/gen scrf=(cpcm,solvent=toluene) pop=hirshfeld empiricaldisper
 sion=gd3bj
 ----------------------------------------------------------------------

 ------------------------
 tmpdir/M2_conf_0_266.gjf
 ------------------------
 Symbolic Z-matrix:
 Charge =  0 Multiplicity = 1

                         Standard orientation:
 ---------------------------------------------------------------------
 Center     Atomic      Atomic             Coordinates (Angstroms)
 Number     Number       Type             X           Y           Z
 ---------------------------------------------------------------------
      1          6           0       -0.892317   -0.527028    0.050674
      2          6           0        0.513525   -0.128687    0.001924
      3          8           0        0.678175    1.210411    0.039084
      4          8           0       -1.893324    0.179909   -0.064876
      5          1           0       -1.212413   -1.478107    0.288062
      6          8           0        1.451319   -0.911115   -0.046673
      7          1           0        1.595801    1.578755   -0.023925
 ---------------------------------------------------------------------

 SCF Done:  E(RB3LYP) =  -303.016330930     A.U. after   12 cycles

 The electronic state is 1-A.
 Alpha  occ. eigenvalues --  -19.19587 -19.16295 -19.15446 -10.34888 -10.29661
 Alpha  occ. eigenvalues --   -1.13859  -1.08110  -1.05195  -0.75449  -0.64446
 Alpha  occ. eigenvalues --   -0.55104  -0.51505  -0.49236  -0.47389  -0.42500
 Alpha  occ. eigenvalues --   -0.41147  -0.35540  -0.33429  -0.29056
 Alpha virt. eigenvalues --   -0.12012   0.02221   0.03822   0.08465   0.17100
 Alpha virt. eigenvalues --    0.21887   0.25672   0.33152   0.38422   0.42844
 Alpha virt. eigenvalues --    0.45279   0.46138   0.49117   0.56632   0.60185

 Mulliken charges:
               1
     1  C    0.293516
     2  C    0.404767
     3  O   -0.364668
     4  O   -0.317275
     5  H    0.070677
     6  O   -0.363809
     7  H    0.276793
 Sum of Mulliken charges =   0.00000

 Dipole moment (field-independent basis, Debye):
    X=              1.4969    Y=              0.4807    Z=              0.2707  Tot=              1.5953
 Quadrupole moment (field-independent basis, Debye-Ang):
   XX=            -31.9374   YY=            -27.0764   ZZ=            -26.6261
   XY=              8.5240   XZ=             -0.4784   YZ=             -0.3995

 Normal termination of Gaussian 16 at Fri Sep 22 16:35:15 2023.
