 Gaussian 16, Revision A.03,
 Gaussian 16:  ES64L-G16RevA.03 25-Dec-2016

 ----------------------------------------------------------------------
 #p b3lyp/gen scrf=(cpcm,solvent=toluene) pop=hirshfeld empiricaldisper
 sion=gd3bj
 ----------------------------------------------------------------------

 -----------------------
 tmpdir/M2_conf_0_23.gjf
 -----------------------
 Symbolic Z-matrix:
 Charge =  0 Multiplicity = 1

                         Standard orientation:
 ---------------------------------------------------------------------
 Center     Atomic      Atomic             Coordinates (Angstroms)
 Number     Number       Type             X           Y           Z
 ---------------------------------------------------------------------
      1          6           0        0.796685    0.503712   -0.006531
      2          6           0       -0.604587    0.639100   -0.003991
      3          6           0       -1.416517   -0.482196    0.001436
      4          8           0        1.305939   -0.642090    0.001302
      5          1           0        1.437099    1.320257    0.030792
      6          1           0       -1.046576    1.630835    0.004400
      7          1           0       -0.993368   -1.403452   -0.001357
      8          1           0       -2.498151   -0.374622    0.010267
 ---------------------------------------------------------------------

 SCF Done:  E(RB3LYP) =  -191.876554792     A.U. after   11 cycles

 The electronic state is 1-A.
 Alpha  occ. eigenvalues --  -19.11711 -10.26214 -10.20981 -10.19865  -1.03539
 Alpha  occ. eigenvalues --   -0.80254  -0.68207  -0.56427  -0.52608  -0.45602
 Alpha  occ. eigenvalues --   -0.43019  -0.40204  -0.39593  -0.28712  -0.26833
 Alpha virt. eigenvalues --   -0.09512   0.04880   0.05707   0.08382   0.10927
 Alpha virt. eigenvalues --    0.13352   0.21463   0.25192   0.28853   0.40293
 Alpha virt. eigenvalues --    0.41862   0.45434   0.46296   0.47932   0.51629

 Mulliken charges:
               1
     1  C    0.333502
     2  C   -0.275766
     3  C    0.009023
     4  O   -0.412521
     5  H    0.049203
     6  H    0.088367
     7  H    0.085592
     8  H    0.122600
 Sum of Mulliken charges =   0.00000

 Dipole moment (field-independent basis, Debye):
    X=             -2.4750    Y=              2.1584    Z=              0.0162  Tot=              3.2840
 Quadrupole moment (field-independent basis, Debye-Ang):
   XX=            -23.8710   YY=            -22.3980   ZZ=            -25.0043
   XY=              3.7499   XZ=             -0.0202   YZ=              0.0204

 Normal termination of Gaussian 16 at Fri Sep 22 16:33:12 2023.
