 Gaussian 16, Revision A.03,
 Gaussian 16:  ES64L-G16RevA.03 25-Dec-2016

 ----------------------------------------------------------------------
 #p b3lyp/gen scrf=(cpcm,solvent=toluene) pop=hirshfeld empiricaldisper
 sion=gd3bj
 ----------------------------------------------------------------------

 ------------------------
 tmpdir/M2_conf_0_245.gjf
 ------------------------
 Symbolic Z-matrix:
 Charge =  0 Multiplicity = 1

                         Standard orientation:
 ---------------------------------------------------------------------
 Center     Atomic      Atomic             Coordinates (Angstroms)
 Number     Number       Type             X           Y           Z
 ---------------------------------------------------------------------
      1          6           0        1.303821    0.244763    0.003664
      2          6           0        0.115762   -0.444119   -0.009903
      3          6           0       -1.256081    0.145685    0.001545
      4          1           0        2.073705   -0.441269    0.006533
      5          1           0        1.414369    1.322534   -0.009219
      6          1           0        0.354499   -1.519538    0.005171
      7          1           0       -1.164815    1.227327   -0.143999
      8          1           0       -1.903473   -0.241176   -0.793854
      9          1           0       -1.755301   -0.025855    0.963537
 ---------------------------------------------------------------------

 SCF Done:  E(RB3LYP) =  -117.886231792     A.U. after   10 cycles

 The electronic state is 1-A.
 Alpha  occ. eigenvalues --  -10.18600 -10.17582 -10.16652  -0.78836  -0.69350
 Alpha  occ. eigenvalues --   -0.55154  -0.47419  -0.42398  -0.41808  -0.36935
 Alpha  occ. eigenvalues --   -0.35405  -0.25823
 Alpha virt. eigenvalues --    0.00113   0.05677   0.07655   0.09227   0.12022
 Alpha virt. eigenvalues --    0.13061   0.14872   0.22125   0.30494   0.35521
 Alpha virt. eigenvalues --    0.41236   0.41908   0.48850   0.50964   0.53039

 Mulliken charges:
               1
     1  C   -0.117992
     2  C   -0.302542
     3  C   -0.125065
     4  H    0.073869
     5  H    0.086864
     6  H    0.079086
     7  H    0.089908
     8  H    0.105669
     9  H    0.110204
 Sum of Mulliken charges =   0.00000

 Dipole moment (field-independent basis, Debye):
    X=             -0.4917    Y=             -0.0376    Z=              0.0283  Tot=              0.4939
 Quadrupole moment (field-independent basis, Debye-Ang):
   XX=            -19.6277   YY=            -19.0323   ZZ=            -22.0469
   XY=             -0.1796   XZ=              0.0006   YZ=             -0.0396

 Normal termination of Gaussian 16 at Fri Sep 22 16:35:14 2023.
