 Gaussian 16, Revision A.03,
 Gaussian 16:  ES64L-G16RevA.03 25-Dec-2016

 ----------------------------------------------------------------------
 #p b3lyp/gen scrf=(cpcm,solvent=toluene) pop=hirshfeld empiricaldisper
 sion=gd3bj
 ----------------------------------------------------------------------

 -----------------------
 tmpdir/M2_conf_0_11.gjf
 -----------------------
 Symbolic Z-matrix:
 Charge =  0 Multiplicity = 1

                         Standard orientation:
 ---------------------------------------------------------------------
 Center     Atomic      Atomic             Coordinates (Angstroms)
 Number     Number       Type             X           Y           Z
 ---------------------------------------------------------------------
      1          6           0       -0.697752   -0.009490   -0.000617
      2          6           0        0.695948   -0.009061   -0.000592
      3          1           0       -1.198191   -0.891050    0.001812
      4          1           0       -1.236342    0.932165    0.001868
      5          1           0        1.224264   -0.874314    0.001962
      6          1           0        1.221094    0.944501    0.001611
 ---------------------------------------------------------------------

 SCF Done:  E(RB3LYP) =  -78.5697689938     A.U. after    9 cycles

 The electronic state is 1-A.
 Alpha  occ. eigenvalues --  -10.18117 -10.18058  -0.75902  -0.59745  -0.48139
 Alpha  occ. eigenvalues --   -0.41479  -0.37813  -0.27168
 Alpha virt. eigenvalues --   -0.01523   0.06588   0.09795   0.10107   0.16118
 Alpha virt. eigenvalues --    0.27161   0.35931   0.42214   0.43769   0.51109
 Alpha virt. eigenvalues --    0.52005   0.54685   0.64145   0.65474   0.70325

 Mulliken charges:
               1
     1  C   -0.179969
     2  C   -0.185052
     3  H    0.078976
     4  H    0.103904
     5  H    0.079081
     6  H    0.103059
 Sum of Mulliken charges =  -0.00000

 Dipole moment (field-independent basis, Debye):
    X=              0.0016    Y=             -0.0237    Z=              0.0079  Tot=              0.0250
 Quadrupole moment (field-independent basis, Debye-Ang):
   XX=            -12.3841   YY=            -12.2718   ZZ=            -15.6823
   XY=             -0.0498   XZ=             -0.0001   YZ=             -0.0001

 Normal termination of Gaussian 16 at Fri Sep 22 16:32:50 2023.
