 Gaussian 16, Revision A.03,
 Gaussian 16:  ES64L-G16RevA.03 25-Dec-2016

 ----------------------------------------------------------------------
 #p b3lyp/gen scrf=(cpcm,solvent=toluene) pop=hirshfeld empiricaldisper
 sion=gd3bj
 ----------------------------------------------------------------------

 ------------------------
 tmpdir/M2_conf_0_210.gjf
 ------------------------
 Symbolic Z-matrix:
 Charge =  0 Multiplicity = 1

                         Standard orientation:
 ---------------------------------------------------------------------
 Center     Atomic      Atomic             Coordinates (Angstroms)
 Number     Number       Type             X           Y           Z
 ---------------------------------------------------------------------
      1          6           0        0.708277    0.004675    0.000026
      2          6           0       -0.710883   -0.015283   -0.000107
      3          1           0       -1.226452    0.941160   -0.010204
      4          1           0        1.225282   -0.892346   -0.010697
      5          1           0        1.239904    0.885405    0.010631
      6          1           0       -1.223098   -0.870572    0.010758
 ---------------------------------------------------------------------

 SCF Done:  E(RB3LYP) =  -78.5634973948     A.U. after    9 cycles

 The electronic state is 1-A.
 Alpha  occ. eigenvalues --  -10.18309 -10.18104  -0.75569  -0.60445  -0.48078
 Alpha  occ. eigenvalues --   -0.41675  -0.38191  -0.26816
 Alpha virt. eigenvalues --   -0.02065   0.06803   0.09885   0.10366   0.16096
 Alpha virt. eigenvalues --    0.26569   0.36452   0.41870   0.44047   0.50880
 Alpha virt. eigenvalues --    0.52778   0.54315   0.64729   0.65937   0.70253

 Mulliken charges:
               1
     1  C   -0.176662
     2  C   -0.177450
     3  H    0.104882
     4  H    0.088863
     5  H    0.086801
     6  H    0.073566
 Sum of Mulliken charges =  -0.00000

 Dipole moment (field-independent basis, Debye):
    X=              0.0201    Y=             -0.0108    Z=              0.0007  Tot=              0.0228
 Quadrupole moment (field-independent basis, Debye-Ang):
   XX=            -12.2533   YY=            -12.3169   ZZ=            -15.6996
   XY=              0.0986   XZ=             -0.0008   YZ=             -0.0003

 Normal termination of Gaussian 16 at Fri Sep 22 16:34:35 2023.
