 Gaussian 16, Revision A.03,
 Gaussian 16:  ES64L-G16RevA.03 25-Dec-2016

 ----------------------------------------------------------------------
 #p b3lyp/gen scrf=(cpcm,solvent=toluene) pop=hirshfeld empiricaldisper
 sion=gd3bj
 ----------------------------------------------------------------------

 ------------------------
 tmpdir/M2_conf_0_331.gjf
 ------------------------
 Symbolic Z-matrix:
 Charge =  0 Multiplicity = 1

                         Standard orientation:
 ---------------------------------------------------------------------
 Center     Atomic      Atomic             Coordinates (Angstroms)
 Number     Number       Type             X           Y           Z
 ---------------------------------------------------------------------
      1          6           0        0.697689    0.531747    0.001304
      2          6           0       -0.720565    0.493194   -0.006566
      3          1           0       -1.271628    1.430724   -0.011035
      4          8           0        1.333751   -0.557655   -0.002987
      5          1           0        1.230131    1.410710    0.028018
      6          8           0       -1.311407   -0.566230    0.004811
 ---------------------------------------------------------------------

 SCF Done:  E(RB3LYP) =  -227.771957373     A.U. after   11 cycles

 The electronic state is 1-A.
 Alpha  occ. eigenvalues --  -19.16174 -19.16157 -10.28951 -10.28731  -1.09893
 Alpha  occ. eigenvalues --   -1.05444  -0.75633  -0.59048  -0.56053  -0.48152
 Alpha  occ. eigenvalues --   -0.45743  -0.45453  -0.38479  -0.31520  -0.28862
 Alpha virt. eigenvalues --   -0.14020   0.02070   0.06002   0.09469   0.14607
 Alpha virt. eigenvalues --    0.25940   0.31552   0.38113   0.39226   0.44763
 Alpha virt. eigenvalues --    0.49680   0.56700   0.57608   0.62167   0.67079

 Mulliken charges:
               1
     1  C    0.269196
     2  C    0.237412
     3  H    0.069280
     4  O   -0.336866
     5  H    0.060518
     6  O   -0.299540
 Sum of Mulliken charges =  -0.00000

 Dipole moment (field-independent basis, Debye):
    X=             -0.0845    Y=              4.3762    Z=             -0.0016  Tot=              4.3770
 Quadrupole moment (field-independent basis, Debye-Ang):
   XX=            -26.5628   YY=            -21.5105   ZZ=            -21.2222
   XY=              0.1949   XZ=              0.0440   YZ=              0.0091

 Normal termination of Gaussian 16 at Fri Sep 22 16:36:36 2023.
