 Gaussian 16, Revision A.03,
 Gaussian 16:  ES64L-G16RevA.03 25-Dec-2016

 ----------------------------------------------------------------------
 #p b3lyp/gen scrf=(cpcm,solvent=toluene) pop=hirshfeld empiricaldisper
 sion=gd3bj
 ----------------------------------------------------------------------

 ------------------------
 tmpdir/M2_conf_0_236.gjf
 ------------------------
 Symbolic Z-matrix:
 Charge =  0 Multiplicity = 1

                         Standard orientation:
 ---------------------------------------------------------------------
 Center     Atomic      Atomic             Coordinates (Angstroms)
 Number     Number       Type             X           Y           Z
 ---------------------------------------------------------------------
      1          6           0       -0.698331   -0.026245   -0.017295
      2          6           0        0.698200   -0.016959    0.013457
      3          1           0       -1.032617    1.008164   -0.022684
      4          1           0       -1.330408   -0.882164    0.074913
      5          1           0        0.999621    0.968973    0.035019
      6          1           0        1.364189   -0.835748   -0.064216
 ---------------------------------------------------------------------

 SCF Done:  E(RB3LYP) =  -78.5643306345     A.U. after    9 cycles

 The electronic state is 1-A.
 Alpha  occ. eigenvalues --  -10.18617 -10.17991  -0.76204  -0.58799  -0.48841
 Alpha  occ. eigenvalues --   -0.40337  -0.37622  -0.27135
 Alpha virt. eigenvalues --   -0.01638   0.06136   0.09524   0.10073   0.16531
 Alpha virt. eigenvalues --    0.25941   0.35042   0.43729   0.43891   0.51033
 Alpha virt. eigenvalues --    0.52392   0.54179   0.62673   0.66444   0.68281

 Mulliken charges:
               1
     1  C   -0.211163
     2  C   -0.173329
     3  H    0.100615
     4  H    0.102027
     5  H    0.082278
     6  H    0.099572
 Sum of Mulliken charges =  -0.00000

 Dipole moment (field-independent basis, Debye):
    X=              0.0326    Y=              0.0493    Z=              0.0252  Tot=              0.0643
 Quadrupole moment (field-independent basis, Debye-Ang):
   XX=            -12.6950   YY=            -12.1884   ZZ=            -15.7370
   XY=             -0.0130   XZ=             -0.1464   YZ=             -0.0010

 Normal termination of Gaussian 16 at Fri Sep 22 16:34:54 2023.
