 Gaussian 16, Revision A.03,
 Gaussian 16:  ES64L-G16RevA.03 25-Dec-2016

 ----------------------------------------------------------------------
 #p b3lyp/gen scrf=(cpcm,solvent=toluene) pop=hirshfeld empiricaldisper
 sion=gd3bj
 ----------------------------------------------------------------------

 -----------------------
 tmpdir/M2_conf_0_13.gjf
 -----------------------
 Symbolic Z-matrix:
 Charge =  0 Multiplicity = 1

                         Standard orientation:
 ---------------------------------------------------------------------
 Center     Atomic      Atomic             Coordinates (Angstroms)
 Number     Number       Type             X           Y           Z
 ---------------------------------------------------------------------
      1          6           0       -0.794063    0.499717    0.001893
      2          6           0        0.598430    0.648256   -0.002757
      3          6           0        1.411113   -0.480647    0.000858
      4          8           0       -1.292689   -0.650775   -0.001968
      5          1           0       -1.509814    1.332188    0.010912
      6          1           0        1.049338    1.634904   -0.004100
      7          1           0        1.017264   -1.414801    0.006969
      8          1           0        2.491847   -0.350053    0.002000
 ---------------------------------------------------------------------

 SCF Done:  E(RB3LYP) =  -191.877515916     A.U. after   11 cycles

 The electronic state is 1-A.
 Alpha  occ. eigenvalues --  -19.11637 -10.26614 -10.21206 -10.20065  -1.03525
 Alpha  occ. eigenvalues --   -0.80288  -0.67877  -0.55776  -0.52551  -0.45713
 Alpha  occ. eigenvalues --   -0.42594  -0.40245  -0.39729  -0.28680  -0.26706
 Alpha virt. eigenvalues --   -0.09617   0.04916   0.05521   0.08162   0.10474
 Alpha virt. eigenvalues --    0.13299   0.21408   0.25003   0.28721   0.40258
 Alpha virt. eigenvalues --    0.40760   0.45408   0.46191   0.48089   0.51456

 Mulliken charges:
               1
     1  C    0.295403
     2  C   -0.259157
     3  C    0.006475
     4  O   -0.410314
     5  H    0.067682
     6  H    0.090186
     7  H    0.087384
     8  H    0.122342
 Sum of Mulliken charges =  -0.00000

 Dipole moment (field-independent basis, Debye):
    X=              2.5204    Y=              2.1066    Z=              0.0166  Tot=              3.2849
 Quadrupole moment (field-independent basis, Debye-Ang):
   XX=            -23.7844   YY=            -22.4880   ZZ=            -25.0794
   XY=             -3.6884   XZ=             -0.0051   YZ=             -0.0109

 Normal termination of Gaussian 16 at Fri Sep 22 16:33:06 2023.
