 Gaussian 16, Revision A.03,
 Gaussian 16:  ES64L-G16RevA.03 25-Dec-2016

 ----------------------------------------------------------------------
 #p b3lyp/gen scrf=(cpcm,solvent=toluene) pop=hirshfeld empiricaldisper
 sion=gd3bj
 ----------------------------------------------------------------------

 ------------------------
 tmpdir/M2_conf_0_305.gjf
 ------------------------
 Symbolic Z-matrix:
 Charge =  0 Multiplicity = 1

                         Standard orientation:
 ---------------------------------------------------------------------
 Center     Atomic      Atomic             Coordinates (Angstroms)
 Number     Number       Type             X           Y           Z
 ---------------------------------------------------------------------
      1          6           0        0.714660    0.000883   -0.001926
      2          6           0       -0.716638   -0.000903   -0.002197
      3          1           0        1.209303    0.896235    0.001337
      4          1           0        1.220077   -0.895586    0.010491
      5          1           0       -1.208448    0.901722    0.011000
      6          1           0       -1.209065   -0.902249    0.001910
 ---------------------------------------------------------------------

 SCF Done:  E(RB3LYP) =  -78.5613719831     A.U. after    8 cycles

 The electronic state is 1-A.
 Alpha  occ. eigenvalues --  -10.18114 -10.18050  -0.75529  -0.60482  -0.48624
 Alpha  occ. eigenvalues --   -0.40844  -0.39073  -0.26631
 Alpha virt. eigenvalues --   -0.02246   0.06880   0.10238   0.10439   0.16156
 Alpha virt. eigenvalues --    0.26051   0.36240   0.42963   0.44203   0.50844
 Alpha virt. eigenvalues --    0.53129   0.54269   0.65782   0.66366   0.69452

 Mulliken charges:
               1
     1  C   -0.175148
     2  C   -0.172885
     3  H    0.085142
     4  H    0.087827
     5  H    0.087722
     6  H    0.087342
 Sum of Mulliken charges =  -0.00000

 Dipole moment (field-independent basis, Debye):
    X=              0.0064    Y=              0.0017    Z=              0.0273  Tot=              0.0280
 Quadrupole moment (field-independent basis, Debye-Ang):
   XX=            -12.3794   YY=            -12.2060   ZZ=            -15.6933
   XY=             -0.0045   XZ=             -0.0013   YZ=              0.0001

 Normal termination of Gaussian 16 at Fri Sep 22 16:36:25 2023.
