 Gaussian 16, Revision A.03,
 Gaussian 16:  ES64L-G16RevA.03 25-Dec-2016

 ----------------------------------------------------------------------
 #p b3lyp/gen scrf=(cpcm,solvent=toluene) pop=hirshfeld empiricaldisper
 sion=gd3bj
 ----------------------------------------------------------------------

 ------------------------
 tmpdir/M2_conf_0_228.gjf
 ------------------------
 Symbolic Z-matrix:
 Charge =  0 Multiplicity = 1

                         Standard orientation:
 ---------------------------------------------------------------------
 Center     Atomic      Atomic             Coordinates (Angstroms)
 Number     Number       Type             X           Y           Z
 ---------------------------------------------------------------------
      1          6           0       -0.803685   -0.753373   -0.008956
      2          6           0        0.007398    0.424778    0.003235
      3          6           0        1.420120    0.287300    0.020226
      4          8           0       -2.049222   -0.636177    0.016870
      5          1           0       -0.344404   -1.673473   -0.038911
      6          8           0       -0.564535    1.539618   -0.019703
      7          8           0        1.934909   -0.811208   -0.013157
      8          1           0        2.032193    1.183379    0.079803
 ---------------------------------------------------------------------

 SCF Done:  E(RB3LYP) =  -341.069416149     A.U. after   12 cycles

 The electronic state is 1-A.
 Alpha  occ. eigenvalues --  -19.18397 -19.18275 -19.16768 -10.30753 -10.30554
 Alpha  occ. eigenvalues --  -10.29336  -1.11949  -1.09825  -1.06244  -0.79797
 Alpha  occ. eigenvalues --   -0.69895  -0.58382  -0.56014  -0.51661  -0.49220
 Alpha  occ. eigenvalues --   -0.47739  -0.46788  -0.42914  -0.39064  -0.34915
 Alpha  occ. eigenvalues --   -0.32390  -0.28810
 Alpha virt. eigenvalues --   -0.17190  -0.08318   0.05464   0.07000   0.08613
 Alpha virt. eigenvalues --    0.13574   0.22982   0.23885   0.28104   0.33638
 Alpha virt. eigenvalues --    0.36010   0.40350   0.42730   0.47933   0.48265

 Mulliken charges:
               1
     1  C    0.330223
     2  C    0.102706
     3  C    0.331376
     4  O   -0.326383
     5  H    0.063540
     6  O   -0.290858
     7  O   -0.308284
     8  H    0.097679
 Sum of Mulliken charges =  -0.00000

 Dipole moment (field-independent basis, Debye):
    X=              2.7409    Y=             -0.2491    Z=              0.0633  Tot=              2.7529
 Quadrupole moment (field-independent basis, Debye-Ang):
   XX=            -41.9999   YY=            -36.0406   ZZ=            -30.8797
   XY=              4.5354   XZ=              0.2158   YZ=              0.1128

 Normal termination of Gaussian 16 at Fri Sep 22 16:34:59 2023.
