 Gaussian 16, Revision A.03,
 Gaussian 16:  ES64L-G16RevA.03 25-Dec-2016

 ----------------------------------------------------------------------
 #p b3lyp/gen scrf=(cpcm,solvent=toluene) pop=hirshfeld empiricaldisper
 sion=gd3bj
 ----------------------------------------------------------------------

 -----------------------
 tmpdir/M2_conf_0_26.gjf
 -----------------------
 Symbolic Z-matrix:
 Charge =  0 Multiplicity = 1

                         Standard orientation:
 ---------------------------------------------------------------------
 Center     Atomic      Atomic             Coordinates (Angstroms)
 Number     Number       Type             X           Y           Z
 ---------------------------------------------------------------------
      1          6           0       -0.544740   -0.013087   -0.000217
      2          1           0       -1.108777    0.917059    0.000442
      3          1           0       -1.027353   -0.904640    0.000470
      4          8           0        0.675571    0.008263    0.000049
 ---------------------------------------------------------------------

 SCF Done:  E(RB3LYP) =  -114.481815143     A.U. after    9 cycles

 The electronic state is 1-A.
 Alpha  occ. eigenvalues --  -19.13855 -10.27022  -1.06052  -0.65237  -0.51306
 Alpha  occ. eigenvalues --   -0.45310  -0.40079  -0.27452
 Alpha virt. eigenvalues --   -0.05457   0.06610   0.11858   0.18071   0.40370
 Alpha virt. eigenvalues --    0.47472   0.52978   0.60808   0.62415   0.73010
 Alpha virt. eigenvalues --    0.78283   0.87675   0.98025   1.32017   1.50479

 Mulliken charges:
               1
     1  C    0.227454
     2  H    0.080010
     3  H    0.063377
     4  O   -0.370841
 Sum of Mulliken charges =  -0.00000

 Dipole moment (field-independent basis, Debye):
    X=             -2.7869    Y=             -0.1017    Z=              0.0001  Tot=              2.7888
 Quadrupole moment (field-independent basis, Debye-Ang):
   XX=            -12.0474   YY=            -11.4543   ZZ=            -11.5099
   XY=              0.0265   XZ=             -0.0004   YZ=              0.0000

 Normal termination of Gaussian 16 at Fri Sep 22 16:33:30 2023.
