 Gaussian 16, Revision A.03,
 Gaussian 16:  ES64L-G16RevA.03 25-Dec-2016

 ----------------------------------------------------------------------
 #p b3lyp/gen scrf=(cpcm,solvent=toluene) pop=hirshfeld empiricaldisper
 sion=gd3bj
 ----------------------------------------------------------------------

 ------------------------
 tmpdir/M2_conf_0_240.gjf
 ------------------------
 Symbolic Z-matrix:
 Charge =  0 Multiplicity = 1

                         Standard orientation:
 ---------------------------------------------------------------------
 Center     Atomic      Atomic             Coordinates (Angstroms)
 Number     Number       Type             X           Y           Z
 ---------------------------------------------------------------------
      1          6           0       -1.577231   -0.412359    0.091643
      2          6           0       -0.583684    0.545853   -0.118283
      3          6           0        0.845136    0.419674    0.227189
      4          1           0       -2.432289   -0.077945   -0.377835
      5          1           0       -1.535368   -1.284472    0.689686
      6          1           0       -1.024067    1.352315   -0.699206
      7          8           0        1.444141   -0.545651   -0.211142
      8          1           0        1.333272    1.056304    0.873195
 ---------------------------------------------------------------------

 SCF Done:  E(RB3LYP) =  -191.860775777     A.U. after   11 cycles

 The electronic state is 1-A.
 Alpha  occ. eigenvalues --  -19.13105 -10.27397 -10.20304 -10.19817  -1.06292
 Alpha  occ. eigenvalues --   -0.79310  -0.67117  -0.57507  -0.52325  -0.45904
 Alpha  occ. eigenvalues --   -0.44448  -0.40951  -0.38213  -0.29054  -0.26765
 Alpha virt. eigenvalues --   -0.06495  -0.01075   0.06225   0.08746   0.09136
 Alpha virt. eigenvalues --    0.14063   0.22547   0.23499   0.28355   0.40041
 Alpha virt. eigenvalues --    0.42002   0.45244   0.46420   0.51564   0.52449

 Mulliken charges:
               1
     1  C   -0.061001
     2  C   -0.271301
     3  C    0.324547
     4  H    0.091840
     5  H    0.100368
     6  H    0.115056
     7  O   -0.357606
     8  H    0.058096
 Sum of Mulliken charges =  -0.00000

 Dipole moment (field-independent basis, Debye):
    X=             -2.0346    Y=              1.9768    Z=              0.8981  Tot=              2.9756
 Quadrupole moment (field-independent basis, Debye-Ang):
   XX=            -24.9520   YY=            -23.1137   ZZ=            -24.0407
   XY=              3.1669   XZ=              1.9819   YZ=             -1.5581

 Normal termination of Gaussian 16 at Fri Sep 22 16:35:44 2023.
