 Gaussian 16, Revision A.03,
 Gaussian 16:  ES64L-G16RevA.03 25-Dec-2016

 ----------------------------------------------------------------------
 #p b3lyp/gen scrf=(cpcm,solvent=toluene) pop=hirshfeld empiricaldisper
 sion=gd3bj
 ----------------------------------------------------------------------

 ------------------------
 tmpdir/M2_conf_0_281.gjf
 ------------------------
 Symbolic Z-matrix:
 Charge =  0 Multiplicity = 1

                         Standard orientation:
 ---------------------------------------------------------------------
 Center     Atomic      Atomic             Coordinates (Angstroms)
 Number     Number       Type             X           Y           Z
 ---------------------------------------------------------------------
      1          6           0        0.005335   -0.001664    0.000296
      2          1           0       -0.465329   -0.541267   -0.829343
      3          1           0        1.065161   -0.263654    0.079590
      4          1           0       -0.101858    1.076567   -0.173507
      5          1           0       -0.529987   -0.261661    0.921486
 ---------------------------------------------------------------------

 SCF Done:  E(RB3LYP) =  -40.5140838502     A.U. after    7 cycles

 The electronic state is 1-A.
 Alpha  occ. eigenvalues --  -10.16264  -0.69370  -0.39658  -0.39156  -0.39046
 Alpha virt. eigenvalues --    0.05703   0.12567   0.12578   0.12610   0.37372
 Alpha virt. eigenvalues --    0.37529   0.38075   0.63739   0.63786   0.64074
 Alpha virt. eigenvalues --    0.67764   0.96142   1.28751   1.29071   1.85475

 Mulliken charges:
               1
     1  C   -0.351083
     2  H    0.086799
     3  H    0.090730
     4  H    0.086763
     5  H    0.086790
 Sum of Mulliken charges =   0.00000

 Dipole moment (field-independent basis, Debye):
    X=             -0.0207    Y=              0.0053    Z=             -0.0016  Tot=              0.0214
 Quadrupole moment (field-independent basis, Debye-Ang):
   XX=             -8.3722   YY=             -8.4766   ZZ=             -8.5006
   XY=             -0.0049   XZ=              0.0025   YZ=              0.0009

 Normal termination of Gaussian 16 at Fri Sep 22 16:35:14 2023.
