 Gaussian 16, Revision A.03,
 Gaussian 16:  ES64L-G16RevA.03 25-Dec-2016

 ----------------------------------------------------------------------
 #p b3lyp/gen scrf=(cpcm,solvent=toluene) pop=hirshfeld empiricaldisper
 sion=gd3bj
 ----------------------------------------------------------------------

 ------------------------
 tmpdir/M2_conf_0_313.gjf
 ------------------------
 Symbolic Z-matrix:
 Charge =  0 Multiplicity = 1

                         Standard orientation:
 ---------------------------------------------------------------------
 Center     Atomic      Atomic             Coordinates (Angstroms)
 Number     Number       Type             X           Y           Z
 ---------------------------------------------------------------------
      1          6           0       -0.700651    0.531969   -0.006239
      2          6           0        0.718880    0.492480    0.001240
      3          1           0        1.271453    1.428979    0.018319
      4          8           0       -1.333431   -0.559306    0.003526
      5          1           0       -1.232239    1.410798   -0.001760
      6          8           0        1.314857   -0.564003   -0.001847
 ---------------------------------------------------------------------

 SCF Done:  E(RB3LYP) =  -227.772021771     A.U. after   11 cycles

 The electronic state is 1-A.
 Alpha  occ. eigenvalues --  -19.16196 -19.16141 -10.28942 -10.28761  -1.09875
 Alpha  occ. eigenvalues --   -1.05467  -0.75607  -0.59079  -0.56039  -0.48143
 Alpha  occ. eigenvalues --   -0.45712  -0.45488  -0.38495  -0.31536  -0.28849
 Alpha virt. eigenvalues --   -0.14013   0.02058   0.06011   0.09467   0.14597
 Alpha virt. eigenvalues --    0.25962   0.31472   0.38121   0.39269   0.44756
 Alpha virt. eigenvalues --    0.49693   0.56637   0.57614   0.62149   0.67123

 Mulliken charges:
               1
     1  C    0.270412
     2  C    0.236737
     3  H    0.068576
     4  O   -0.336733
     5  H    0.060670
     6  O   -0.299661
 Sum of Mulliken charges =   0.00000

 Dipole moment (field-independent basis, Debye):
    X=              0.0596    Y=              4.3741    Z=             -0.0046  Tot=              4.3745
 Quadrupole moment (field-independent basis, Debye-Ang):
   XX=            -26.5682   YY=            -21.5154   ZZ=            -21.2232
   XY=             -0.2206   XZ=              0.0245   YZ=              0.0032

 Normal termination of Gaussian 16 at Fri Sep 22 16:36:50 2023.
