 Gaussian 16, Revision A.03,
 Gaussian 16:  ES64L-G16RevA.03 25-Dec-2016

 ----------------------------------------------------------------------
 #p b3lyp/gen scrf=(cpcm,solvent=toluene) pop=hirshfeld empiricaldisper
 sion=gd3bj
 ----------------------------------------------------------------------

 -----------------------
 tmpdir/M2_conf_0_27.gjf
 -----------------------
 Symbolic Z-matrix:
 Charge =  0 Multiplicity = 1

                         Standard orientation:
 ---------------------------------------------------------------------
 Center     Atomic      Atomic             Coordinates (Angstroms)
 Number     Number       Type             X           Y           Z
 ---------------------------------------------------------------------
      1          6           0       -0.793600    0.479023   -0.002124
      2          6           0        0.597957    0.637019    0.000605
      3          6           0        1.421585   -0.475721   -0.002078
      4          8           0       -1.310165   -0.633166    0.001698
      5          1           0       -1.436954    1.357173   -0.002796
      6          1           0        1.037688    1.631092    0.006473
      7          1           0        1.024828   -1.414425   -0.001141
      8          1           0        2.500103   -0.350437    0.005467
 ---------------------------------------------------------------------

 SCF Done:  E(RB3LYP) =  -191.881426279     A.U. after   11 cycles

 The electronic state is 1-A.
 Alpha  occ. eigenvalues --  -19.11851 -10.26317 -10.21041 -10.19743  -1.05002
 Alpha  occ. eigenvalues --   -0.80395  -0.67935  -0.55628  -0.52599  -0.45922
 Alpha  occ. eigenvalues --   -0.42790  -0.40963  -0.39879  -0.28903  -0.26864
 Alpha virt. eigenvalues --   -0.09249   0.05439   0.05547   0.08149   0.10825
 Alpha virt. eigenvalues --    0.13315   0.21967   0.25150   0.29145   0.40131
 Alpha virt. eigenvalues --    0.41984   0.45058   0.46176   0.48005   0.51575

 Mulliken charges:
               1
     1  C    0.302947
     2  C   -0.270579
     3  C   -0.000855
     4  O   -0.387334
     5  H    0.056088
     6  H    0.090061
     7  H    0.088334
     8  H    0.121337
 Sum of Mulliken charges =  -0.00000

 Dipole moment (field-independent basis, Debye):
    X=              2.5208    Y=              1.9950    Z=              0.0015  Tot=              3.2147
 Quadrupole moment (field-independent basis, Debye-Ang):
   XX=            -23.9715   YY=            -22.4922   ZZ=            -24.9947
   XY=             -3.4851   XZ=              0.0258   YZ=              0.0100

 Normal termination of Gaussian 16 at Fri Sep 22 16:32:36 2023.
