 Gaussian 16, Revision A.03,
 Gaussian 16:  ES64L-G16RevA.03 25-Dec-2016

 ----------------------------------------------------------------------
 #p b3lyp/gen scrf=(cpcm,solvent=toluene) pop=hirshfeld empiricaldisper
 sion=gd3bj
 ----------------------------------------------------------------------

 ------------------------
 tmpdir/M2_conf_0_178.gjf
 ------------------------
 Symbolic Z-matrix:
 Charge =  0 Multiplicity = 1

                         Standard orientation:
 ---------------------------------------------------------------------
 Center     Atomic      Atomic             Coordinates (Angstroms)
 Number     Number       Type             X           Y           Z
 ---------------------------------------------------------------------
      1          6           0       -0.766313   -0.006129   -0.002731
      2          6           0        0.761540   -0.013815    0.006343
      3          1           0        1.139943   -0.233963   -1.000501
      4          1           0       -1.013004    1.001148   -0.381645
      5          1           0       -1.190782   -0.794901   -0.632915
      6          1           0       -1.167933   -0.135374    1.008919
      7          1           0        1.069357    1.032216    0.291707
      8          1           0        1.191057   -0.749464    0.692761
 ---------------------------------------------------------------------

 SCF Done:  E(RB3LYP) =  -79.8171239206     A.U. after    9 cycles

 The electronic state is 1-A.
 Alpha  occ. eigenvalues --  -10.16661 -10.16475  -0.75529  -0.60915  -0.44433
 Alpha  occ. eigenvalues --   -0.43571  -0.36123  -0.34379  -0.34235
 Alpha virt. eigenvalues --    0.04814   0.09371   0.09684   0.10072   0.14758
 Alpha virt. eigenvalues --    0.14873   0.21253   0.36898   0.38730   0.40559
 Alpha virt. eigenvalues --    0.46956   0.48138   0.58805   0.62527   0.64201

 Mulliken charges:
               1
     1  C   -0.255893
     2  C   -0.269398
     3  H    0.086166
     4  H    0.087120
     5  H    0.088762
     6  H    0.086671
     7  H    0.088169
     8  H    0.088403
 Sum of Mulliken charges =  -0.00000

 Dipole moment (field-independent basis, Debye):
    X=             -0.0073    Y=             -0.0079    Z=             -0.0124  Tot=              0.0164
 Quadrupole moment (field-independent basis, Debye-Ang):
   XX=            -16.2907   YY=            -14.8134   ZZ=            -15.0449
   XY=              0.0403   XZ=             -0.0916   YZ=             -0.0166

 Normal termination of Gaussian 16 at Fri Sep 22 16:34:40 2023.
