 Gaussian 16, Revision A.03,
 Gaussian 16:  ES64L-G16RevA.03 25-Dec-2016

 ----------------------------------------------------------------------
 #p b3lyp/gen scrf=(cpcm,solvent=toluene) pop=hirshfeld empiricaldisper
 sion=gd3bj
 ----------------------------------------------------------------------

 ------------------------
 tmpdir/M2_conf_0_154.gjf
 ------------------------
 Symbolic Z-matrix:
 Charge =  0 Multiplicity = 1

                         Standard orientation:
 ---------------------------------------------------------------------
 Center     Atomic      Atomic             Coordinates (Angstroms)
 Number     Number       Type             X           Y           Z
 ---------------------------------------------------------------------
      1          6           0        0.760949   -0.025646    0.002223
      2          6           0       -0.771152   -0.001682   -0.003788
      3          1           0        1.156768    0.401084    0.967410
      4          1           0        1.168081    0.744209   -0.790439
      5          1           0        1.190003   -1.029389   -0.182970
      6          1           0       -1.174539   -0.447154   -0.916978
      7          1           0       -1.164985   -0.541788    0.864397
      8          1           0       -1.114113    1.037008    0.067971
 ---------------------------------------------------------------------

 SCF Done:  E(RB3LYP) =  -79.8172939777     A.U. after    9 cycles

 The electronic state is 1-A.
 Alpha  occ. eigenvalues --  -10.17692 -10.16626  -0.75109  -0.60937  -0.43929
 Alpha  occ. eigenvalues --   -0.42896  -0.36815  -0.34879  -0.33395
 Alpha virt. eigenvalues --    0.04739   0.08916   0.09936   0.10362   0.13396
 Alpha virt. eigenvalues --    0.13949   0.21311   0.37361   0.38288   0.39396
 Alpha virt. eigenvalues --    0.46413   0.48261   0.58047   0.60764   0.63343

 Mulliken charges:
               1
     1  C   -0.295779
     2  C   -0.242359
     3  H    0.089169
     4  H    0.087394
     5  H    0.097700
     6  H    0.089803
     7  H    0.087422
     8  H    0.086649
 Sum of Mulliken charges =  -0.00000

 Dipole moment (field-independent basis, Debye):
    X=             -0.0671    Y=              0.0166    Z=              0.0488  Tot=              0.0846
 Quadrupole moment (field-independent basis, Debye-Ang):
   XX=            -16.0447   YY=            -14.9245   ZZ=            -15.2431
   XY=             -0.0144   XZ=              0.0632   YZ=              0.0983

 Normal termination of Gaussian 16 at Fri Sep 22 16:33:48 2023.
