 Gaussian 16, Revision A.03,
 Gaussian 16:  ES64L-G16RevA.03 25-Dec-2016

 ----------------------------------------------------------------------
 #p b3lyp/gen scrf=(cpcm,solvent=toluene) pop=hirshfeld empiricaldisper
 sion=gd3bj
 ----------------------------------------------------------------------

 -----------------------
 tmpdir/M2_conf_0_97.gjf
 -----------------------
 Symbolic Z-matrix:
 Charge =  0 Multiplicity = 1

                         Standard orientation:
 ---------------------------------------------------------------------
 Center     Atomic      Atomic             Coordinates (Angstroms)
 Number     Number       Type             X           Y           Z
 ---------------------------------------------------------------------
      1          6           0        0.759187    0.003861    0.001069
      2          6           0       -0.766710    0.004468   -0.001922
      3          1           0       -1.133378   -0.952244   -0.396715
      4          1           0        1.156484   -0.804122    0.629503
      5          1           0        1.115070   -0.199605   -1.016129
      6          1           0        1.196493    0.964180    0.361311
      7          1           0       -1.143768    0.853554   -0.601651
      8          1           0       -1.145758    0.088260    1.028796
 ---------------------------------------------------------------------

 SCF Done:  E(RB3LYP) =  -79.8213197394     A.U. after    9 cycles

 The electronic state is 1-A.
 Alpha  occ. eigenvalues --  -10.16670 -10.16609  -0.75420  -0.61188  -0.43789
 Alpha  occ. eigenvalues --   -0.43546  -0.36708  -0.34579  -0.34154
 Alpha virt. eigenvalues --    0.04975   0.09243   0.10419   0.10633   0.13690
 Alpha virt. eigenvalues --    0.13827   0.21547   0.37177   0.39281   0.39446
 Alpha virt. eigenvalues --    0.45767   0.47603   0.58941   0.63936   0.64181

 Mulliken charges:
               1
     1  C   -0.266391
     2  C   -0.255923
     3  H    0.087120
     4  H    0.083862
     5  H    0.084159
     6  H    0.090447
     7  H    0.091224
     8  H    0.085501
 Sum of Mulliken charges =  -0.00000

 Dipole moment (field-independent basis, Debye):
    X=              0.0033    Y=             -0.0494    Z=              0.0015  Tot=              0.0496
 Quadrupole moment (field-independent basis, Debye-Ang):
   XX=            -16.0319   YY=            -14.9069   ZZ=            -15.0842
   XY=              0.0210   XZ=              0.0328   YZ=             -0.0044

 Normal termination of Gaussian 16 at Fri Sep 22 16:33:21 2023.
