 Gaussian 16, Revision A.03,
 Gaussian 16:  ES64L-G16RevA.03 25-Dec-2016

 ----------------------------------------------------------------------
 #p b3lyp/gen scrf=(cpcm,solvent=toluene) pop=hirshfeld empiricaldisper
 sion=gd3bj
 ----------------------------------------------------------------------

 -----------------------
 tmpdir/M2_conf_0_21.gjf
 -----------------------
 Symbolic Z-matrix:
 Charge =  0 Multiplicity = 1

                         Standard orientation:
 ---------------------------------------------------------------------
 Center     Atomic      Atomic             Coordinates (Angstroms)
 Number     Number       Type             X           Y           Z
 ---------------------------------------------------------------------
      1          6           0        0.694678   -0.006332   -0.001369
      2          6           0       -0.696420   -0.008699   -0.000114
      3          1           0        1.214634   -0.882792    0.003662
      4          1           0        1.234009    0.936035    0.002924
      5          1           0       -1.192906   -0.892608    0.000939
      6          1           0       -1.245286    0.929553    0.001373
 ---------------------------------------------------------------------

 SCF Done:  E(RB3LYP) =  -78.5707642181     A.U. after    9 cycles

 The electronic state is 1-A.
 Alpha  occ. eigenvalues --  -10.18110 -10.18048  -0.75933  -0.59692  -0.48073
 Alpha  occ. eigenvalues --   -0.41548  -0.37757  -0.27204
 Alpha virt. eigenvalues --   -0.01472   0.06614   0.09748   0.10079   0.16131
 Alpha virt. eigenvalues --    0.27266   0.35916   0.42068   0.43741   0.51130
 Alpha virt. eigenvalues --    0.52040   0.54689   0.64080   0.65536   0.70371

 Mulliken charges:
               1
     1  C   -0.186199
     2  C   -0.180460
     3  H    0.080931
     4  H    0.102703
     5  H    0.078674
     6  H    0.104351
 Sum of Mulliken charges =   0.00000

 Dipole moment (field-independent basis, Debye):
    X=              0.0027    Y=             -0.0278    Z=              0.0096  Tot=              0.0295
 Quadrupole moment (field-independent basis, Debye-Ang):
   XX=            -12.3701   YY=            -12.2833   ZZ=            -15.6789
   XY=             -0.0306   XZ=              0.0057   YZ=             -0.0001

 Normal termination of Gaussian 16 at Fri Sep 22 16:32:55 2023.
