 Gaussian 16, Revision A.03,
 Gaussian 16:  ES64L-G16RevA.03 25-Dec-2016

 ----------------------------------------------------------------------
 #p b3lyp/gen scrf=(cpcm,solvent=toluene) pop=hirshfeld empiricaldisper
 sion=gd3bj
 ----------------------------------------------------------------------

 -----------------------
 tmpdir/M2_conf_0_48.gjf
 -----------------------
 Symbolic Z-matrix:
 Charge =  0 Multiplicity = 1

                         Standard orientation:
 ---------------------------------------------------------------------
 Center     Atomic      Atomic             Coordinates (Angstroms)
 Number     Number       Type             X           Y           Z
 ---------------------------------------------------------------------
      1          7           0       -0.728095   -0.008524   -0.008719
      2          6           0        0.720790   -0.000031    0.007410
      3          1           0       -1.261427   -0.794797   -0.023217
      4          1           0       -1.227941    0.884299    0.058047
      5          1           0        1.054234   -0.841990   -0.601037
      6          1           0        1.074488   -0.130855    1.048410
      7          1           0        1.132569    0.943195   -0.465630
 ---------------------------------------------------------------------

 SCF Done:  E(RB3LYP) =  -95.8330764549     A.U. after    9 cycles

 The electronic state is 1-A.
 Alpha  occ. eigenvalues --  -14.27214 -10.19558  -0.86211  -0.65779  -0.49792
 Alpha  occ. eigenvalues --   -0.43083  -0.41710  -0.36955  -0.20778
 Alpha virt. eigenvalues --    0.05193   0.08381   0.09568   0.12350   0.15476
 Alpha virt. eigenvalues --    0.20846   0.40103   0.45018   0.46040   0.57310
 Alpha virt. eigenvalues --    0.59064   0.62683   0.65102   0.69945   0.71153

 Mulliken charges:
               1
     1  N   -0.519266
     2  C   -0.029604
     3  H    0.138670
     4  H    0.167114
     5  H    0.079071
     6  H    0.074086
     7  H    0.089929
 Sum of Mulliken charges =  -0.00000

 Dipole moment (field-independent basis, Debye):
    X=             -0.1826    Y=              0.0545    Z=             -0.0009  Tot=              0.1905
 Quadrupole moment (field-independent basis, Debye-Ang):
   XX=            -12.9633   YY=            -12.3130   ZZ=            -15.6363
   XY=              0.0426   XZ=             -0.3399   YZ=              0.1010

 Normal termination of Gaussian 16 at Fri Sep 22 16:32:47 2023.
