 Gaussian 16, Revision A.03,
 Gaussian 16:  ES64L-G16RevA.03 25-Dec-2016

 ----------------------------------------------------------------------
 #p b3lyp/gen scrf=(cpcm,solvent=toluene) pop=hirshfeld empiricaldisper
 sion=gd3bj
 ----------------------------------------------------------------------

 ------------------------
 tmpdir/M2_conf_0_225.gjf
 ------------------------
 Symbolic Z-matrix:
 Charge =  0 Multiplicity = 1

                         Standard orientation:
 ---------------------------------------------------------------------
 Center     Atomic      Atomic             Coordinates (Angstroms)
 Number     Number       Type             X           Y           Z
 ---------------------------------------------------------------------
      1          6           0       -0.710786    0.008090   -0.001813
      2          6           0        0.710540   -0.014108   -0.003301
      3          1           0        1.260931    0.925621    0.024405
      4          1           0       -1.215485   -0.895635    0.022931
      5          1           0       -1.252325    0.881266   -0.009574
      6          1           0        1.208361   -0.875149   -0.007078
 ---------------------------------------------------------------------

 SCF Done:  E(RB3LYP) =  -78.5626999051     A.U. after    9 cycles

 The electronic state is 1-A.
 Alpha  occ. eigenvalues --  -10.18348 -10.18150  -0.75531  -0.60529  -0.47961
 Alpha  occ. eigenvalues --   -0.41742  -0.38217  -0.26786
 Alpha virt. eigenvalues --   -0.02127   0.06839   0.09817   0.10385   0.16096
 Alpha virt. eigenvalues --    0.26592   0.36553   0.41526   0.44065   0.50847
 Alpha virt. eigenvalues --    0.52944   0.54156   0.64767   0.65960   0.70380

 Mulliken charges:
               1
     1  C   -0.174770
     2  C   -0.179611
     3  H    0.106100
     4  H    0.089069
     5  H    0.086936
     6  H    0.072276
 Sum of Mulliken charges =   0.00000

 Dipole moment (field-independent basis, Debye):
    X=             -0.0140    Y=             -0.0216    Z=              0.0329  Tot=              0.0418
 Quadrupole moment (field-independent basis, Debye-Ang):
   XX=            -12.1996   YY=            -12.3483   ZZ=            -15.7030
   XY=             -0.0771   XZ=              0.0069   YZ=             -0.0004

 Normal termination of Gaussian 16 at Fri Sep 22 16:34:17 2023.
