 Gaussian 16, Revision A.03,
 Gaussian 16:  ES64L-G16RevA.03 25-Dec-2016

 ----------------------------------------------------------------------
 #p b3lyp/gen scrf=(cpcm,solvent=toluene) pop=hirshfeld empiricaldisper
 sion=gd3bj
 ----------------------------------------------------------------------

 -----------------------
 tmpdir/M2_conf_0_34.gjf
 -----------------------
 Symbolic Z-matrix:
 Charge =  0 Multiplicity = 1

                         Standard orientation:
 ---------------------------------------------------------------------
 Center     Atomic      Atomic             Coordinates (Angstroms)
 Number     Number       Type             X           Y           Z
 ---------------------------------------------------------------------
      1          6           0        1.174924   -0.142990    0.007947
      2          6           0       -0.245376    0.372288    0.015363
      3          1           0        1.709659    0.380441   -0.911175
      4          1           0        1.712772    0.146025    0.922685
      5          1           0        1.235019   -1.230467   -0.107187
      6          1           0       -0.320329    1.461077    0.023584
      7          8           0       -1.239302   -0.266608   -0.008471
 ---------------------------------------------------------------------

 SCF Done:  E(RB3LYP) =  -153.809232784     A.U. after   10 cycles

 The electronic state is 1-A.
 Alpha  occ. eigenvalues --  -19.12910 -10.27088 -10.19381  -1.07710  -0.75196
 Alpha  occ. eigenvalues --   -0.58617  -0.48601  -0.45263  -0.44571  -0.39908
 Alpha  occ. eigenvalues --   -0.37733  -0.26566
 Alpha virt. eigenvalues --   -0.02651   0.04817   0.08236   0.10110   0.11658
 Alpha virt. eigenvalues --    0.21308   0.22155   0.41246   0.42254   0.44611
 Alpha virt. eigenvalues --    0.45616   0.54372   0.56258   0.59361   0.63134

 Mulliken charges:
               1
     1  C   -0.259813
     2  C    0.180738
     3  H    0.128735
     4  H    0.128375
     5  H    0.108193
     6  H    0.043991
     7  O   -0.330219
 Sum of Mulliken charges =  -0.00000

 Dipole moment (field-independent basis, Debye):
    X=              2.7208    Y=              1.2372    Z=              0.0800  Tot=              2.9899
 Quadrupole moment (field-independent basis, Debye-Ang):
   XX=            -21.3613   YY=            -18.2836   ZZ=            -17.8689
   XY=             -0.9393   XZ=              0.0685   YZ=             -0.0726

 Normal termination of Gaussian 16 at Fri Sep 22 16:33:23 2023.
