 Gaussian 16, Revision A.03,
 Gaussian 16:  ES64L-G16RevA.03 25-Dec-2016

 ----------------------------------------------------------------------
 #p b3lyp/gen scrf=(cpcm,solvent=toluene) pop=hirshfeld empiricaldisper
 sion=gd3bj
 ----------------------------------------------------------------------

 ------------------------
 tmpdir/M2_conf_0_274.gjf
 ------------------------
 Symbolic Z-matrix:
 Charge =  0 Multiplicity = 1

                         Standard orientation:
 ---------------------------------------------------------------------
 Center     Atomic      Atomic             Coordinates (Angstroms)
 Number     Number       Type             X           Y           Z
 ---------------------------------------------------------------------
      1          8           0        0.746326   -0.115490    0.009096
      2          6           0       -0.690145    0.016577   -0.005179
      3          1           0       -1.029437    0.243944    1.014032
      4          1           0        1.264300    0.651354   -0.045544
      5          1           0       -0.969546    0.862275   -0.641307
      6          1           0       -1.095059   -0.933118   -0.368871
 ---------------------------------------------------------------------

 SCF Done:  E(RB3LYP) =  -115.700915216     A.U. after    9 cycles

 The electronic state is 1-A.
 Alpha  occ. eigenvalues --  -19.10458 -10.22054  -1.01137  -0.69058  -0.50788
 Alpha  occ. eigenvalues --   -0.43757  -0.43140  -0.32455  -0.27143
 Alpha virt. eigenvalues --    0.04749   0.07740   0.11770   0.11984   0.16984
 Alpha virt. eigenvalues --    0.41460   0.42717   0.44590   0.58839   0.60899
 Alpha virt. eigenvalues --    0.63700   0.65921   0.86653   0.86790   0.90607

 Mulliken charges:
               1
     1  O   -0.509917
     2  C    0.052435
     3  H    0.075930
     4  H    0.205989
     5  H    0.077360
     6  H    0.098203
 Sum of Mulliken charges =  -0.00000

 Dipole moment (field-independent basis, Debye):
    X=             -0.8805    Y=              1.6105    Z=             -0.1586  Tot=              1.8423
 Quadrupole moment (field-independent basis, Debye-Ang):
   XX=            -12.1612   YY=            -12.3473   ZZ=            -13.6960
   XY=              2.3082   XZ=             -0.0995   YZ=              0.0064

 Normal termination of Gaussian 16 at Fri Sep 22 16:35:21 2023.
