 Gaussian 16, Revision A.03,
 Gaussian 16:  ES64L-G16RevA.03 25-Dec-2016

 ----------------------------------------------------------------------
 #p b3lyp/gen scrf=(cpcm,solvent=toluene) pop=hirshfeld empiricaldisper
 sion=gd3bj
 ----------------------------------------------------------------------

 ------------------------
 tmpdir/M2_conf_0_188.gjf
 ------------------------
 Symbolic Z-matrix:
 Charge =  0 Multiplicity = 1

                         Standard orientation:
 ---------------------------------------------------------------------
 Center     Atomic      Atomic             Coordinates (Angstroms)
 Number     Number       Type             X           Y           Z
 ---------------------------------------------------------------------
      1          1           0        0.759168   -0.800395    0.012833
      2          6           0        0.008319   -0.003240   -0.002387
      3          1           0        0.536911    0.953737   -0.081224
      4          1           0       -0.621074   -0.012959    0.904704
      5          1           0       -0.724917   -0.120945   -0.821991
 ---------------------------------------------------------------------

 SCF Done:  E(RB3LYP) =  -40.5129552634     A.U. after    7 cycles

 The electronic state is 1-A.
 Alpha  occ. eigenvalues --  -10.16437  -0.69266  -0.40494  -0.39033  -0.38111
 Alpha virt. eigenvalues --    0.05628   0.12329   0.12535   0.12561   0.36575
 Alpha virt. eigenvalues --    0.37167   0.39550   0.62899   0.63688   0.64212
 Alpha virt. eigenvalues --    0.67130   0.95470   1.28279   1.30287   1.82910

 Mulliken charges:
               1
     1  H    0.092482
     2  C   -0.355507
     3  H    0.088836
     4  H    0.085998
     5  H    0.088191
 Sum of Mulliken charges =   0.00000

 Dipole moment (field-independent basis, Debye):
    X=             -0.0247    Y=              0.0137    Z=              0.0116  Tot=              0.0305
 Quadrupole moment (field-independent basis, Debye-Ang):
   XX=             -8.2116   YY=             -8.5119   ZZ=             -8.6717
   XY=             -0.0118   XZ=              0.0006   YZ=             -0.0029

 Normal termination of Gaussian 16 at Fri Sep 22 16:34:42 2023.
