 Gaussian 16, Revision A.03,
 Gaussian 16:  ES64L-G16RevA.03 25-Dec-2016

 ----------------------------------------------------------------------
 #p b3lyp/gen scrf=(cpcm,solvent=toluene) pop=hirshfeld empiricaldisper
 sion=gd3bj
 ----------------------------------------------------------------------

 ------------------------
 tmpdir/M2_conf_0_267.gjf
 ------------------------
 Symbolic Z-matrix:
 Charge =  0 Multiplicity = 1

                         Standard orientation:
 ---------------------------------------------------------------------
 Center     Atomic      Atomic             Coordinates (Angstroms)
 Number     Number       Type             X           Y           Z
 ---------------------------------------------------------------------
      1          6           0       -0.622581   -0.334525    0.032694
      2          6           0        0.659904    0.367349    0.039867
      3          8           0        1.749594   -0.179307   -0.048265
      4          8           0       -1.755263    0.140225   -0.049573
      5          1           0       -0.724131   -1.348024    0.193576
      6          1           0        0.545544    1.463732    0.153767
 ---------------------------------------------------------------------

 SCF Done:  E(RB3LYP) =  -227.776414714     A.U. after   11 cycles

 The electronic state is 1-A.
 Alpha  occ. eigenvalues --  -19.17503 -19.16525 -10.30437 -10.28942  -1.09784
 Alpha  occ. eigenvalues --   -1.08113  -0.74306  -0.61582  -0.52188  -0.50370
 Alpha  occ. eigenvalues --   -0.46725  -0.45230  -0.40200  -0.33214  -0.28303
 Alpha virt. eigenvalues --   -0.13575   0.00978   0.06943   0.08717   0.14771
 Alpha virt. eigenvalues --    0.25345   0.28116   0.38204   0.41301   0.44412
 Alpha virt. eigenvalues --    0.47949   0.57265   0.59530   0.60185   0.68042

 Mulliken charges:
               1
     1  C    0.234641
     2  C    0.248229
     3  O   -0.309099
     4  O   -0.328078
     5  H    0.063579
     6  H    0.090728
 Sum of Mulliken charges =  -0.00000

 Dipole moment (field-independent basis, Debye):
    X=              0.1096    Y=              0.1012    Z=              0.4063  Tot=              0.4328
 Quadrupole moment (field-independent basis, Debye-Ang):
   XX=            -32.3275   YY=            -20.9739   ZZ=            -21.2635
   XY=              2.4602   XZ=             -0.0687   YZ=              0.0029

 Normal termination of Gaussian 16 at Fri Sep 22 16:35:24 2023.
