 Gaussian 16, Revision A.03,
 Gaussian 16:  ES64L-G16RevA.03 25-Dec-2016

 ----------------------------------------------------------------------
 #p b3lyp/gen scrf=(cpcm,solvent=toluene) pop=hirshfeld empiricaldisper
 sion=gd3bj
 ----------------------------------------------------------------------

 -----------------------
 tmpdir/M2_conf_0_42.gjf
 -----------------------
 Symbolic Z-matrix:
 Charge =  0 Multiplicity = 1

                         Standard orientation:
 ---------------------------------------------------------------------
 Center     Atomic      Atomic             Coordinates (Angstroms)
 Number     Number       Type             X           Y           Z
 ---------------------------------------------------------------------
      1          6           0       -0.127717    0.405452    0.019795
      2          7           0        1.092813   -0.182279   -0.044683
      3          1           0       -0.081303    1.469226    0.083677
      4          8           0       -1.252492   -0.244846   -0.010890
      5          1           0        1.885203    0.471177   -0.015322
      6          1           0        1.332648   -1.138392    0.212773
 ---------------------------------------------------------------------

 SCF Done:  E(RB3LYP) =  -169.866866506     A.U. after   11 cycles

 The electronic state is 1-A.
 Alpha  occ. eigenvalues --  -19.09677 -14.35916 -10.29224  -1.00907  -0.91714
 Alpha  occ. eigenvalues --   -0.64753  -0.55035  -0.49963  -0.41297  -0.39725
 Alpha  occ. eigenvalues --   -0.28175  -0.26371
 Alpha virt. eigenvalues --   -0.01020   0.03586   0.06462   0.12016   0.20291
 Alpha virt. eigenvalues --    0.29886   0.41696   0.43176   0.47907   0.51687
 Alpha virt. eigenvalues --    0.54904   0.66101   0.66923   0.68919   0.74191

 Mulliken charges:
               1
     1  C    0.369073
     2  N   -0.350926
     3  H    0.073951
     4  O   -0.500793
     5  H    0.203361
     6  H    0.205335
 Sum of Mulliken charges =   0.00000

 Dipole moment (field-independent basis, Debye):
    X=              4.9604    Y=              1.2530    Z=              0.5960  Tot=              5.1508
 Quadrupole moment (field-independent basis, Debye-Ang):
   XX=            -18.2058   YY=            -15.0191   ZZ=            -18.8194
   XY=             -1.3381   XZ=              0.6621   YZ=             -0.5100

 Normal termination of Gaussian 16 at Fri Sep 22 16:33:18 2023.
