 Gaussian 16, Revision A.03,
 Gaussian 16:  ES64L-G16RevA.03 25-Dec-2016

 ----------------------------------------------------------------------
 #p b3lyp/gen scrf=(cpcm,solvent=toluene) pop=hirshfeld empiricaldisper
 sion=gd3bj
 ----------------------------------------------------------------------

 ------------------------
 tmpdir/M2_conf_0_158.gjf
 ------------------------
 Symbolic Z-matrix:
 Charge =  0 Multiplicity = 1

                         Standard orientation:
 ---------------------------------------------------------------------
 Center     Atomic      Atomic             Coordinates (Angstroms)
 Number     Number       Type             X           Y           Z
 ---------------------------------------------------------------------
      1          6           0       -1.521170   -0.480347   -0.142069
      2          6           0       -0.529563    0.647054    0.270157
      3          6           0        0.859682    0.379463   -0.311019
      4          1           0       -1.524090   -1.197835    0.699615
      5          1           0       -2.522003   -0.046373   -0.266046
      6          1           0       -1.230289   -0.927699   -1.097106
      7          1           0       -0.508661    0.537326    1.442442
      8          1           0       -0.940263    1.641137   -0.000424
      9          1           0        1.189407    0.878127   -1.108908
     10          8           0        1.585275   -0.520213    0.178502
 ---------------------------------------------------------------------

 SCF Done:  E(RB3LYP) =  -193.100934767     A.U. after   11 cycles

 The electronic state is 1-A.
 Alpha  occ. eigenvalues --  -19.12595 -10.26903 -10.19727 -10.18400  -1.03588
 Alpha  occ. eigenvalues --   -0.78442  -0.66799  -0.59039  -0.49272  -0.45984
 Alpha  occ. eigenvalues --   -0.43369  -0.41192  -0.37989  -0.35852  -0.34509
 Alpha  occ. eigenvalues --   -0.26535
 Alpha virt. eigenvalues --   -0.05210   0.04865   0.06925   0.08674   0.09714
 Alpha virt. eigenvalues --    0.11936   0.15484   0.18176   0.20963   0.23303
 Alpha virt. eigenvalues --    0.38521   0.41096   0.42335   0.45928   0.50165

 Mulliken charges:
               1
     1  C   -0.206435
     2  C   -0.276016
     3  C    0.290199
     4  H    0.112035
     5  H    0.098618
     6  H    0.098879
     7  H    0.133231
     8  H    0.109986
     9  H    0.040051
    10  O   -0.400548
 Sum of Mulliken charges =   0.00000

 Dipole moment (field-independent basis, Debye):
    X=             -2.4201    Y=              1.9989    Z=             -1.0177  Tot=              3.2997
 Quadrupole moment (field-independent basis, Debye-Ang):
   XX=            -29.0510   YY=            -25.5994   ZZ=            -24.1806
   XY=              2.5001   XZ=             -1.5792   YZ=             -0.4155

 Normal termination of Gaussian 16 at Fri Sep 22 16:34:43 2023.
