 Gaussian 16, Revision A.03,
 Gaussian 16:  ES64L-G16RevA.03 25-Dec-2016

 ----------------------------------------------------------------------
 #p b3lyp/gen scrf=(cpcm,solvent=toluene) pop=hirshfeld empiricaldisper
 sion=gd3bj
 ----------------------------------------------------------------------

 ------------------------
 tmpdir/M2_conf_0_217.gjf
 ------------------------
 Symbolic Z-matrix:
 Charge =  0 Multiplicity = 1

                         Standard orientation:
 ---------------------------------------------------------------------
 Center     Atomic      Atomic             Coordinates (Angstroms)
 Number     Number       Type             X           Y           Z
 ---------------------------------------------------------------------
      1          6           0       -0.577741   -0.395879    0.002871
      2          6           0        0.601873    0.396070    0.002591
      3          6           0       -1.872257    0.185998   -0.004137
      4          1           0       -0.488489   -1.427408    0.008512
      5          6           0        1.845132   -0.195166   -0.004156
      6          1           0        0.506449    1.481270    0.008480
 ---------------------------------------------------------------------

 SCF Done:  E(RB3LYP) =  -153.297216990     A.U. after   12 cycles

 The electronic state is 1-A.
 Alpha  occ. eigenvalues --  -10.28146 -10.27397 -10.22758 -10.22591  -0.85556
 Alpha  occ. eigenvalues --   -0.74520  -0.57918  -0.57448  -0.46560  -0.36944
 Alpha  occ. eigenvalues --   -0.33876  -0.31533  -0.26219
 Alpha virt. eigenvalues --   -0.13834  -0.12632  -0.07046   0.02847   0.06843
 Alpha virt. eigenvalues --    0.09087   0.19592   0.24566   0.25900   0.39171
 Alpha virt. eigenvalues --    0.41191   0.42741   0.44075   0.44157   0.46718

 Mulliken charges:
               1
     1  C   -0.138252
     2  C   -0.154186
     3  C    0.010608
     4  H    0.123814
     5  C    0.003157
     6  H    0.154858
 Sum of Mulliken charges =  -0.00000

 Dipole moment (field-independent basis, Debye):
    X=             -0.0461    Y=              0.1301    Z=              0.0225  Tot=              0.1398
 Quadrupole moment (field-independent basis, Debye-Ang):
   XX=            -34.3884   YY=            -19.7931   ZZ=            -26.7028
   XY=              4.1836   XZ=              0.0016   YZ=             -0.0007

 Normal termination of Gaussian 16 at Fri Sep 22 16:34:32 2023.
