 Gaussian 16, Revision A.03,
 Gaussian 16:  ES64L-G16RevA.03 25-Dec-2016

 ----------------------------------------------------------------------
 #p b3lyp/gen scrf=(cpcm,solvent=toluene) pop=hirshfeld empiricaldisper
 sion=gd3bj
 ----------------------------------------------------------------------

 ------------------------
 tmpdir/M2_conf_0_253.gjf
 ------------------------
 Symbolic Z-matrix:
 Charge =  0 Multiplicity = 1

                         Standard orientation:
 ---------------------------------------------------------------------
 Center     Atomic      Atomic             Coordinates (Angstroms)
 Number     Number       Type             X           Y           Z
 ---------------------------------------------------------------------
      1          6           0        0.684956   -0.025838   -0.004610
      2          6           0       -0.688332   -0.010128    0.003144
      3          1           0       -1.334182   -0.880041   -0.006883
      4          1           0        1.029759    1.020468    0.005413
      5          1           0        1.323727   -0.897768    0.011810
      6          1           0       -0.999046    0.973140   -0.001543
 ---------------------------------------------------------------------

 SCF Done:  E(RB3LYP) =  -78.5684960268     A.U. after    9 cycles

 The electronic state is 1-A.
 Alpha  occ. eigenvalues --  -10.18492 -10.17882  -0.76539  -0.58081  -0.48822
 Alpha  occ. eigenvalues --   -0.40412  -0.37075  -0.27533
 Alpha virt. eigenvalues --   -0.00996   0.05960   0.09093   0.10041   0.16513
 Alpha virt. eigenvalues --    0.26344   0.34575   0.43440   0.43498   0.51297
 Alpha virt. eigenvalues --    0.52473   0.53776   0.61940   0.66545   0.68968

 Mulliken charges:
               1
     1  C   -0.220667
     2  C   -0.171687
     3  H    0.105678
     4  H    0.101641
     5  H    0.103443
     6  H    0.081591
 Sum of Mulliken charges =   0.00000

 Dipole moment (field-independent basis, Debye):
    X=             -0.0178    Y=              0.0312    Z=              0.0097  Tot=              0.0372
 Quadrupole moment (field-independent basis, Debye-Ang):
   XX=            -12.8660   YY=            -12.0849   ZZ=            -15.7432
   XY=             -0.0341   XZ=              0.0350   YZ=              0.0002

 Normal termination of Gaussian 16 at Fri Sep 22 16:35:02 2023.
