 Gaussian 16, Revision A.03,
 Gaussian 16:  ES64L-G16RevA.03 25-Dec-2016

 ----------------------------------------------------------------------
 #p b3lyp/gen scrf=(cpcm,solvent=toluene) pop=hirshfeld empiricaldisper
 sion=gd3bj
 ----------------------------------------------------------------------

 -----------------------
 tmpdir/M2_conf_0_59.gjf
 -----------------------
 Symbolic Z-matrix:
 Charge =  0 Multiplicity = 1

                         Standard orientation:
 ---------------------------------------------------------------------
 Center     Atomic      Atomic             Coordinates (Angstroms)
 Number     Number       Type             X           Y           Z
 ---------------------------------------------------------------------
      1          6           0        0.775941    0.003635   -0.018475
      2          6           0       -0.771647    0.009919   -0.000892
      3          1           0        1.172256   -0.769820    0.724991
      4          1           0        1.195013    0.994246    0.279832
      5          1           0        1.147566   -0.269869   -1.006215
      6          1           0       -1.234093    0.924622   -0.439846
      7          1           0       -1.251382   -0.920260   -0.497626
      8          1           0       -1.055124   -0.040238    1.055067
 ---------------------------------------------------------------------

 SCF Done:  E(RB3LYP) =  -79.8164011224     A.U. after    9 cycles

 The electronic state is 1-A.
 Alpha  occ. eigenvalues --  -10.17412 -10.17342  -0.74742  -0.61017  -0.43350
 Alpha  occ. eigenvalues --   -0.42916  -0.36777  -0.34236  -0.34035
 Alpha virt. eigenvalues --    0.04759   0.08508   0.09672   0.10183   0.14001
 Alpha virt. eigenvalues --    0.14186   0.20895   0.37650   0.37800   0.39066
 Alpha virt. eigenvalues --    0.46198   0.50328   0.57294   0.61476   0.61951

 Mulliken charges:
               1
     1  C   -0.269184
     2  C   -0.280057
     3  H    0.090901
     4  H    0.094035
     5  H    0.090092
     6  H    0.095334
     7  H    0.093613
     8  H    0.085267
 Sum of Mulliken charges =  -0.00000

 Dipole moment (field-independent basis, Debye):
    X=              0.0107    Y=              0.0223    Z=              0.0533  Tot=              0.0588
 Quadrupole moment (field-independent basis, Debye-Ang):
   XX=            -15.9501   YY=            -15.0546   ZZ=            -15.1999
   XY=              0.0204   XZ=              0.1172   YZ=              0.0030

 Normal termination of Gaussian 16 at Fri Sep 22 16:33:10 2023.
