 Gaussian 16, Revision A.03,
 Gaussian 16:  ES64L-G16RevA.03 25-Dec-2016

 ----------------------------------------------------------------------
 #p b3lyp/gen scrf=(cpcm,solvent=toluene) pop=hirshfeld empiricaldisper
 sion=gd3bj
 ----------------------------------------------------------------------

 ------------------------
 tmpdir/M2_conf_0_356.gjf
 ------------------------
 Symbolic Z-matrix:
 Charge =  0 Multiplicity = 1

                         Standard orientation:
 ---------------------------------------------------------------------
 Center     Atomic      Atomic             Coordinates (Angstroms)
 Number     Number       Type             X           Y           Z
 ---------------------------------------------------------------------
      1          6           0        1.269018   -0.232312    0.002667
      2          6           0        0.130788    0.475759   -0.000359
      3          6           0       -1.226160   -0.174236   -0.000723
      4          1           0        1.371160   -1.306452   -0.012988
      5          1           0        2.220661    0.302040    0.000082
      6          1           0        0.159600    1.564969   -0.003996
      7          1           0       -1.788599    0.120843    0.897013
      8          1           0       -1.813241    0.170445   -0.864242
      9          1           0       -1.191459   -1.267110   -0.025376
 ---------------------------------------------------------------------

 SCF Done:  E(RB3LYP) =  -117.897387858     A.U. after   10 cycles

 The electronic state is 1-A.
 Alpha  occ. eigenvalues --  -10.18467 -10.17304 -10.16930  -0.78922  -0.68641
 Alpha  occ. eigenvalues --   -0.55981  -0.46595  -0.42954  -0.41355  -0.37180
 Alpha  occ. eigenvalues --   -0.35010  -0.26209
 Alpha virt. eigenvalues --    0.00670   0.05662   0.07996   0.09050   0.11909
 Alpha virt. eigenvalues --    0.13104   0.13915   0.22131   0.31705   0.37086
 Alpha virt. eigenvalues --    0.40244   0.40415   0.48079   0.49118   0.53538

 Mulliken charges:
               1
     1  C   -0.139696
     2  C   -0.253509
     3  C   -0.155314
     4  H    0.087345
     5  H    0.089114
     6  H    0.079771
     7  H    0.101686
     8  H    0.100906
     9  H    0.089696
 Sum of Mulliken charges =  -0.00000

 Dipole moment (field-independent basis, Debye):
    X=             -0.4479    Y=              0.0742    Z=             -0.0105  Tot=              0.4541
 Quadrupole moment (field-independent basis, Debye-Ang):
   XX=            -19.5467   YY=            -18.9107   ZZ=            -22.0841
   XY=             -0.3205   XZ=             -0.0285   YZ=              0.0020

 Normal termination of Gaussian 16 at Fri Sep 22 16:36:41 2023.
