 Gaussian 16, Revision A.03,
 Gaussian 16:  ES64L-G16RevA.03 25-Dec-2016

 ----------------------------------------------------------------------
 #p b3lyp/gen scrf=(cpcm,solvent=toluene) pop=hirshfeld empiricaldisper
 sion=gd3bj
 ----------------------------------------------------------------------

 ------------------------
 tmpdir/M2_conf_0_333.gjf
 ------------------------
 Symbolic Z-matrix:
 Charge =  0 Multiplicity = 1

                         Standard orientation:
 ---------------------------------------------------------------------
 Center     Atomic      Atomic             Coordinates (Angstroms)
 Number     Number       Type             X           Y           Z
 ---------------------------------------------------------------------
      1          6           0       -0.539909   -0.011214   -0.000221
      2          1           0       -1.097151    0.923833    0.000447
      3          1           0       -1.047989   -0.902802    0.000476
      4          8           0        0.673074    0.005781    0.000051
 ---------------------------------------------------------------------

 SCF Done:  E(RB3LYP) =  -114.483705041     A.U. after    9 cycles

 The electronic state is 1-A.
 Alpha  occ. eigenvalues --  -19.13882 -10.27060  -1.06463  -0.65004  -0.51184
 Alpha  occ. eigenvalues --   -0.45476  -0.40333  -0.27430
 Alpha virt. eigenvalues --   -0.05266   0.06546   0.11890   0.18146   0.40318
 Alpha virt. eigenvalues --    0.47627   0.52734   0.60843   0.62610   0.72737
 Alpha virt. eigenvalues --    0.78043   0.87665   0.98013   1.32119   1.50567

 Mulliken charges:
               1
     1  C    0.220984
     2  H    0.076918
     3  H    0.065833
     4  O   -0.363734
 Sum of Mulliken charges =   0.00000

 Dipole moment (field-independent basis, Debye):
    X=             -2.7486    Y=             -0.0901    Z=              0.0001  Tot=              2.7501
 Quadrupole moment (field-independent basis, Debye-Ang):
   XX=            -12.0594   YY=            -11.4876   ZZ=            -11.5043
   XY=              0.0493   XZ=             -0.0005   YZ=              0.0000

 Normal termination of Gaussian 16 at Fri Sep 22 16:35:49 2023.
