 Gaussian 16, Revision A.03,
 Gaussian 16:  ES64L-G16RevA.03 25-Dec-2016

 ----------------------------------------------------------------------
 #p b3lyp/gen scrf=(cpcm,solvent=toluene) pop=hirshfeld empiricaldisper
 sion=gd3bj
 ----------------------------------------------------------------------

 ------------------------
 tmpdir/M2_conf_0_365.gjf
 ------------------------
 Symbolic Z-matrix:
 Charge =  0 Multiplicity = 1

                         Standard orientation:
 ---------------------------------------------------------------------
 Center     Atomic      Atomic             Coordinates (Angstroms)
 Number     Number       Type             X           Y           Z
 ---------------------------------------------------------------------
      1          1           0        0.223683   -0.412702    0.983863
      2          6           0       -0.009257    0.010743   -0.003949
      3          1           0        0.203057   -0.789968   -0.727073
      4          1           0       -1.057581    0.302717   -0.050080
      5          1           0        0.686382    0.835493   -0.183015
 ---------------------------------------------------------------------

 SCF Done:  E(RB3LYP) =  -40.5134869124     A.U. after    7 cycles

 The electronic state is 1-A.
 Alpha  occ. eigenvalues --  -10.16244  -0.69407  -0.40156  -0.39144  -0.38574
 Alpha virt. eigenvalues --    0.05704   0.12511   0.12563   0.12673   0.37005
 Alpha virt. eigenvalues --    0.37407   0.38587   0.63411   0.63761   0.64496
 Alpha virt. eigenvalues --    0.67913   0.96301   1.28805   1.28967   1.83624

 Mulliken charges:
               1
     1  H    0.083043
     2  C   -0.350193
     3  H    0.084524
     4  H    0.093461
     5  H    0.089166
 Sum of Mulliken charges =   0.00000

 Dipole moment (field-independent basis, Debye):
    X=              0.0320    Y=             -0.0380    Z=              0.0158  Tot=              0.0521
 Quadrupole moment (field-independent basis, Debye-Ang):
   XX=             -8.2785   YY=             -8.4790   ZZ=             -8.5930
   XY=             -0.0005   XZ=             -0.0020   YZ=             -0.0039

 Normal termination of Gaussian 16 at Fri Sep 22 16:36:27 2023.
