 Gaussian 16, Revision A.03,
 Gaussian 16:  ES64L-G16RevA.03 25-Dec-2016

 ----------------------------------------------------------------------
 #p b3lyp/gen scrf=(cpcm,solvent=toluene) pop=hirshfeld empiricaldisper
 sion=gd3bj
 ----------------------------------------------------------------------

 ------------------------
 tmpdir/M2_conf_0_190.gjf
 ------------------------
 Symbolic Z-matrix:
 Charge =  0 Multiplicity = 1

                         Standard orientation:
 ---------------------------------------------------------------------
 Center     Atomic      Atomic             Coordinates (Angstroms)
 Number     Number       Type             X           Y           Z
 ---------------------------------------------------------------------
      1          6           0       -0.722374    0.396972    0.022779
      2          7           0        0.373783   -0.360995    0.051339
      3          6           0        1.771454    0.105078   -0.032195
      4          1           0       -0.640643    1.499700    0.079307
      5          8           0       -1.855773   -0.143623   -0.036082
      6          1           0        0.299881   -1.407314    0.064205
      7          1           0        2.296973   -0.765650   -0.461981
      8          1           0        2.147199    0.344101    0.971225
      9          1           0        1.831816    0.992806   -0.666977
 ---------------------------------------------------------------------

 SCF Done:  E(RB3LYP) =  -209.173410476     A.U. after   11 cycles

 The electronic state is 1-A.
 Alpha  occ. eigenvalues --  -19.08249 -14.35194 -10.27864 -10.22495  -1.02398
 Alpha  occ. eigenvalues --   -0.92512  -0.71806  -0.62636  -0.51151  -0.48396
 Alpha  occ. eigenvalues --   -0.46138  -0.41678  -0.40151  -0.38284  -0.25882
 Alpha  occ. eigenvalues --   -0.25588
 Alpha virt. eigenvalues --    0.00744   0.03534   0.05699   0.09089   0.11353
 Alpha virt. eigenvalues --    0.11985   0.15989   0.22054   0.30200   0.37558
 Alpha virt. eigenvalues --    0.40476   0.42207   0.46283   0.48330   0.55276

 Mulliken charges:
               1
     1  C    0.364648
     2  N   -0.468003
     3  C   -0.003397
     4  H    0.071090
     5  O   -0.494448
     6  H    0.207111
     7  H    0.106312
     8  H    0.108037
     9  H    0.108649
 Sum of Mulliken charges =  -0.00000

 Dipole moment (field-independent basis, Debye):
    X=              5.1556    Y=              0.4483    Z=              0.0623  Tot=              5.1754
 Quadrupole moment (field-independent basis, Debye-Ang):
   XX=            -30.8649   YY=            -20.7514   ZZ=            -24.9971
   XY=             -1.9234   XZ=             -0.3749   YZ=             -0.0254

 Normal termination of Gaussian 16 at Fri Sep 22 16:34:14 2023.
