 Gaussian 16, Revision A.03,
 Gaussian 16:  ES64L-G16RevA.03 25-Dec-2016

 ----------------------------------------------------------------------
 #p b3lyp/gen scrf=(cpcm,solvent=toluene) pop=hirshfeld empiricaldisper
 sion=gd3bj
 ----------------------------------------------------------------------

 ------------------------
 tmpdir/M2_conf_0_372.gjf
 ------------------------
 Symbolic Z-matrix:
 Charge =  0 Multiplicity = 1

                         Standard orientation:
 ---------------------------------------------------------------------
 Center     Atomic      Atomic             Coordinates (Angstroms)
 Number     Number       Type             X           Y           Z
 ---------------------------------------------------------------------
      1          6           0       -0.247302    0.425635    0.000520
      2          6           0        1.142719   -0.151833    0.000315
      3          1           0        1.024031   -1.240864   -0.005785
      4          8           0       -1.190262   -0.286746    0.000065
      5          1           0       -0.284943    1.514182   -0.000109
      6          1           0        1.707804    0.184399    0.882015
      7          1           0        1.702703    0.193442   -0.881647
 ---------------------------------------------------------------------

 SCF Done:  E(RB3LYP) =  -153.811960637     A.U. after   10 cycles

 The electronic state is 1-A.
 Alpha  occ. eigenvalues --  -19.12891 -10.26952 -10.18047  -1.07804  -0.75251
 Alpha  occ. eigenvalues --   -0.58978  -0.49074  -0.44972  -0.44594  -0.40085
 Alpha  occ. eigenvalues --   -0.37798  -0.26589
 Alpha virt. eigenvalues --   -0.02691   0.05734   0.08401   0.10877   0.11740
 Alpha virt. eigenvalues --    0.20372   0.23242   0.41280   0.42275   0.44237
 Alpha virt. eigenvalues --    0.46374   0.54909   0.57721   0.61090   0.64651

 Mulliken charges:
               1
     1  C    0.180793
     2  C   -0.239004
     3  H    0.102472
     4  O   -0.334022
     5  H    0.053394
     6  H    0.118501
     7  H    0.117867
 Sum of Mulliken charges =  -0.00000

 Dipole moment (field-independent basis, Debye):
    X=              2.5393    Y=              1.4714    Z=              0.0004  Tot=              2.9348
 Quadrupole moment (field-independent basis, Debye-Ang):
   XX=            -21.2852   YY=            -18.0310   ZZ=            -17.8853
   XY=             -0.7498   XZ=              0.0060   YZ=             -0.0001

 Normal termination of Gaussian 16 at Fri Sep 22 16:36:20 2023.
