 Gaussian 16, Revision A.03,
 Gaussian 16:  ES64L-G16RevA.03 25-Dec-2016

 ----------------------------------------------------------------------
 #p b3lyp/gen scrf=(cpcm,solvent=toluene) pop=hirshfeld empiricaldisper
 sion=gd3bj
 ----------------------------------------------------------------------

 ------------------------
 tmpdir/M2_conf_0_362.gjf
 ------------------------
 Symbolic Z-matrix:
 Charge =  0 Multiplicity = 1

                         Standard orientation:
 ---------------------------------------------------------------------
 Center     Atomic      Atomic             Coordinates (Angstroms)
 Number     Number       Type             X           Y           Z
 ---------------------------------------------------------------------
      1          6           0        0.246415    0.389001   -0.002030
      2          6           0       -1.162389   -0.139286   -0.000431
      3          1           0       -1.661061    0.224924    0.909527
      4          8           0        1.222063   -0.277897   -0.000031
      5          1           0        0.322124    1.475957   -0.006676
      6          1           0       -1.717887    0.255008   -0.863612
      7          1           0       -1.223841   -1.230998   -0.024222
 ---------------------------------------------------------------------

 SCF Done:  E(RB3LYP) =  -153.813375494     A.U. after   10 cycles

 The electronic state is 1-A.
 Alpha  occ. eigenvalues --  -19.12791 -10.26984 -10.18391  -1.07653  -0.75580
 Alpha  occ. eigenvalues --   -0.58860  -0.48770  -0.45215  -0.44973  -0.40001
 Alpha  occ. eigenvalues --   -0.37957  -0.26546
 Alpha virt. eigenvalues --   -0.02523   0.05521   0.08252   0.10781   0.11878
 Alpha virt. eigenvalues --    0.20933   0.22806   0.41472   0.42341   0.44087
 Alpha virt. eigenvalues --    0.45865   0.54781   0.58725   0.60992   0.64685

 Mulliken charges:
               1
     1  C    0.174904
     2  C   -0.234019
     3  H    0.120137
     4  O   -0.332148
     5  H    0.045677
     6  H    0.119819
     7  H    0.105631
 Sum of Mulliken charges =  -0.00000

 Dipole moment (field-independent basis, Debye):
    X=             -2.6924    Y=              1.3250    Z=              0.0057  Tot=              3.0008
 Quadrupole moment (field-independent basis, Debye-Ang):
   XX=            -21.2259   YY=            -18.1445   ZZ=            -17.8388
   XY=              0.9901   XZ=              0.0122   YZ=              0.0152

 Normal termination of Gaussian 16 at Fri Sep 22 16:36:06 2023.
