 Gaussian 16, Revision A.03,
 Gaussian 16:  ES64L-G16RevA.03 25-Dec-2016

 ----------------------------------------------------------------------
 #p b3lyp/gen scrf=(cpcm,solvent=toluene) pop=hirshfeld empiricaldisper
 sion=gd3bj
 ----------------------------------------------------------------------

 ------------------------
 tmpdir/M2_conf_0_314.gjf
 ------------------------
 Symbolic Z-matrix:
 Charge =  0 Multiplicity = 1

                         Standard orientation:
 ---------------------------------------------------------------------
 Center     Atomic      Atomic             Coordinates (Angstroms)
 Number     Number       Type             X           Y           Z
 ---------------------------------------------------------------------
      1          6           0       -0.687388   -0.006252   -0.001132
      2          6           0        0.689212   -0.006756   -0.000482
      3          1           0       -1.209147   -0.893354    0.007731
      4          1           0       -1.242524    0.929118   -0.001694
      5          1           0        1.206788   -0.892869   -0.002743
      6          1           0        1.233934    0.935151    0.006384
 ---------------------------------------------------------------------

 SCF Done:  E(RB3LYP) =  -78.5746858595     A.U. after    9 cycles

 The electronic state is 1-A.
 Alpha  occ. eigenvalues --  -10.18048 -10.17983  -0.76110  -0.59414  -0.47942
 Alpha  occ. eigenvalues --   -0.41795  -0.37378  -0.27413
 Alpha virt. eigenvalues --   -0.01179   0.06598   0.09589   0.09996   0.16165
 Alpha virt. eigenvalues --    0.27673   0.35757   0.41938   0.43569   0.51264
 Alpha virt. eigenvalues --    0.51743   0.55046   0.63594   0.65529   0.70585

 Mulliken charges:
               1
     1  C   -0.188395
     2  C   -0.183588
     3  H    0.083604
     4  H    0.102547
     5  H    0.082851
     6  H    0.102982
 Sum of Mulliken charges =   0.00000

 Dipole moment (field-independent basis, Debye):
    X=             -0.0042    Y=             -0.0270    Z=              0.0104  Tot=              0.0293
 Quadrupole moment (field-independent basis, Debye-Ang):
   XX=            -12.3693   YY=            -12.3078   ZZ=            -15.6595
   XY=             -0.0089   XZ=             -0.0030   YZ=             -0.0001

 Normal termination of Gaussian 16 at Fri Sep 22 16:36:56 2023.
