 Gaussian 16, Revision A.03,
 Gaussian 16:  ES64L-G16RevA.03 25-Dec-2016

 ----------------------------------------------------------------------
 #p b3lyp/gen scrf=(cpcm,solvent=toluene) pop=hirshfeld empiricaldisper
 sion=gd3bj
 ----------------------------------------------------------------------

 ------------------------
 tmpdir/M2_conf_0_247.gjf
 ------------------------
 Symbolic Z-matrix:
 Charge =  0 Multiplicity = 1

                         Standard orientation:
 ---------------------------------------------------------------------
 Center     Atomic      Atomic             Coordinates (Angstroms)
 Number     Number       Type             X           Y           Z
 ---------------------------------------------------------------------
      1          6           0       -0.615704   -0.345596    0.030605
      2          6           0        0.654999    0.379209    0.037563
      3          6           0       -1.909750    0.170129   -0.063420
      4          1           0       -0.699426   -1.360609    0.192226
      5          1           0        0.521306    1.473513    0.150440
      6          6           0        1.900141   -0.222560   -0.061859
 ---------------------------------------------------------------------

 SCF Done:  E(RB3LYP) =  -153.297426935     A.U. after   13 cycles

 The electronic state is 1-A.
 Alpha  occ. eigenvalues --  -10.27804 -10.27716 -10.23270 -10.22760  -0.84578
 Alpha  occ. eigenvalues --   -0.75334  -0.58423  -0.56164  -0.46143  -0.36224
 Alpha  occ. eigenvalues --   -0.33929  -0.31460  -0.26812
 Alpha virt. eigenvalues --   -0.13997  -0.12400  -0.06900   0.02645   0.07089
 Alpha virt. eigenvalues --    0.08733   0.19801   0.24439   0.25048   0.38807
 Alpha virt. eigenvalues --    0.39199   0.41033   0.44115   0.44332   0.47609

 Mulliken charges:
               1
     1  C   -0.157983
     2  C   -0.163615
     3  C   -0.002717
     4  H    0.131555
     5  H    0.170159
     6  C    0.022600
 Sum of Mulliken charges =   0.00000

 Dipole moment (field-independent basis, Debye):
    X=             -0.0428    Y=              0.2937    Z=              0.4291  Tot=              0.5218
 Quadrupole moment (field-independent basis, Debye-Ang):
   XX=            -34.9114   YY=            -19.7929   ZZ=            -26.6908
   XY=              3.9880   XZ=             -0.0722   YZ=             -0.1494

 Normal termination of Gaussian 16 at Fri Sep 22 16:35:34 2023.
