 Gaussian 16, Revision A.03,
 Gaussian 16:  ES64L-G16RevA.03 25-Dec-2016

 ----------------------------------------------------------------------
 #p b3lyp/gen scrf=(cpcm,solvent=toluene) pop=hirshfeld empiricaldisper
 sion=gd3bj
 ----------------------------------------------------------------------

 ------------------------
 tmpdir/M2_conf_0_250.gjf
 ------------------------
 Symbolic Z-matrix:
 Charge =  0 Multiplicity = 1

                         Standard orientation:
 ---------------------------------------------------------------------
 Center     Atomic      Atomic             Coordinates (Angstroms)
 Number     Number       Type             X           Y           Z
 ---------------------------------------------------------------------
      1          6           0       -0.800425   -0.844338    0.014624
      2          6           0       -0.025331    0.350086   -0.027577
      3          6           0        1.432536    0.369967    0.080447
      4          8           0       -1.970976   -0.535042    0.027950
      5          1           0       -0.408680   -1.853877    0.051101
      6          8           0       -0.810524    1.297493   -0.059266
      7          1           0        1.828031    1.374260    0.331606
      8          8           0        2.148995   -0.609284   -0.067142
 ---------------------------------------------------------------------

 SCF Done:  E(RB3LYP) =  -341.046997372     A.U. after   14 cycles

 The electronic state is 1-A.
 Alpha  occ. eigenvalues --  -19.18436 -19.17060 -19.15192 -10.31292 -10.29843
 Alpha  occ. eigenvalues --  -10.28652  -1.13177  -1.10325  -1.05912  -0.77932
 Alpha  occ. eigenvalues --   -0.68743  -0.57883  -0.54961  -0.51455  -0.49342
 Alpha  occ. eigenvalues --   -0.47691  -0.46308  -0.43344  -0.38467  -0.34728
 Alpha  occ. eigenvalues --   -0.29533  -0.28825
 Alpha virt. eigenvalues --   -0.16240  -0.07351   0.05042   0.07304   0.07669
 Alpha virt. eigenvalues --    0.13784   0.21402   0.23449   0.26916   0.32588
 Alpha virt. eigenvalues --    0.36217   0.38165   0.42739   0.48140   0.50988

 Mulliken charges:
               1
     1  C    0.268075
     2  C    0.097589
     3  C    0.319884
     4  O   -0.293896
     5  H    0.082121
     6  O   -0.268345
     7  H    0.100787
     8  O   -0.306214
 Sum of Mulliken charges =  -0.00000

 Dipole moment (field-independent basis, Debye):
    X=              2.3127    Y=             -0.4941    Z=              0.3906  Tot=              2.3970
 Quadrupole moment (field-independent basis, Debye-Ang):
   XX=            -43.8511   YY=            -33.8381   ZZ=            -30.8839
   XY=              4.6407   XZ=              0.5882   YZ=              0.1629

 Normal termination of Gaussian 16 at Fri Sep 22 16:36:22 2023.
