 Gaussian 16, Revision A.03,
 Gaussian 16:  ES64L-G16RevA.03 25-Dec-2016

 ----------------------------------------------------------------------
 #p b3lyp/gen scrf=(cpcm,solvent=toluene) pop=hirshfeld empiricaldisper
 sion=gd3bj
 ----------------------------------------------------------------------

 ------------------------
 tmpdir/M2_conf_0_239.gjf
 ------------------------
 Symbolic Z-matrix:
 Charge =  0 Multiplicity = 1

                         Standard orientation:
 ---------------------------------------------------------------------
 Center     Atomic      Atomic             Coordinates (Angstroms)
 Number     Number       Type             X           Y           Z
 ---------------------------------------------------------------------
      1          7           0        1.446130   -0.751281   -0.201940
      2          6           0        0.380113    0.059284    0.143830
      3          6           0       -1.008345   -0.388620    0.363740
      4          1           0        2.227953   -0.191960   -0.399600
      5          1           0        1.462839   -1.767067   -0.020505
      6          8           0        0.769181    1.225909    0.091517
      7          8           0       -1.862573    0.045917   -0.387435
      8          1           0       -1.297173   -0.980594    1.155604
 ---------------------------------------------------------------------

 SCF Done:  E(RB3LYP) =  -283.143872101     A.U. after   12 cycles

 The electronic state is 1-A.
 Alpha  occ. eigenvalues --  -19.16017 -19.10867 -14.34910 -10.30262 -10.29785
 Alpha  occ. eigenvalues --   -1.09512  -1.06293  -0.90724  -0.72939  -0.59846
 Alpha  occ. eigenvalues --   -0.56955  -0.53294  -0.48024  -0.45488  -0.42364
 Alpha  occ. eigenvalues --   -0.40790  -0.31745  -0.28250  -0.27130
 Alpha virt. eigenvalues --   -0.08791  -0.00307   0.03989   0.08434   0.09855
 Alpha virt. eigenvalues --    0.20551   0.22434   0.27551   0.32430   0.39093
 Alpha virt. eigenvalues --    0.43208   0.44611   0.48015   0.49161   0.57940

 Mulliken charges:
               1
     1  N   -0.336936
     2  C    0.293062
     3  C    0.332525
     4  H    0.188708
     5  H    0.196480
     6  O   -0.428321
     7  O   -0.322085
     8  H    0.076566
 Sum of Mulliken charges =  -0.00000

 Dipole moment (field-independent basis, Debye):
    X=              1.8990    Y=             -4.7650    Z=              1.7382  Tot=              5.4160
 Quadrupole moment (field-independent basis, Debye-Ang):
   XX=            -28.9798   YY=            -28.6144   ZZ=            -28.1178
   XY=             -2.2799   XZ=             -3.3832   YZ=             -1.2293

 Normal termination of Gaussian 16 at Fri Sep 22 16:35:31 2023.
