 Gaussian 16, Revision A.03,
 Gaussian 16:  ES64L-G16RevA.03 25-Dec-2016

 ----------------------------------------------------------------------
 #p b3lyp/gen scrf=(cpcm,solvent=toluene) pop=hirshfeld empiricaldisper
 sion=gd3bj
 ----------------------------------------------------------------------

 ------------------------
 tmpdir/M2_conf_0_167.gjf
 ------------------------
 Symbolic Z-matrix:
 Charge =  0 Multiplicity = 1

                         Standard orientation:
 ---------------------------------------------------------------------
 Center     Atomic      Atomic             Coordinates (Angstroms)
 Number     Number       Type             X           Y           Z
 ---------------------------------------------------------------------
      1          6           0        0.765037   -0.005261   -0.004984
      2          6           0       -0.760076   -0.020550    0.000862
      3          1           0       -1.171570   -0.689572    0.760950
      4          1           0        1.007913    0.994948   -0.409732
      5          1           0        1.179406   -0.819405   -0.609085
      6          1           0        1.145564   -0.121010    1.016403
      7          1           0       -1.161380   -0.289564   -0.984906
      8          1           0       -1.029699    1.079469    0.251100
 ---------------------------------------------------------------------

 SCF Done:  E(RB3LYP) =  -79.8137889519     A.U. after    9 cycles

 The electronic state is 1-A.
 Alpha  occ. eigenvalues --  -10.16915 -10.16471  -0.75583  -0.60593  -0.44495
 Alpha  occ. eigenvalues --   -0.43803  -0.35915  -0.34482  -0.33809
 Alpha virt. eigenvalues --    0.04599   0.09228   0.09562   0.09898   0.14722
 Alpha virt. eigenvalues --    0.15063   0.21127   0.36682   0.38927   0.40801
 Alpha virt. eigenvalues --    0.46438   0.48768   0.58877   0.61063   0.64030

 Mulliken charges:
               1
     1  C   -0.253177
     2  C   -0.277645
     3  H    0.089282
     4  H    0.089329
     5  H    0.087986
     6  H    0.087029
     7  H    0.090414
     8  H    0.086783
 Sum of Mulliken charges =  -0.00000

 Dipole moment (field-independent basis, Debye):
    X=              0.0257    Y=             -0.0377    Z=              0.0051  Tot=              0.0459
 Quadrupole moment (field-independent basis, Debye-Ang):
   XX=            -16.5016   YY=            -14.8429   ZZ=            -14.9791
   XY=              0.0372   XZ=              0.1313   YZ=             -0.0412

 Normal termination of Gaussian 16 at Fri Sep 22 16:34:13 2023.
