 Gaussian 16, Revision A.03,
 Gaussian 16:  ES64L-G16RevA.03 25-Dec-2016

 ----------------------------------------------------------------------
 #p b3lyp/gen scrf=(cpcm,solvent=toluene) pop=hirshfeld empiricaldisper
 sion=gd3bj
 ----------------------------------------------------------------------

 ------------------------
 tmpdir/M2_conf_0_261.gjf
 ------------------------
 Symbolic Z-matrix:
 Charge =  0 Multiplicity = 1

                         Standard orientation:
 ---------------------------------------------------------------------
 Center     Atomic      Atomic             Coordinates (Angstroms)
 Number     Number       Type             X           Y           Z
 ---------------------------------------------------------------------
      1          1           0       -0.148835   -0.419296    0.991064
      2          6           0       -0.005319    0.000429   -0.010284
      3          1           0        0.775260   -0.588244   -0.505858
      4          1           0       -0.955040   -0.023814   -0.526033
      5          1           0        0.360532    1.028778    0.102530
 ---------------------------------------------------------------------

 SCF Done:  E(RB3LYP) =  -40.5135782319     A.U. after    7 cycles

 The electronic state is 1-A.
 Alpha  occ. eigenvalues --  -10.16117  -0.69494  -0.40193  -0.39075  -0.38766
 Alpha virt. eigenvalues --    0.05755   0.12550   0.12598   0.12781   0.36944
 Alpha virt. eigenvalues --    0.37465   0.38606   0.63686   0.63766   0.64790
 Alpha virt. eigenvalues --    0.68295   0.96221   1.28408   1.29381   1.83945

 Mulliken charges:
               1
     1  H    0.082292
     2  C   -0.346891
     3  H    0.088097
     4  H    0.090078
     5  H    0.086424
 Sum of Mulliken charges =  -0.00000

 Dipole moment (field-independent basis, Debye):
    X=              0.0086    Y=             -0.0044    Z=              0.0378  Tot=              0.0391
 Quadrupole moment (field-independent basis, Debye-Ang):
   XX=             -8.2905   YY=             -8.4759   ZZ=             -8.5529
   XY=             -0.0033   XZ=              0.0270   YZ=              0.0077

 Normal termination of Gaussian 16 at Fri Sep 22 16:34:46 2023.
