 Gaussian 16, Revision A.03,
 Gaussian 16:  ES64L-G16RevA.03 25-Dec-2016

 ----------------------------------------------------------------------
 #p b3lyp/gen scrf=(cpcm,solvent=toluene) pop=hirshfeld empiricaldisper
 sion=gd3bj
 ----------------------------------------------------------------------

 -----------------------
 tmpdir/M2_conf_0_61.gjf
 -----------------------
 Symbolic Z-matrix:
 Charge =  0 Multiplicity = 1

                         Standard orientation:
 ---------------------------------------------------------------------
 Center     Atomic      Atomic             Coordinates (Angstroms)
 Number     Number       Type             X           Y           Z
 ---------------------------------------------------------------------
      1          7           0       -0.729013    0.017707    0.047786
      2          6           0        0.724936    0.004171   -0.005831
      3          1           0        1.060265    1.031857   -0.147060
      4          1           0       -1.300890    0.750207   -0.115277
      5          1           0       -1.162247   -0.903570   -0.091155
      6          1           0        1.017646   -0.610663   -0.890254
      7          1           0        1.138698   -0.416805    0.944234
 ---------------------------------------------------------------------

 SCF Done:  E(RB3LYP) =  -95.8324116539     A.U. after    9 cycles

 The electronic state is 1-A.
 Alpha  occ. eigenvalues --  -14.27239 -10.19596  -0.86379  -0.65921  -0.49861
 Alpha  occ. eigenvalues --   -0.42864  -0.41504  -0.37280  -0.21017
 Alpha virt. eigenvalues --    0.05087   0.08476   0.09748   0.12210   0.15478
 Alpha virt. eigenvalues --    0.20456   0.40446   0.44478   0.45708   0.56225
 Alpha virt. eigenvalues --    0.61148   0.62764   0.64961   0.69963   0.71690

 Mulliken charges:
               1
     1  N   -0.511395
     2  C   -0.031515
     3  H    0.085879
     4  H    0.133032
     5  H    0.162342
     6  H    0.076588
     7  H    0.085070
 Sum of Mulliken charges =   0.00000

 Dipole moment (field-independent basis, Debye):
    X=             -0.1166    Y=             -0.0340    Z=             -0.6441  Tot=              0.6555
 Quadrupole moment (field-independent basis, Debye-Ang):
   XX=            -13.1352   YY=            -12.3631   ZZ=            -15.5640
   XY=              0.1272   XZ=              0.8209   YZ=             -0.0638

 Normal termination of Gaussian 16 at Fri Sep 22 16:33:31 2023.
