 Gaussian 16, Revision A.03,
 Gaussian 16:  ES64L-G16RevA.03 25-Dec-2016

 ----------------------------------------------------------------------
 #p b3lyp/gen scrf=(cpcm,solvent=toluene) pop=hirshfeld empiricaldisper
 sion=gd3bj
 ----------------------------------------------------------------------

 ------------------------
 tmpdir/M2_conf_0_161.gjf
 ------------------------
 Symbolic Z-matrix:
 Charge =  0 Multiplicity = 1

                         Standard orientation:
 ---------------------------------------------------------------------
 Center     Atomic      Atomic             Coordinates (Angstroms)
 Number     Number       Type             X           Y           Z
 ---------------------------------------------------------------------
      1          6           0       -1.780016   -0.215378   -0.087754
      2          6           0       -0.452598    0.526222    0.100188
      3          6           0        0.765991   -0.398110    0.096557
      4          1           0       -1.760248   -0.851835   -0.976359
      5          1           0       -2.001200   -0.831238    0.791082
      6          1           0       -2.588808    0.517227   -0.191691
      7          1           0       -0.478483    1.145679    1.041447
      8          1           0       -0.343459    1.351626   -0.732602
      9          1           0        0.676746   -1.369461    0.302775
     10          8           0        1.911898    0.070200   -0.111075
 ---------------------------------------------------------------------

 SCF Done:  E(RB3LYP) =  -193.107302014     A.U. after   11 cycles

 The electronic state is 1-A.
 Alpha  occ. eigenvalues --  -19.12582 -10.26926 -10.19946 -10.17999  -1.03543
 Alpha  occ. eigenvalues --   -0.78793  -0.66370  -0.60286  -0.47699  -0.45590
 Alpha  occ. eigenvalues --   -0.45295  -0.39640  -0.38720  -0.37306  -0.34106
 Alpha  occ. eigenvalues --   -0.26534
 Alpha virt. eigenvalues --   -0.05285   0.04482   0.07509   0.08662   0.10130
 Alpha virt. eigenvalues --    0.11521   0.13757   0.19810   0.20417   0.24468
 Alpha virt. eigenvalues --    0.38453   0.39673   0.42419   0.43618   0.49851

 Mulliken charges:
               1
     1  C   -0.209170
     2  C   -0.294617
     3  C    0.298640
     4  H    0.099820
     5  H    0.097235
     6  H    0.099378
     7  H    0.138538
     8  H    0.131289
     9  H    0.039283
    10  O   -0.400398
 Sum of Mulliken charges =   0.00000

 Dipole moment (field-independent basis, Debye):
    X=             -3.2539    Y=             -0.7345    Z=              0.5779  Tot=              3.3855
 Quadrupole moment (field-independent basis, Debye-Ang):
   XX=            -32.5901   YY=            -23.9758   ZZ=            -24.5439
   XY=             -1.5353   XZ=              0.6499   YZ=             -0.0071

 Normal termination of Gaussian 16 at Fri Sep 22 16:35:32 2023.
