 Gaussian 16, Revision A.03,
 Gaussian 16:  ES64L-G16RevA.03 25-Dec-2016

 ----------------------------------------------------------------------
 #p b3lyp/gen scrf=(cpcm,solvent=toluene) pop=hirshfeld empiricaldisper
 sion=gd3bj
 ----------------------------------------------------------------------

 ------------------------
 tmpdir/M2_conf_0_293.gjf
 ------------------------
 Symbolic Z-matrix:
 Charge =  0 Multiplicity = 1

                         Standard orientation:
 ---------------------------------------------------------------------
 Center     Atomic      Atomic             Coordinates (Angstroms)
 Number     Number       Type             X           Y           Z
 ---------------------------------------------------------------------
      1          6           0       -1.413539   -0.474534    0.000772
      2          6           0       -0.604873    0.645146   -0.008733
      3          6           0        0.808001    0.476485   -0.009555
      4          1           0       -1.024731   -1.420488    0.018908
      5          1           0       -2.491575   -0.357602   -0.022044
      6          1           0       -1.083247    1.597149    0.065251
      7          8           0        1.301049   -0.631690    0.005043
      8          1           0        1.453628    1.351876    0.002635
 ---------------------------------------------------------------------

 SCF Done:  E(RB3LYP) =  -191.882126477     A.U. after   11 cycles

 The electronic state is 1-A.
 Alpha  occ. eigenvalues --  -19.12018 -10.26511 -10.20720 -10.19540  -1.05827
 Alpha  occ. eigenvalues --   -0.80124  -0.67403  -0.55890  -0.52719  -0.45951
 Alpha  occ. eigenvalues --   -0.42632  -0.41301  -0.39991  -0.28884  -0.26957
 Alpha virt. eigenvalues --   -0.08862   0.05197   0.05833   0.08201   0.10818
 Alpha virt. eigenvalues --    0.13379   0.21853   0.25460   0.28814   0.40220
 Alpha virt. eigenvalues --    0.41743   0.45433   0.46167   0.48528   0.51578

 Mulliken charges:
               1
     1  C   -0.016612
     2  C   -0.259534
     3  C    0.306319
     4  H    0.088768
     5  H    0.117898
     6  H    0.081391
     7  O   -0.374106
     8  H    0.055876
 Sum of Mulliken charges =  -0.00000

 Dipole moment (field-independent basis, Debye):
    X=             -2.3674    Y=              1.9733    Z=              0.0442  Tot=              3.0822
 Quadrupole moment (field-independent basis, Debye-Ang):
   XX=            -23.8636   YY=            -22.5485   ZZ=            -24.9787
   XY=              3.3871   XZ=             -0.0772   YZ=              0.0991

 Normal termination of Gaussian 16 at Fri Sep 22 16:36:07 2023.
