 Gaussian 16, Revision A.03,
 Gaussian 16:  ES64L-G16RevA.03 25-Dec-2016

 ----------------------------------------------------------------------
 #p b3lyp/gen scrf=(cpcm,solvent=toluene) pop=hirshfeld empiricaldisper
 sion=gd3bj
 ----------------------------------------------------------------------

 ------------------------
 tmpdir/M2_conf_0_285.gjf
 ------------------------
 Symbolic Z-matrix:
 Charge =  0 Multiplicity = 1

                         Standard orientation:
 ---------------------------------------------------------------------
 Center     Atomic      Atomic             Coordinates (Angstroms)
 Number     Number       Type             X           Y           Z
 ---------------------------------------------------------------------
      1          6           0        0.754385   -0.013035    0.001710
      2          6           0       -0.757778   -0.002610    0.000132
      3          1           0       -1.141447    0.578637   -0.847037
      4          1           0        1.108256    1.116547    0.044855
      5          1           0        1.166032   -0.464841   -0.910446
      6          1           0        1.168966   -0.555033    0.857453
      7          1           0       -1.139209   -1.028597   -0.078219
      8          1           0       -1.142239    0.447153    0.922336
 ---------------------------------------------------------------------

 SCF Done:  E(RB3LYP) =  -79.8178336388     A.U. after    9 cycles

 The electronic state is 1-A.
 Alpha  occ. eigenvalues --  -10.17219 -10.16455  -0.75585  -0.60914  -0.43845
 Alpha  occ. eigenvalues --   -0.43525  -0.37131  -0.34468  -0.33584
 Alpha virt. eigenvalues --    0.04768   0.09163   0.10010   0.10546   0.13341
 Alpha virt. eigenvalues --    0.13920   0.21867   0.36874   0.39034   0.39907
 Alpha virt. eigenvalues --    0.46175   0.47065   0.59335   0.60671   0.64218

 Mulliken charges:
               1
     1  C   -0.278973
     2  C   -0.246570
     3  H    0.087139
     4  H    0.087489
     5  H    0.088759
     6  H    0.089799
     7  H    0.085149
     8  H    0.087208
 Sum of Mulliken charges =  -0.00000

 Dipole moment (field-independent basis, Debye):
    X=             -0.0527    Y=             -0.0647    Z=             -0.0072  Tot=              0.0838
 Quadrupole moment (field-independent basis, Debye-Ang):
   XX=            -16.1221   YY=            -15.0064   ZZ=            -15.0490
   XY=             -0.2236   XZ=             -0.0096   YZ=             -0.0180

 Normal termination of Gaussian 16 at Fri Sep 22 16:35:42 2023.
