 Gaussian 16, Revision A.03,
 Gaussian 16:  ES64L-G16RevA.03 25-Dec-2016

 ----------------------------------------------------------------------
 #p b3lyp/gen scrf=(cpcm,solvent=toluene) pop=hirshfeld empiricaldisper
 sion=gd3bj
 ----------------------------------------------------------------------

 -----------------------
 tmpdir/M2_conf_0_30.gjf
 -----------------------
 Symbolic Z-matrix:
 Charge =  0 Multiplicity = 1

                         Standard orientation:
 ---------------------------------------------------------------------
 Center     Atomic      Atomic             Coordinates (Angstroms)
 Number     Number       Type             X           Y           Z
 ---------------------------------------------------------------------
      1          8           0        0.745026    0.111835   -0.003048
      2          6           0       -0.693826   -0.015781   -0.002702
      3          1           0        1.280007   -0.634495    0.012461
      4          1           0       -0.987352   -0.542473    0.917079
      5          1           0       -1.006423   -0.613332   -0.865652
      6          1           0       -1.083488    0.990302   -0.023290
 ---------------------------------------------------------------------

 SCF Done:  E(RB3LYP) =  -115.699281344     A.U. after    9 cycles

 The electronic state is 1-A.
 Alpha  occ. eigenvalues --  -19.10240 -10.22010  -1.01099  -0.69343  -0.50738
 Alpha  occ. eigenvalues --   -0.43745  -0.43482  -0.32214  -0.27116
 Alpha virt. eigenvalues --    0.04917   0.07886   0.11775   0.12033   0.16757
 Alpha virt. eigenvalues --    0.41834   0.42597   0.44386   0.58879   0.60924
 Alpha virt. eigenvalues --    0.64460   0.66792   0.86437   0.86987   0.90364

 Mulliken charges:
               1
     1  O   -0.511036
     2  C    0.060173
     3  H    0.200852
     4  H    0.075337
     5  H    0.077972
     6  H    0.096702
 Sum of Mulliken charges =  -0.00000

 Dipole moment (field-independent basis, Debye):
    X=             -0.8781    Y=             -1.5435    Z=              0.0314  Tot=              1.7761
 Quadrupole moment (field-independent basis, Debye-Ang):
   XX=            -12.0502   YY=            -12.3651   ZZ=            -13.6740
   XY=             -2.3437   XZ=              0.0639   YZ=              0.0009

 Normal termination of Gaussian 16 at Fri Sep 22 16:32:56 2023.
