 Gaussian 16, Revision A.03,
 Gaussian 16:  ES64L-G16RevA.03 25-Dec-2016

 ----------------------------------------------------------------------
 #p b3lyp/gen scrf=(cpcm,solvent=toluene) pop=hirshfeld empiricaldisper
 sion=gd3bj
 ----------------------------------------------------------------------

 ------------------------
 tmpdir/M2_conf_0_234.gjf
 ------------------------
 Symbolic Z-matrix:
 Charge =  0 Multiplicity = 1

                         Standard orientation:
 ---------------------------------------------------------------------
 Center     Atomic      Atomic             Coordinates (Angstroms)
 Number     Number       Type             X           Y           Z
 ---------------------------------------------------------------------
      1          6           0        0.732851    0.490208   -0.030661
      2          7           0       -0.343404   -0.373281   -0.125669
      3          6           0       -1.740472    0.056580    0.063525
      4          8           0        1.750016   -0.195155    0.073103
      5          1           0        0.690471    1.550347   -0.152825
      6          1           0       -0.020415   -1.299263   -0.088399
      7          1           0       -2.442831   -0.324952   -0.718889
      8          1           0       -2.045184   -0.177547    1.110219
      9          1           0       -1.732614    1.144895   -0.052435
 ---------------------------------------------------------------------

 SCF Done:  E(RB3LYP) =  -209.156892852     A.U. after   11 cycles

 The electronic state is 1-A.
 Alpha  occ. eigenvalues --  -19.08653 -14.33421 -10.27951 -10.22090  -1.04724
 Alpha  occ. eigenvalues --   -0.90848  -0.70325  -0.63349  -0.51031  -0.48829
 Alpha  occ. eigenvalues --   -0.45578  -0.41932  -0.39756  -0.38951  -0.26309
 Alpha  occ. eigenvalues --   -0.24892
 Alpha virt. eigenvalues --   -0.00172   0.04806   0.06768   0.10081   0.10926
 Alpha virt. eigenvalues --    0.11052   0.16655   0.22646   0.28055   0.36201
 Alpha virt. eigenvalues --    0.37005   0.42592   0.48327   0.52759   0.55358

 Mulliken charges:
               1
     1  C    0.367695
     2  N   -0.443206
     3  C   -0.008677
     4  O   -0.473008
     5  H    0.085852
     6  H    0.167235
     7  H    0.109813
     8  H    0.107097
     9  H    0.087199
 Sum of Mulliken charges =   0.00000

 Dipole moment (field-independent basis, Debye):
    X=             -4.0442    Y=              1.2299    Z=             -0.0480  Tot=              4.2273
 Quadrupole moment (field-independent basis, Debye-Ang):
   XX=            -30.0730   YY=            -20.9145   ZZ=            -24.9053
   XY=              1.6258   XZ=             -0.5042   YZ=             -0.1215

 Normal termination of Gaussian 16 at Fri Sep 22 16:34:33 2023.
