 Gaussian 16, Revision A.03,
 Gaussian 16:  ES64L-G16RevA.03 25-Dec-2016

 ----------------------------------------------------------------------
 #p b3lyp/gen scrf=(cpcm,solvent=toluene) pop=hirshfeld empiricaldisper
 sion=gd3bj
 ----------------------------------------------------------------------

 ------------------------
 tmpdir/M2_conf_0_340.gjf
 ------------------------
 Symbolic Z-matrix:
 Charge =  0 Multiplicity = 1

                         Standard orientation:
 ---------------------------------------------------------------------
 Center     Atomic      Atomic             Coordinates (Angstroms)
 Number     Number       Type             X           Y           Z
 ---------------------------------------------------------------------
      1          6           0        0.775007    0.003608   -0.018084
      2          6           0       -0.769987    0.009937   -0.001113
      3          1           0       -1.060322   -0.039699    1.053009
      4          1           0        1.171018   -0.769588    0.725828
      5          1           0        1.193998    0.994309    0.280011
      6          1           0        1.146994   -0.270274   -1.005576
      7          1           0       -1.232240    0.924489   -0.440582
      8          1           0       -1.249564   -0.920504   -0.497514
 ---------------------------------------------------------------------

 SCF Done:  E(RB3LYP) =  -79.8165332306     A.U. after    9 cycles

 The electronic state is 1-A.
 Alpha  occ. eigenvalues --  -10.17393 -10.17330  -0.74784  -0.61013  -0.43346
 Alpha  occ. eigenvalues --   -0.42939  -0.36827  -0.34216  -0.34021
 Alpha virt. eigenvalues --    0.04763   0.08518   0.09662   0.10167   0.14011
 Alpha virt. eigenvalues --    0.14194   0.20990   0.37618   0.37831   0.39015
 Alpha virt. eigenvalues --    0.46237   0.50303   0.57441   0.61495   0.61963

 Mulliken charges:
               1
     1  C   -0.268432
     2  C   -0.280035
     3  H    0.085040
     4  H    0.090857
     5  H    0.093969
     6  H    0.090117
     7  H    0.095104
     8  H    0.093380
 Sum of Mulliken charges =  -0.00000

 Dipole moment (field-independent basis, Debye):
    X=              0.0101    Y=              0.0223    Z=              0.0535  Tot=              0.0589
 Quadrupole moment (field-independent basis, Debye-Ang):
   XX=            -15.9455   YY=            -15.0531   ZZ=            -15.2031
   XY=              0.0206   XZ=              0.1064   YZ=              0.0033

 Normal termination of Gaussian 16 at Fri Sep 22 16:36:56 2023.
