 Gaussian 16, Revision A.03,
 Gaussian 16:  ES64L-G16RevA.03 25-Dec-2016

 ----------------------------------------------------------------------
 #p b3lyp/gen scrf=(cpcm,solvent=toluene) pop=hirshfeld empiricaldisper
 sion=gd3bj
 ----------------------------------------------------------------------

 ------------------------
 tmpdir/M2_conf_0_256.gjf
 ------------------------
 Symbolic Z-matrix:
 Charge =  0 Multiplicity = 1

                         Standard orientation:
 ---------------------------------------------------------------------
 Center     Atomic      Atomic             Coordinates (Angstroms)
 Number     Number       Type             X           Y           Z
 ---------------------------------------------------------------------
      1          6           0       -0.005276    0.000427   -0.010259
      2          1           0        0.771233   -0.593490   -0.505307
      3          1           0       -0.954673   -0.017150   -0.526888
      4          1           0       -0.152779   -0.418055    0.991031
      5          1           0        0.367877    1.026132    0.102716
 ---------------------------------------------------------------------

 SCF Done:  E(RB3LYP) =  -40.5135819341     A.U. after    7 cycles

 The electronic state is 1-A.
 Alpha  occ. eigenvalues --  -10.16114  -0.69496  -0.40193  -0.39073  -0.38772
 Alpha virt. eigenvalues --    0.05756   0.12554   0.12598   0.12782   0.36949
 Alpha virt. eigenvalues --    0.37461   0.38605   0.63697   0.63766   0.64794
 Alpha virt. eigenvalues --    0.68303   0.96222   1.28409   1.29379   1.83967

 Mulliken charges:
               1
     1  C   -0.346816
     2  H    0.088054
     3  H    0.090053
     4  H    0.082305
     5  H    0.086404
 Sum of Mulliken charges =  -0.00000

 Dipole moment (field-independent basis, Debye):
    X=              0.0086    Y=             -0.0045    Z=              0.0376  Tot=              0.0388
 Quadrupole moment (field-independent basis, Debye-Ang):
   XX=             -8.2906   YY=             -8.4762   ZZ=             -8.5518
   XY=             -0.0040   XZ=              0.0267   YZ=              0.0077

 Normal termination of Gaussian 16 at Fri Sep 22 16:35:18 2023.
