 Gaussian 16, Revision A.03,
 Gaussian 16:  ES64L-G16RevA.03 25-Dec-2016

 ----------------------------------------------------------------------
 #p b3lyp/gen scrf=(cpcm,solvent=toluene) pop=hirshfeld empiricaldisper
 sion=gd3bj
 ----------------------------------------------------------------------

 ------------------------
 tmpdir/M2_conf_0_272.gjf
 ------------------------
 Symbolic Z-matrix:
 Charge =  0 Multiplicity = 1

                         Standard orientation:
 ---------------------------------------------------------------------
 Center     Atomic      Atomic             Coordinates (Angstroms)
 Number     Number       Type             X           Y           Z
 ---------------------------------------------------------------------
      1          6           0        0.012435    0.011124   -0.000657
      2          1           0        0.636965   -0.261867   -0.859070
      3          1           0       -1.031444   -0.542423   -0.083938
      4          1           0        0.517169   -0.347103    0.906272
      5          1           0       -0.197297    1.084650    0.040678
 ---------------------------------------------------------------------

 SCF Done:  E(RB3LYP) =  -40.5097753842     A.U. after    8 cycles

 The electronic state is 1-A.
 Alpha  occ. eigenvalues --  -10.17140  -0.68807  -0.40175  -0.39121  -0.37582
 Alpha virt. eigenvalues --    0.05281   0.11265   0.12518   0.12597   0.37116
 Alpha virt. eigenvalues --    0.37441   0.38769   0.59210   0.63569   0.64142
 Alpha virt. eigenvalues --    0.66096   0.95514   1.28832   1.30110   1.81340

 Mulliken charges:
               1
     1  C   -0.369676
     2  H    0.092503
     3  H    0.090908
     4  H    0.091255
     5  H    0.095010
 Sum of Mulliken charges =  -0.00000

 Dipole moment (field-independent basis, Debye):
    X=              0.0412    Y=              0.0076    Z=              0.0098  Tot=              0.0430
 Quadrupole moment (field-independent basis, Debye-Ang):
   XX=             -8.4831   YY=             -8.4853   ZZ=             -8.5886
   XY=             -0.1222   XZ=             -0.0239   YZ=             -0.0064

 Normal termination of Gaussian 16 at Fri Sep 22 16:35:08 2023.
