 Gaussian 16, Revision A.03,
 Gaussian 16:  ES64L-G16RevA.03 25-Dec-2016

 ----------------------------------------------------------------------
 #p b3lyp/gen scrf=(cpcm,solvent=toluene) pop=hirshfeld empiricaldisper
 sion=gd3bj
 ----------------------------------------------------------------------

 ----------------------
 tmpdir/M2_conf_0_7.gjf
 ----------------------
 Symbolic Z-matrix:
 Charge =  0 Multiplicity = 1

                         Standard orientation:
 ---------------------------------------------------------------------
 Center     Atomic      Atomic             Coordinates (Angstroms)
 Number     Number       Type             X           Y           Z
 ---------------------------------------------------------------------
      1          6           0       -0.127018    0.430355   -0.002775
      2          8           0        1.052321   -0.267009   -0.006954
      3          8           0       -1.172323   -0.262150    0.003894
      4          1           0       -0.197810    1.441570   -0.006607
      5          1           0        1.919933    0.209576    0.047733
 ---------------------------------------------------------------------

 SCF Done:  E(RB3LYP) =  -189.717238362     A.U. after   10 cycles

 The electronic state is 1-A.
 Alpha  occ. eigenvalues --  -19.18519 -19.12397 -10.32511  -1.10310  -1.01494
 Alpha  occ. eigenvalues --   -0.66400  -0.60016  -0.45650  -0.44437  -0.39927
 Alpha  occ. eigenvalues --   -0.32901  -0.29319
 Alpha virt. eigenvalues --   -0.03063   0.02477   0.08319   0.20818   0.22094
 Alpha virt. eigenvalues --    0.39514   0.41313   0.49524   0.55468   0.61487
 Alpha virt. eigenvalues --    0.68715   0.79271   0.81733   0.86225   0.89560

 Mulliken charges:
               1
     1  C    0.460703
     2  O   -0.378322
     3  O   -0.422725
     4  H    0.072940
     5  H    0.267404
 Sum of Mulliken charges =  -0.00000

 Dipole moment (field-independent basis, Debye):
    X=              3.6436    Y=              3.3281    Z=              0.0930  Tot=              4.9357
 Quadrupole moment (field-independent basis, Debye-Ang):
   XX=            -15.8808   YY=            -16.1964   ZZ=            -17.0348
   XY=              0.7196   XZ=              0.2380   YZ=              0.0218

 Normal termination of Gaussian 16 at Fri Sep 22 16:33:52 2023.
