 Gaussian 16, Revision A.03,
 Gaussian 16:  ES64L-G16RevA.03 25-Dec-2016

 ----------------------------------------------------------------------
 #p b3lyp/gen scrf=(cpcm,solvent=toluene) pop=hirshfeld empiricaldisper
 sion=gd3bj
 ----------------------------------------------------------------------

 ------------------------
 tmpdir/M2_conf_0_186.gjf
 ------------------------
 Symbolic Z-matrix:
 Charge =  0 Multiplicity = 1

                         Standard orientation:
 ---------------------------------------------------------------------
 Center     Atomic      Atomic             Coordinates (Angstroms)
 Number     Number       Type             X           Y           Z
 ---------------------------------------------------------------------
      1          6           0        0.761638   -0.013915    0.006230
      2          6           0       -0.766216   -0.006100   -0.002713
      3          1           0       -1.192193   -0.792647   -0.634662
      4          1           0        1.069547    1.031308    0.294432
      5          1           0        1.139595   -0.231348   -1.001368
      6          1           0        1.191153   -0.751353    0.690733
      7          1           0       -1.012864    1.002223   -0.378847
      8          1           0       -1.167772   -0.138094    1.008608
 ---------------------------------------------------------------------

 SCF Done:  E(RB3LYP) =  -79.8171270704     A.U. after    9 cycles

 The electronic state is 1-A.
 Alpha  occ. eigenvalues --  -10.16663 -10.16475  -0.75528  -0.60918  -0.44431
 Alpha  occ. eigenvalues --   -0.43570  -0.36127  -0.34379  -0.34234
 Alpha virt. eigenvalues --    0.04815   0.09368   0.09685   0.10073   0.14758
 Alpha virt. eigenvalues --    0.14874   0.21255   0.36899   0.38729   0.40554
 Alpha virt. eigenvalues --    0.46964   0.48140   0.58804   0.62525   0.64202

 Mulliken charges:
               1
     1  C   -0.269274
     2  C   -0.256010
     3  H    0.088748
     4  H    0.088200
     5  H    0.086192
     6  H    0.088423
     7  H    0.087095
     8  H    0.086626
 Sum of Mulliken charges =   0.00000

 Dipole moment (field-independent basis, Debye):
    X=             -0.0075    Y=             -0.0077    Z=             -0.0124  Tot=              0.0164
 Quadrupole moment (field-independent basis, Debye-Ang):
   XX=            -16.2882   YY=            -14.8145   ZZ=            -15.0452
   XY=              0.0423   XZ=             -0.0897   YZ=             -0.0167

 Normal termination of Gaussian 16 at Fri Sep 22 16:34:31 2023.
