 Gaussian 16, Revision A.03,
 Gaussian 16:  ES64L-G16RevA.03 25-Dec-2016

 ----------------------------------------------------------------------
 #p b3lyp/gen scrf=(cpcm,solvent=toluene) pop=hirshfeld empiricaldisper
 sion=gd3bj
 ----------------------------------------------------------------------

 ------------------------
 tmpdir/M2_conf_0_390.gjf
 ------------------------
 Symbolic Z-matrix:
 Charge =  0 Multiplicity = 1

                         Standard orientation:
 ---------------------------------------------------------------------
 Center     Atomic      Atomic             Coordinates (Angstroms)
 Number     Number       Type             X           Y           Z
 ---------------------------------------------------------------------
      1          6           0       -0.585847   -0.383496    0.003005
      2          6           0        0.610424    0.383801    0.002705
      3          1           0        0.537356    1.470728    0.008551
      4          8           0       -1.716153    0.153284   -0.003206
      5          1           0       -0.518204   -1.416675    0.008524
      6          8           0        1.695327   -0.160269   -0.003211
 ---------------------------------------------------------------------

 SCF Done:  E(RB3LYP) =  -227.782887811     A.U. after   11 cycles

 The electronic state is 1-A.
 Alpha  occ. eigenvalues --  -19.16827 -19.16768 -10.29284 -10.29034  -1.10007
 Alpha  occ. eigenvalues --   -1.07176  -0.74788  -0.62150  -0.52168  -0.50237
 Alpha  occ. eigenvalues --   -0.46124  -0.45992  -0.39539  -0.33013  -0.28796
 Alpha virt. eigenvalues --   -0.13698   0.01470   0.06853   0.09057   0.15106
 Alpha virt. eigenvalues --    0.24261   0.31898   0.38058   0.40811   0.44477
 Alpha virt. eigenvalues --    0.47346   0.57488   0.58828   0.62248   0.67221

 Mulliken charges:
               1
     1  C    0.267739
     2  C    0.236186
     3  H    0.083916
     4  O   -0.344030
     5  H    0.071514
     6  O   -0.315325
 Sum of Mulliken charges =  -0.00000

 Dipole moment (field-independent basis, Debye):
    X=              0.1700    Y=             -0.0437    Z=              0.0272  Tot=              0.1776
 Quadrupole moment (field-independent basis, Debye-Ang):
   XX=            -32.3210   YY=            -20.4755   ZZ=            -21.2135
   XY=              2.3378   XZ=             -0.0004   YZ=             -0.0005

 Normal termination of Gaussian 16 at Fri Sep 22 16:36:54 2023.
