 Gaussian 16, Revision A.03,
 Gaussian 16:  ES64L-G16RevA.03 25-Dec-2016

 ----------------------------------------------------------------------
 #p b3lyp/gen scrf=(cpcm,solvent=toluene) pop=hirshfeld empiricaldisper
 sion=gd3bj
 ----------------------------------------------------------------------

 -----------------------
 tmpdir/M2_conf_0_40.gjf
 -----------------------
 Symbolic Z-matrix:
 Charge =  0 Multiplicity = 1

                         Standard orientation:
 ---------------------------------------------------------------------
 Center     Atomic      Atomic             Coordinates (Angstroms)
 Number     Number       Type             X           Y           Z
 ---------------------------------------------------------------------
      1          1           0        1.184742   -1.231116   -0.108647
      2          6           0        1.162829   -0.142385    0.008172
      3          6           0       -0.236231    0.372157    0.015623
      4          1           0        1.712555    0.363609   -0.911869
      5          1           0        1.713195    0.126483    0.921611
      6          1           0       -0.306411    1.461263    0.024266
      7          8           0       -1.232959   -0.262359   -0.008517
 ---------------------------------------------------------------------

 SCF Done:  E(RB3LYP) =  -153.809229862     A.U. after   10 cycles

 The electronic state is 1-A.
 Alpha  occ. eigenvalues --  -19.12827 -10.26921 -10.19280  -1.07682  -0.75604
 Alpha  occ. eigenvalues --   -0.58563  -0.48793  -0.45342  -0.44674  -0.39824
 Alpha  occ. eigenvalues --   -0.37652  -0.26572
 Alpha virt. eigenvalues --   -0.02655   0.04833   0.08312   0.10134   0.11609
 Alpha virt. eigenvalues --    0.21508   0.22637   0.41395   0.42260   0.44802
 Alpha virt. eigenvalues --    0.45718   0.54585   0.56359   0.59204   0.63071

 Mulliken charges:
               1
     1  H    0.105595
     2  C   -0.255988
     3  C    0.180538
     4  H    0.130722
     5  H    0.130202
     6  H    0.041490
     7  O   -0.332560
 Sum of Mulliken charges =  -0.00000

 Dipole moment (field-independent basis, Debye):
    X=              2.7631    Y=              1.2156    Z=              0.0801  Tot=              3.0198
 Quadrupole moment (field-independent basis, Debye-Ang):
   XX=            -21.3043   YY=            -18.3321   ZZ=            -17.8272
   XY=             -0.8666   XZ=              0.0690   YZ=             -0.0808

 Normal termination of Gaussian 16 at Fri Sep 22 16:33:03 2023.
