 Gaussian 16, Revision A.03,
 Gaussian 16:  ES64L-G16RevA.03 25-Dec-2016

 ----------------------------------------------------------------------
 #p b3lyp/gen scrf=(cpcm,solvent=toluene) pop=hirshfeld empiricaldisper
 sion=gd3bj
 ----------------------------------------------------------------------

 ------------------------
 tmpdir/M2_conf_0_130.gjf
 ------------------------
 Symbolic Z-matrix:
 Charge =  0 Multiplicity = 1

                         Standard orientation:
 ---------------------------------------------------------------------
 Center     Atomic      Atomic             Coordinates (Angstroms)
 Number     Number       Type             X           Y           Z
 ---------------------------------------------------------------------
      1          6           0        0.773230    0.005555   -0.006304
      2          6           0       -0.763439   -0.002567   -0.000820
      3          1           0       -1.133492    0.806605    0.641178
      4          1           0        1.136248   -0.857947   -0.643170
      5          1           0        1.133994    0.992613   -0.372515
      6          1           0        1.141215   -0.166273    1.030271
      7          1           0       -1.178035    0.155764   -1.004368
      8          1           0       -1.158677   -0.948691    0.391351
 ---------------------------------------------------------------------

 SCF Done:  E(RB3LYP) =  -79.8203224664     A.U. after    9 cycles

 The electronic state is 1-A.
 Alpha  occ. eigenvalues --  -10.17268 -10.16510  -0.75160  -0.60987  -0.43822
 Alpha  occ. eigenvalues --   -0.43312  -0.36365  -0.34699  -0.34100
 Alpha virt. eigenvalues --    0.04832   0.09195   0.10408   0.10522   0.13449
 Alpha virt. eigenvalues --    0.13700   0.21037   0.37321   0.38977   0.39910
 Alpha virt. eigenvalues --    0.46012   0.47033   0.58109   0.62976   0.63793

 Mulliken charges:
               1
     1  C   -0.272714
     2  C   -0.260478
     3  H    0.083866
     4  H    0.092501
     5  H    0.094443
     6  H    0.089233
     7  H    0.086913
     8  H    0.086236
 Sum of Mulliken charges =  -0.00000

 Dipole moment (field-independent basis, Debye):
    X=             -0.0455    Y=              0.0082    Z=              0.0354  Tot=              0.0582
 Quadrupole moment (field-independent basis, Debye-Ang):
   XX=            -16.1600   YY=            -14.9010   ZZ=            -15.0968
   XY=              0.0243   XZ=              0.0803   YZ=             -0.0346

 Normal termination of Gaussian 16 at Fri Sep 22 16:33:58 2023.
