 Gaussian 16, Revision A.03,
 Gaussian 16:  ES64L-G16RevA.03 25-Dec-2016

 ----------------------------------------------------------------------
 #p b3lyp/gen scrf=(cpcm,solvent=toluene) pop=hirshfeld empiricaldisper
 sion=gd3bj
 ----------------------------------------------------------------------

 ------------------------
 tmpdir/M2_conf_0_215.gjf
 ------------------------
 Symbolic Z-matrix:
 Charge =  0 Multiplicity = 1

                         Standard orientation:
 ---------------------------------------------------------------------
 Center     Atomic      Atomic             Coordinates (Angstroms)
 Number     Number       Type             X           Y           Z
 ---------------------------------------------------------------------
      1          6           0       -0.688425    0.508745   -0.009455
      2          6           0        0.685546    0.510810   -0.000757
      3          1           0        1.205150    1.465033    0.037718
      4          8           0       -1.331050   -0.567040    0.005923
      5          1           0       -1.232771    1.452389   -0.005265
      6          8           0        1.336662   -0.562304   -0.002321
 ---------------------------------------------------------------------

 SCF Done:  E(RB3LYP) =  -227.768500561     A.U. after   11 cycles

 The electronic state is 1-A.
 Alpha  occ. eigenvalues --  -19.16591 -19.16522 -10.29195 -10.29115  -1.08998
 Alpha  occ. eigenvalues --   -1.05165  -0.77180  -0.58070  -0.55914  -0.48260
 Alpha  occ. eigenvalues --   -0.45752  -0.45083  -0.38115  -0.31474  -0.29394
 Alpha virt. eigenvalues --   -0.15065   0.02265   0.05341   0.09366   0.14260
 Alpha virt. eigenvalues --    0.25476   0.33656   0.37687   0.38123   0.45075
 Alpha virt. eigenvalues --    0.47124   0.56120   0.58509   0.60115   0.65665

 Mulliken charges:
               1
     1  C    0.239470
     2  C    0.246239
     3  H    0.079912
     4  O   -0.322638
     5  H    0.080626
     6  O   -0.323611
 Sum of Mulliken charges =  -0.00000

 Dipole moment (field-independent basis, Debye):
    X=             -0.0283    Y=              4.3450    Z=             -0.0082  Tot=              4.3451
 Quadrupole moment (field-independent basis, Debye-Ang):
   XX=            -26.8668   YY=            -21.4651   ZZ=            -21.3145
   XY=             -0.0337   XZ=              0.0448   YZ=              0.0121

 Normal termination of Gaussian 16 at Fri Sep 22 16:35:17 2023.
