 Gaussian 16, Revision A.03,
 Gaussian 16:  ES64L-G16RevA.03 25-Dec-2016

 ----------------------------------------------------------------------
 #p b3lyp/gen scrf=(cpcm,solvent=toluene) pop=hirshfeld empiricaldisper
 sion=gd3bj
 ----------------------------------------------------------------------

 ------------------------
 tmpdir/M2_conf_0_151.gjf
 ------------------------
 Symbolic Z-matrix:
 Charge =  0 Multiplicity = 1

                         Standard orientation:
 ---------------------------------------------------------------------
 Center     Atomic      Atomic             Coordinates (Angstroms)
 Number     Number       Type             X           Y           Z
 ---------------------------------------------------------------------
      1          1           0        0.505247   -0.397505    0.885814
      2          6           0       -0.005609    0.001638    0.002734
      3          1           0        0.215342   -0.665684   -0.840231
      4          1           0       -1.106321    0.063920    0.157651
      5          1           0        0.419389    0.989439   -0.219637
 ---------------------------------------------------------------------

 SCF Done:  E(RB3LYP) =  -40.5137256833     A.U. after    7 cycles

 The electronic state is 1-A.
 Alpha  occ. eigenvalues --  -10.16461  -0.69234  -0.39552  -0.39104  -0.38953
 Alpha virt. eigenvalues --    0.05618   0.12337   0.12556   0.12575   0.37242
 Alpha virt. eigenvalues --    0.37437   0.38324   0.63099   0.63688   0.63739
 Alpha virt. eigenvalues --    0.67340   0.96083   1.28783   1.29162   1.84656

 Mulliken charges:
               1
     1  H    0.087459
     2  C   -0.356057
     3  H    0.086068
     4  H    0.094738
     5  H    0.087792
 Sum of Mulliken charges =  -0.00000

 Dipole moment (field-independent basis, Debye):
    X=              0.0395    Y=             -0.0094    Z=             -0.0122  Tot=              0.0424
 Quadrupole moment (field-independent basis, Debye-Ang):
   XX=             -8.3438   YY=             -8.5105   ZZ=             -8.5403
   XY=              0.0005   XZ=              0.0059   YZ=             -0.0052

 Normal termination of Gaussian 16 at Fri Sep 22 16:34:10 2023.
