 Gaussian 16, Revision A.03,
 Gaussian 16:  ES64L-G16RevA.03 25-Dec-2016

 ----------------------------------------------------------------------
 #p b3lyp/gen scrf=(cpcm,solvent=toluene) pop=hirshfeld empiricaldisper
 sion=gd3bj
 ----------------------------------------------------------------------

 ------------------------
 tmpdir/M2_conf_0_204.gjf
 ------------------------
 Symbolic Z-matrix:
 Charge =  0 Multiplicity = 1

                         Standard orientation:
 ---------------------------------------------------------------------
 Center     Atomic      Atomic             Coordinates (Angstroms)
 Number     Number       Type             X           Y           Z
 ---------------------------------------------------------------------
      1          6           0        1.245197   -0.162034    0.007918
      2          6           0       -0.115975    0.534901   -0.021456
      3          6           0       -1.312596   -0.235977    0.006021
      4          1           0        1.461567   -0.562641    1.038956
      5          1           0        1.212303   -1.147889   -0.635321
      6          1           0        2.080533    0.478708   -0.341038
      7          1           0       -0.186128    1.529400   -0.013262
      8          1           0       -2.203846    0.199602    0.077945
      9          1           0       -1.264187   -1.318517   -0.082173
 ---------------------------------------------------------------------

 SCF Done:  E(RB3LYP) =  -117.869223022     A.U. after   10 cycles

 The electronic state is 1-A.
 Alpha  occ. eigenvalues --  -10.18826 -10.18726 -10.17119  -0.77819  -0.67910
 Alpha  occ. eigenvalues --   -0.57594  -0.47394  -0.41908  -0.39958  -0.37059
 Alpha  occ. eigenvalues --   -0.36825  -0.24906
 Alpha virt. eigenvalues --   -0.01820   0.05542   0.08462   0.09238   0.11989
 Alpha virt. eigenvalues --    0.12943   0.13901   0.21806   0.28250   0.37430
 Alpha virt. eigenvalues --    0.40136   0.41748   0.47148   0.48575   0.52582

 Mulliken charges:
               1
     1  C   -0.207570
     2  C   -0.203436
     3  C   -0.116325
     4  H    0.118040
     5  H    0.107299
     6  H    0.106187
     7  H    0.042486
     8  H    0.064547
     9  H    0.088771
 Sum of Mulliken charges =  -0.00000

 Dipole moment (field-independent basis, Debye):
    X=              0.3842    Y=              0.0274    Z=              0.0894  Tot=              0.3954
 Quadrupole moment (field-independent basis, Debye-Ang):
   XX=            -19.5056   YY=            -18.9199   ZZ=            -22.2982
   XY=              0.1387   XZ=             -0.0686   YZ=             -0.0039

 Normal termination of Gaussian 16 at Fri Sep 22 16:34:41 2023.
