 Gaussian 16, Revision A.03,
 Gaussian 16:  ES64L-G16RevA.03 25-Dec-2016

 ----------------------------------------------------------------------
 #p b3lyp/gen scrf=(cpcm,solvent=toluene) pop=hirshfeld empiricaldisper
 sion=gd3bj
 ----------------------------------------------------------------------

 ------------------------
 tmpdir/M2_conf_0_289.gjf
 ------------------------
 Symbolic Z-matrix:
 Charge =  0 Multiplicity = 1

                         Standard orientation:
 ---------------------------------------------------------------------
 Center     Atomic      Atomic             Coordinates (Angstroms)
 Number     Number       Type             X           Y           Z
 ---------------------------------------------------------------------
      1          6           0        0.695808   -0.003925   -0.010841
      2          6           0       -0.684912   -0.010666    0.002363
      3          1           0        1.182972    0.944380    0.052510
      4          1           0        1.197446   -0.903484   -0.003860
      5          1           0       -1.219749   -0.882147    0.030503
      6          1           0       -1.226043    0.928799   -0.028287
 ---------------------------------------------------------------------

 SCF Done:  E(RB3LYP) =  -78.5726132744     A.U. after    9 cycles

 The electronic state is 1-A.
 Alpha  occ. eigenvalues --  -10.17923 -10.17860  -0.76158  -0.59435  -0.48352
 Alpha  occ. eigenvalues --   -0.41410  -0.37720  -0.27313
 Alpha virt. eigenvalues --   -0.01271   0.06600   0.09682   0.10230   0.16180
 Alpha virt. eigenvalues --    0.27238   0.35619   0.43042   0.43656   0.51252
 Alpha virt. eigenvalues --    0.51708   0.55555   0.63861   0.65665   0.70331

 Mulliken charges:
               1
     1  C   -0.170747
     2  C   -0.194492
     3  H    0.098713
     4  H    0.085490
     5  H    0.080867
     6  H    0.100168
 Sum of Mulliken charges =  -0.00000

 Dipole moment (field-independent basis, Debye):
    X=             -0.0267    Y=             -0.0158    Z=              0.0560  Tot=              0.0640
 Quadrupole moment (field-independent basis, Debye-Ang):
   XX=            -12.5017   YY=            -12.2247   ZZ=            -15.6396
   XY=              0.0052   XZ=              0.0595   YZ=              0.0029

 Normal termination of Gaussian 16 at Fri Sep 22 16:35:10 2023.
