 Gaussian 16, Revision A.03,
 Gaussian 16:  ES64L-G16RevA.03 25-Dec-2016

 ----------------------------------------------------------------------
 #p b3lyp/gen scrf=(cpcm,solvent=toluene) pop=hirshfeld empiricaldisper
 sion=gd3bj
 ----------------------------------------------------------------------

 ------------------------
 tmpdir/M2_conf_0_315.gjf
 ------------------------
 Symbolic Z-matrix:
 Charge =  0 Multiplicity = 1

                         Standard orientation:
 ---------------------------------------------------------------------
 Center     Atomic      Atomic             Coordinates (Angstroms)
 Number     Number       Type             X           Y           Z
 ---------------------------------------------------------------------
      1          6           0       -0.538346   -0.010437   -0.001247
      2          1           0       -1.106896    0.917301    0.002522
      3          1           0       -1.047291   -0.904990    0.002659
      4          8           0        0.673033    0.006288    0.000288
 ---------------------------------------------------------------------

 SCF Done:  E(RB3LYP) =  -114.484139148     A.U. after    9 cycles

 The electronic state is 1-A.
 Alpha  occ. eigenvalues --  -19.13913 -10.27075  -1.06563  -0.64991  -0.51105
 Alpha  occ. eigenvalues --   -0.45550  -0.40399  -0.27442
 Alpha virt. eigenvalues --   -0.05235   0.06536   0.11919   0.18146   0.40304
 Alpha virt. eigenvalues --    0.47872   0.52492   0.60852   0.62577   0.72692
 Alpha virt. eigenvalues --    0.77972   0.87647   0.97962   1.32220   1.50480

 Mulliken charges:
               1
     1  C    0.220032
     2  H    0.076384
     3  H    0.065503
     4  O   -0.361919
 Sum of Mulliken charges =  -0.00000

 Dipole moment (field-independent basis, Debye):
    X=             -2.7413    Y=             -0.0864    Z=              0.0005  Tot=              2.7427
 Quadrupole moment (field-independent basis, Debye-Ang):
   XX=            -12.0501   YY=            -11.5103   ZZ=            -11.5016
   XY=              0.0345   XZ=             -0.0026   YZ=              0.0001

 Normal termination of Gaussian 16 at Fri Sep 22 16:35:36 2023.
