 Gaussian 16, Revision A.03,
 Gaussian 16:  ES64L-G16RevA.03 25-Dec-2016

 ----------------------------------------------------------------------
 #p b3lyp/gen scrf=(cpcm,solvent=toluene) pop=hirshfeld empiricaldisper
 sion=gd3bj
 ----------------------------------------------------------------------

 -----------------------
 tmpdir/M2_conf_0_50.gjf
 -----------------------
 Symbolic Z-matrix:
 Charge =  0 Multiplicity = 1

                         Standard orientation:
 ---------------------------------------------------------------------
 Center     Atomic      Atomic             Coordinates (Angstroms)
 Number     Number       Type             X           Y           Z
 ---------------------------------------------------------------------
      1          6           0       -0.850171    0.488387    0.018399
      2          7           0        0.497313    0.642358   -0.029547
      3          6           0        1.427321   -0.460864    0.020877
      4          1           0       -1.374226    1.405041    0.102150
      5          8           0       -1.422398   -0.677901   -0.017386
      6          1           0        0.849363    1.605331   -0.043098
      7          1           0        0.967761   -1.293713   -0.513413
      8          1           0        1.597812   -0.745874    1.077096
      9          1           0        2.394379   -0.209215   -0.512477
 ---------------------------------------------------------------------

 SCF Done:  E(RB3LYP) =  -209.174406922     A.U. after   11 cycles

 The electronic state is 1-A.
 Alpha  occ. eigenvalues --  -19.09095 -14.35836 -10.28170 -10.21893  -1.00983
 Alpha  occ. eigenvalues --   -0.92711  -0.72614  -0.60372  -0.55263  -0.46776
 Alpha  occ. eigenvalues --   -0.45956  -0.41297  -0.39224  -0.37092  -0.26421
 Alpha  occ. eigenvalues --   -0.25947
 Alpha virt. eigenvalues --   -0.00216   0.03452   0.06622   0.09900   0.10770
 Alpha virt. eigenvalues --    0.12570   0.17632   0.21351   0.30666   0.38473
 Alpha virt. eigenvalues --    0.39533   0.44044   0.45833   0.48189   0.53411

 Mulliken charges:
               1
     1  C    0.398557
     2  N   -0.458424
     3  C   -0.017406
     4  H    0.069984
     5  O   -0.519692
     6  H    0.199677
     7  H    0.107765
     8  H    0.109867
     9  H    0.109672
 Sum of Mulliken charges =  -0.00000

 Dipole moment (field-independent basis, Debye):
    X=              3.7151    Y=              3.4498    Z=              0.0959  Tot=              5.0707
 Quadrupole moment (field-independent basis, Debye-Ang):
   XX=            -26.2130   YY=            -22.0887   ZZ=            -24.9788
   XY=             -3.3641   XZ=             -0.3452   YZ=              0.0475

 Normal termination of Gaussian 16 at Fri Sep 22 16:33:11 2023.
