 Gaussian 16, Revision A.03,
 Gaussian 16:  ES64L-G16RevA.03 25-Dec-2016

 ----------------------------------------------------------------------
 #p b3lyp/gen scrf=(cpcm,solvent=toluene) pop=hirshfeld empiricaldisper
 sion=gd3bj
 ----------------------------------------------------------------------

 ------------------------
 tmpdir/M2_conf_0_149.gjf
 ------------------------
 Symbolic Z-matrix:
 Charge =  0 Multiplicity = 1

                         Standard orientation:
 ---------------------------------------------------------------------
 Center     Atomic      Atomic             Coordinates (Angstroms)
 Number     Number       Type             X           Y           Z
 ---------------------------------------------------------------------
      1          1           0       -0.432480    1.004763   -0.088315
      2          6           0        0.004932    0.001124   -0.003438
      3          1           0       -0.479254   -0.652662   -0.737096
      4          1           0        1.108155    0.030440   -0.150007
      5          1           0       -0.226012   -0.389288    0.996047
 ---------------------------------------------------------------------

 SCF Done:  E(RB3LYP) =  -40.5137640271     A.U. after    7 cycles

 The electronic state is 1-A.
 Alpha  occ. eigenvalues --  -10.16461  -0.69232  -0.39503  -0.39152  -0.38956
 Alpha virt. eigenvalues --    0.05619   0.12339   0.12554   0.12577   0.37266
 Alpha virt. eigenvalues --    0.37470   0.38264   0.63099   0.63678   0.63763
 Alpha virt. eigenvalues --    0.67325   0.96082   1.28845   1.29095   1.84832

 Mulliken charges:
               1
     1  H    0.088120
     2  C   -0.356068
     3  H    0.087723
     4  H    0.094346
     5  H    0.085878
 Sum of Mulliken charges =   0.00000

 Dipole moment (field-independent basis, Debye):
    X=             -0.0368    Y=             -0.0073    Z=              0.0157  Tot=              0.0407
 Quadrupole moment (field-independent basis, Debye-Ang):
   XX=             -8.3542   YY=             -8.5000   ZZ=             -8.5403
   XY=              0.0006   XZ=              0.0062   YZ=              0.0056

 Normal termination of Gaussian 16 at Fri Sep 22 16:34:04 2023.
