 Gaussian 16, Revision A.03,
 Gaussian 16:  ES64L-G16RevA.03 25-Dec-2016

 ----------------------------------------------------------------------
 #p b3lyp/gen scrf=(cpcm,solvent=toluene) pop=hirshfeld empiricaldisper
 sion=gd3bj
 ----------------------------------------------------------------------

 ------------------------
 tmpdir/M2_conf_0_322.gjf
 ------------------------
 Symbolic Z-matrix:
 Charge =  0 Multiplicity = 1

                         Standard orientation:
 ---------------------------------------------------------------------
 Center     Atomic      Atomic             Coordinates (Angstroms)
 Number     Number       Type             X           Y           Z
 ---------------------------------------------------------------------
      1          6           0        1.245148   -0.619107   -0.003342
      2          6           0       -0.001658    0.060527    0.012584
      3          6           0       -1.245878   -0.621315    0.013328
      4          8           0        2.291536   -0.005573   -0.005881
      5          1           0        1.249119   -1.706443   -0.021630
      6          8           0        0.000044    1.322002    0.004181
      7          8           0       -2.290101   -0.004613   -0.016129
      8          1           0       -1.246624   -1.708713    0.028843
 ---------------------------------------------------------------------

 SCF Done:  E(RB3LYP) =  -341.063851764     A.U. after   12 cycles

 The electronic state is 1-A.
 Alpha  occ. eigenvalues --  -19.17943 -19.17234 -19.17200 -10.30213 -10.30138
 Alpha  occ. eigenvalues --  -10.30108  -1.11907  -1.09957  -1.06516  -0.80947
 Alpha  occ. eigenvalues --   -0.67837  -0.58608  -0.57166  -0.50348  -0.49086
 Alpha  occ. eigenvalues --   -0.47496  -0.47361  -0.43335  -0.38804  -0.33177
 Alpha  occ. eigenvalues --   -0.32443  -0.29133
 Alpha virt. eigenvalues --   -0.17632  -0.06970   0.04541   0.05344   0.09545
 Alpha virt. eigenvalues --    0.12602   0.24201   0.26787   0.27732   0.34921
 Alpha virt. eigenvalues --    0.35377   0.36791   0.43219   0.47671   0.51823

 Mulliken charges:
               1
     1  C    0.283571
     2  C    0.154418
     3  C    0.284347
     4  O   -0.290642
     5  H    0.070394
     6  O   -0.283164
     7  O   -0.290361
     8  H    0.071438
 Sum of Mulliken charges =  -0.00000

 Dipole moment (field-independent basis, Debye):
    X=             -0.0149    Y=             -4.7904    Z=              0.0647  Tot=              4.7909
 Quadrupole moment (field-independent basis, Debye-Ang):
   XX=            -45.5762   YY=            -32.6413   ZZ=            -30.8680
   XY=              0.0142   XZ=             -0.0990   YZ=             -0.0164

 Normal termination of Gaussian 16 at Fri Sep 22 16:36:55 2023.
