 Gaussian 16, Revision A.03,
 Gaussian 16:  ES64L-G16RevA.03 25-Dec-2016

 ----------------------------------------------------------------------
 #p b3lyp/gen scrf=(cpcm,solvent=toluene) pop=hirshfeld empiricaldisper
 sion=gd3bj
 ----------------------------------------------------------------------

 ------------------------
 tmpdir/M2_conf_0_216.gjf
 ------------------------
 Symbolic Z-matrix:
 Charge =  0 Multiplicity = 1

                         Standard orientation:
 ---------------------------------------------------------------------
 Center     Atomic      Atomic             Coordinates (Angstroms)
 Number     Number       Type             X           Y           Z
 ---------------------------------------------------------------------
      1          6           0       -0.711526    0.504640    0.010080
      2          6           0        0.718389    0.506463   -0.012816
      3          6           0       -1.401705   -0.735375   -0.010563
      4          1           0       -1.209908    1.404126    0.041243
      5          6           0        1.393942   -0.744019    0.011651
      6          1           0        1.215310    1.405621   -0.031357
 ---------------------------------------------------------------------

 SCF Done:  E(RB3LYP) =  -153.277916192     A.U. after   13 cycles

 The electronic state is 1-A.
 Alpha  occ. eigenvalues --  -10.27886 -10.27791 -10.22475 -10.22416  -0.85428
 Alpha  occ. eigenvalues --   -0.72969  -0.62043  -0.51252  -0.50337  -0.36576
 Alpha  occ. eigenvalues --   -0.33528  -0.31493  -0.25398
 Alpha virt. eigenvalues --   -0.14715  -0.11634  -0.08536   0.03605   0.06385
 Alpha virt. eigenvalues --    0.10351   0.19218   0.26110   0.29757   0.36987
 Alpha virt. eigenvalues --    0.39433   0.43720   0.45352   0.46036   0.46337

 Mulliken charges:
               1
     1  C   -0.137608
     2  C   -0.129758
     3  C    0.007119
     4  H    0.127223
     5  C    0.008524
     6  H    0.124499
 Sum of Mulliken charges =   0.00000

 Dipole moment (field-independent basis, Debye):
    X=              0.0443    Y=              3.9700    Z=              0.0124  Tot=              3.9703
 Quadrupole moment (field-independent basis, Debye-Ang):
   XX=            -25.3112   YY=            -24.6063   ZZ=            -26.6703
   XY=             -0.0323   XZ=             -0.2824   YZ=              0.0267

 Normal termination of Gaussian 16 at Fri Sep 22 16:34:22 2023.
