 Gaussian 16, Revision A.03,
 Gaussian 16:  ES64L-G16RevA.03 25-Dec-2016

 ----------------------------------------------------------------------
 #p b3lyp/gen scrf=(cpcm,solvent=toluene) pop=hirshfeld empiricaldisper
 sion=gd3bj
 ----------------------------------------------------------------------

 ------------------------
 tmpdir/M2_conf_0_127.gjf
 ------------------------
 Symbolic Z-matrix:
 Charge =  0 Multiplicity = 1

                         Standard orientation:
 ---------------------------------------------------------------------
 Center     Atomic      Atomic             Coordinates (Angstroms)
 Number     Number       Type             X           Y           Z
 ---------------------------------------------------------------------
      1          6           0       -0.006299    0.000095   -0.004793
      2          1           0        0.203998   -0.159264    1.060105
      3          1           0       -1.104909   -0.023330   -0.177859
      4          1           0        0.514177   -0.787055   -0.564754
      5          1           0        0.424529    0.969078   -0.288731
 ---------------------------------------------------------------------

 SCF Done:  E(RB3LYP) =  -40.5136657910     A.U. after    7 cycles

 The electronic state is 1-A.
 Alpha  occ. eigenvalues --  -10.16462  -0.69235  -0.39608  -0.39110  -0.38886
 Alpha virt. eigenvalues --    0.05617   0.12348   0.12551   0.12564   0.37187
 Alpha virt. eigenvalues --    0.37428   0.38388   0.63145   0.63673   0.63698
 Alpha virt. eigenvalues --    0.67349   0.96109   1.28825   1.29108   1.84418

 Mulliken charges:
               1
     1  C   -0.356063
     2  H    0.085081
     3  H    0.095162
     4  H    0.088012
     5  H    0.087808
 Sum of Mulliken charges =  -0.00000

 Dipole moment (field-independent basis, Debye):
    X=              0.0405    Y=             -0.0007    Z=              0.0239  Tot=              0.0471
 Quadrupole moment (field-independent basis, Debye-Ang):
   XX=             -8.3313   YY=             -8.5063   ZZ=             -8.5580
   XY=             -0.0009   XZ=             -0.0044   YZ=              0.0024

 Normal termination of Gaussian 16 at Fri Sep 22 16:33:35 2023.
