 Gaussian 16, Revision A.03,
 Gaussian 16:  ES64L-G16RevA.03 25-Dec-2016

 ----------------------------------------------------------------------
 #p b3lyp/gen scrf=(cpcm,solvent=toluene) pop=hirshfeld empiricaldisper
 sion=gd3bj
 ----------------------------------------------------------------------

 ------------------------
 tmpdir/M2_conf_0_226.gjf
 ------------------------
 Symbolic Z-matrix:
 Charge =  0 Multiplicity = 1

                         Standard orientation:
 ---------------------------------------------------------------------
 Center     Atomic      Atomic             Coordinates (Angstroms)
 Number     Number       Type             X           Y           Z
 ---------------------------------------------------------------------
      1          6           0       -0.575712   -0.388679    0.016117
      2          6           0        0.604923    0.397574    0.009102
      3          1           0       -0.491740   -1.420528    0.032916
      4          6           0       -1.877736    0.180640   -0.019451
      5          6           0        1.845023   -0.199440   -0.018226
      6          1           0        0.512748    1.479961    0.041828
 ---------------------------------------------------------------------

 SCF Done:  E(RB3LYP) =  -153.296704431     A.U. after   13 cycles

 The electronic state is 1-A.
 Alpha  occ. eigenvalues --  -10.28164 -10.27411 -10.22749 -10.22548  -0.85559
 Alpha  occ. eigenvalues --   -0.74508  -0.57858  -0.57561  -0.46561  -0.36936
 Alpha  occ. eigenvalues --   -0.33891  -0.31514  -0.26202
 Alpha virt. eigenvalues --   -0.13821  -0.12651  -0.07094   0.02881   0.06887
 Alpha virt. eigenvalues --    0.09078   0.19665   0.24557   0.25880   0.39169
 Alpha virt. eigenvalues --    0.41158   0.42664   0.44109   0.44175   0.46727

 Mulliken charges:
               1
     1  C   -0.142590
     2  C   -0.149847
     3  H    0.124292
     4  C    0.011058
     5  C    0.003759
     6  H    0.153329
 Sum of Mulliken charges =   0.00000

 Dipole moment (field-independent basis, Debye):
    X=             -0.0277    Y=              0.1661    Z=              0.0988  Tot=              0.1953
 Quadrupole moment (field-independent basis, Debye-Ang):
   XX=            -34.4185   YY=            -19.7947   ZZ=            -26.6995
   XY=              4.1565   XZ=              0.0167   YZ=              0.0174

 Normal termination of Gaussian 16 at Fri Sep 22 16:34:28 2023.
