 Gaussian 16, Revision A.03,
 Gaussian 16:  ES64L-G16RevA.03 25-Dec-2016

 ----------------------------------------------------------------------
 #p b3lyp/gen scrf=(cpcm,solvent=toluene) pop=hirshfeld empiricaldisper
 sion=gd3bj
 ----------------------------------------------------------------------

 ------------------------
 tmpdir/M2_conf_0_378.gjf
 ------------------------
 Symbolic Z-matrix:
 Charge =  0 Multiplicity = 1

                         Standard orientation:
 ---------------------------------------------------------------------
 Center     Atomic      Atomic             Coordinates (Angstroms)
 Number     Number       Type             X           Y           Z
 ---------------------------------------------------------------------
      1          6           0       -0.539503   -0.010100   -0.002159
      2          1           0       -1.103583    0.915901    0.004368
      3          1           0       -1.051345   -0.901010    0.004611
      4          8           0        0.673993    0.005714    0.000497
 ---------------------------------------------------------------------

 SCF Done:  E(RB3LYP) =  -114.483832691     A.U. after    9 cycles

 The electronic state is 1-A.
 Alpha  occ. eigenvalues --  -19.13915 -10.27056  -1.06445  -0.65099  -0.51122
 Alpha  occ. eigenvalues --   -0.45526  -0.40328  -0.27455
 Alpha virt. eigenvalues --   -0.05295   0.06574   0.11937   0.18115   0.40320
 Alpha virt. eigenvalues --    0.48060   0.52438   0.60890   0.62453   0.72728
 Alpha virt. eigenvalues --    0.78038   0.87646   0.97936   1.32224   1.50373

 Mulliken charges:
               1
     1  C    0.222542
     2  H    0.075972
     3  H    0.065455
     4  O   -0.363969
 Sum of Mulliken charges =   0.00000

 Dipole moment (field-independent basis, Debye):
    X=             -2.7548    Y=             -0.0824    Z=              0.0009  Tot=              2.7560
 Quadrupole moment (field-independent basis, Debye-Ang):
   XX=            -12.0376   YY=            -11.5092   ZZ=            -11.5002
   XY=              0.0379   XZ=             -0.0044   YZ=              0.0002

 Normal termination of Gaussian 16 at Fri Sep 22 16:36:03 2023.
