 Gaussian 16, Revision A.03,
 Gaussian 16:  ES64L-G16RevA.03 25-Dec-2016

 ----------------------------------------------------------------------
 #p b3lyp/gen scrf=(cpcm,solvent=toluene) pop=hirshfeld empiricaldisper
 sion=gd3bj
 ----------------------------------------------------------------------

 ------------------------
 tmpdir/M2_conf_0_296.gjf
 ------------------------
 Symbolic Z-matrix:
 Charge =  0 Multiplicity = 1

                         Standard orientation:
 ---------------------------------------------------------------------
 Center     Atomic      Atomic             Coordinates (Angstroms)
 Number     Number       Type             X           Y           Z
 ---------------------------------------------------------------------
      1          6           0        1.425768   -0.487769   -0.010593
      2          6           0        0.609998    0.626765   -0.003715
      3          6           0       -0.798337    0.511153    0.005235
      4          1           0        2.478017   -0.326798    0.075869
      5          1           0        0.991483   -1.421672   -0.021242
      6          1           0        1.053916    1.616278   -0.016029
      7          1           0       -1.408444    1.339995   -0.001248
      8          8           0       -1.317443   -0.638587    0.002136
 ---------------------------------------------------------------------

 SCF Done:  E(RB3LYP) =  -191.876613655     A.U. after   11 cycles

 The electronic state is 1-A.
 Alpha  occ. eigenvalues --  -19.11836 -10.26286 -10.20875 -10.19759  -1.03184
 Alpha  occ. eigenvalues --   -0.80255  -0.68350  -0.56389  -0.52676  -0.45458
 Alpha  occ. eigenvalues --   -0.43156  -0.40022  -0.39541  -0.28708  -0.26904
 Alpha virt. eigenvalues --   -0.09576   0.04750   0.05771   0.08387   0.10953
 Alpha virt. eigenvalues --    0.13488   0.21282   0.24792   0.29135   0.40304
 Alpha virt. eigenvalues --    0.41602   0.45944   0.46416   0.47809   0.51764

 Mulliken charges:
               1
     1  C    0.015132
     2  C   -0.285413
     3  C    0.340733
     4  H    0.116202
     5  H    0.094487
     6  H    0.087128
     7  H    0.048483
     8  O   -0.416752
 Sum of Mulliken charges =  -0.00000

 Dipole moment (field-independent basis, Debye):
    X=              2.4771    Y=              2.2101    Z=              0.0346  Tot=              3.3199
 Quadrupole moment (field-independent basis, Debye-Ang):
   XX=            -24.0329   YY=            -22.3350   ZZ=            -25.0032
   XY=             -3.6656   XZ=              0.1461   YZ=             -0.0108

 Normal termination of Gaussian 16 at Fri Sep 22 16:36:34 2023.
