 Gaussian 16, Revision A.03,
 Gaussian 16:  ES64L-G16RevA.03 25-Dec-2016

 ----------------------------------------------------------------------
 #p b3lyp/gen scrf=(cpcm,solvent=toluene) pop=hirshfeld empiricaldisper
 sion=gd3bj
 ----------------------------------------------------------------------

 ------------------------
 tmpdir/M2_conf_0_203.gjf
 ------------------------
 Symbolic Z-matrix:
 Charge =  0 Multiplicity = 1

                         Standard orientation:
 ---------------------------------------------------------------------
 Center     Atomic      Atomic             Coordinates (Angstroms)
 Number     Number       Type             X           Y           Z
 ---------------------------------------------------------------------
      1          6           0       -1.737437   -0.533614    0.017393
      2          6           0       -0.354585    0.118411   -0.026818
      3          6           0        0.794373   -0.641090   -0.023330
      4          1           0       -2.177430   -0.456631    1.052204
      5          1           0       -2.503781    0.092286   -0.621130
      6          1           0       -1.743379   -1.587662   -0.327641
      7          8           0       -0.246250    1.368785   -0.008054
      8          8           0        1.929397   -0.116855    0.028176
      9          1           0        0.745308   -1.725672   -0.067882
 ---------------------------------------------------------------------

 SCF Done:  E(RB3LYP) =  -267.087731318     A.U. after   12 cycles

 The electronic state is 1-A.
 Alpha  occ. eigenvalues --  -19.15945 -19.14896 -10.29093 -10.28694 -10.21169
 Alpha  occ. eigenvalues --   -1.08483  -1.04439  -0.79285  -0.70520  -0.56718
 Alpha  occ. eigenvalues --   -0.51302  -0.48349  -0.47067  -0.43528  -0.42123
 Alpha  occ. eigenvalues --   -0.40468  -0.36268  -0.30504  -0.28556
 Alpha virt. eigenvalues --   -0.14051   0.02516   0.03945   0.07356   0.10187
 Alpha virt. eigenvalues --    0.11639   0.17363   0.17758   0.27740   0.33874
 Alpha virt. eigenvalues --    0.36748   0.39410   0.44400   0.44867   0.48752

 Mulliken charges:
               1
     1  C   -0.217637
     2  C    0.112072
     3  C    0.277214
     4  H    0.151964
     5  H    0.145613
     6  H    0.122153
     7  O   -0.334109
     8  O   -0.325412
     9  H    0.068142
 Sum of Mulliken charges =   0.00000

 Dipole moment (field-independent basis, Debye):
    X=             -3.2933    Y=             -3.8209    Z=             -0.0118  Tot=              5.0443
 Quadrupole moment (field-independent basis, Debye-Ang):
   XX=            -32.2956   YY=            -31.1328   ZZ=            -27.7416
   XY=              0.2002   XZ=             -0.4156   YZ=              0.0877

 Normal termination of Gaussian 16 at Fri Sep 22 16:34:29 2023.
