 Gaussian 16, Revision A.03,
 Gaussian 16:  ES64L-G16RevA.03 25-Dec-2016

 ----------------------------------------------------------------------
 #p b3lyp/gen scrf=(cpcm,solvent=toluene) pop=hirshfeld empiricaldisper
 sion=gd3bj
 ----------------------------------------------------------------------

 ------------------------
 tmpdir/M2_conf_0_201.gjf
 ------------------------
 Symbolic Z-matrix:
 Charge =  0 Multiplicity = 1

                         Standard orientation:
 ---------------------------------------------------------------------
 Center     Atomic      Atomic             Coordinates (Angstroms)
 Number     Number       Type             X           Y           Z
 ---------------------------------------------------------------------
      1          6           0        0.702175    0.495969   -0.000401
      2          6           0       -0.675998    0.493243   -0.008577
      3          1           0        1.272343    1.443023    0.061955
      4          6           0        1.387516   -0.751907   -0.006966
      5          6           0       -1.419959   -0.715287    0.011080
      6          1           0       -1.234748    1.424866   -0.032776
 ---------------------------------------------------------------------

 SCF Done:  E(RB3LYP) =  -153.280176828     A.U. after   13 cycles

 The electronic state is 1-A.
 Alpha  occ. eigenvalues --  -10.27838 -10.27569 -10.22713 -10.22415  -0.85902
 Alpha  occ. eigenvalues --   -0.72524  -0.61690  -0.50644  -0.49180  -0.37092
 Alpha  occ. eigenvalues --   -0.33488  -0.31194  -0.25056
 Alpha virt. eigenvalues --   -0.14824  -0.11398  -0.08749   0.04447   0.05541
 Alpha virt. eigenvalues --    0.09505   0.19079   0.26145   0.31652   0.36677
 Alpha virt. eigenvalues --    0.39291   0.43189   0.43380   0.45514   0.46390

 Mulliken charges:
               1
     1  C   -0.162610
     2  C   -0.172358
     3  H    0.166064
     4  C    0.005503
     5  C    0.001756
     6  H    0.161644
 Sum of Mulliken charges =  -0.00000

 Dipole moment (field-independent basis, Debye):
    X=              0.1718    Y=              3.9826    Z=              0.0380  Tot=              3.9864
 Quadrupole moment (field-independent basis, Debye-Ang):
   XX=            -25.6747   YY=            -24.3746   ZZ=            -26.7318
   XY=             -0.0586   XZ=              0.3341   YZ=              0.0704

 Normal termination of Gaussian 16 at Fri Sep 22 16:34:05 2023.
