 Gaussian 16, Revision A.03,
 Gaussian 16:  ES64L-G16RevA.03 25-Dec-2016

 ----------------------------------------------------------------------
 #p b3lyp/gen scrf=(cpcm,solvent=toluene) pop=hirshfeld empiricaldisper
 sion=gd3bj
 ----------------------------------------------------------------------

 ------------------------
 tmpdir/M2_conf_0_114.gjf
 ------------------------
 Symbolic Z-matrix:
 Charge =  0 Multiplicity = 1

                         Standard orientation:
 ---------------------------------------------------------------------
 Center     Atomic      Atomic             Coordinates (Angstroms)
 Number     Number       Type             X           Y           Z
 ---------------------------------------------------------------------
      1          6           0        1.388284   -0.342369    0.008587
      2          6           0       -0.073188    0.108417   -0.007540
      3          7           0       -1.052206   -0.796116    0.007905
      4          1           0        1.971100    0.252053   -0.762611
      5          1           0        1.450558   -1.392567   -0.280343
      6          1           0        1.850662   -0.246792    1.038190
      7          8           0       -0.349188    1.334834   -0.002476
      8          1           0       -2.055939   -0.496402    0.063320
      9          1           0       -0.948007   -1.818438   -0.100366
 ---------------------------------------------------------------------

 SCF Done:  E(RB3LYP) =  -209.191707381     A.U. after   11 cycles

 The electronic state is 1-A.
 Alpha  occ. eigenvalues --  -19.07977 -14.35108 -10.28574 -10.19233  -1.02547
 Alpha  occ. eigenvalues --   -0.90859  -0.73713  -0.60493  -0.53140  -0.47284
 Alpha  occ. eigenvalues --   -0.44662  -0.40333  -0.39501  -0.37161  -0.27377
 Alpha  occ. eigenvalues --   -0.25369
 Alpha virt. eigenvalues --    0.01377   0.02938   0.07157   0.07853   0.12059
 Alpha virt. eigenvalues --    0.12522   0.19079   0.24814   0.34831   0.41561
 Alpha virt. eigenvalues --    0.44091   0.45471   0.46577   0.49593   0.50837

 Mulliken charges:
               1
     1  C   -0.200655
     2  C    0.277855
     3  N   -0.366816
     4  H    0.130183
     5  H    0.085825
     6  H    0.141006
     7  O   -0.478101
     8  H    0.208561
     9  H    0.202144
 Sum of Mulliken charges =  -0.00000

 Dipole moment (field-independent basis, Debye):
    X=             -0.1569    Y=             -4.8311    Z=             -0.0562  Tot=              4.8340
 Quadrupole moment (field-independent basis, Debye-Ang):
   XX=            -19.7381   YY=            -26.6960   ZZ=            -24.9947
   XY=              2.9650   XZ=              0.0277   YZ=              0.2370

 Normal termination of Gaussian 16 at Fri Sep 22 16:34:27 2023.
