 Gaussian 16, Revision A.03,
 Gaussian 16:  ES64L-G16RevA.03 25-Dec-2016

 ----------------------------------------------------------------------
 #p b3lyp/gen scrf=(cpcm,solvent=toluene) pop=hirshfeld empiricaldisper
 sion=gd3bj
 ----------------------------------------------------------------------

 -----------------------
 tmpdir/M2_conf_0_20.gjf
 -----------------------
 Symbolic Z-matrix:
 Charge =  0 Multiplicity = 1

                         Standard orientation:
 ---------------------------------------------------------------------
 Center     Atomic      Atomic             Coordinates (Angstroms)
 Number     Number       Type             X           Y           Z
 ---------------------------------------------------------------------
      1          6           0        0.710674    0.499985    0.001066
      2          6           0       -0.689822    0.500036   -0.002271
      3          1           0       -1.237377    1.440906   -0.003229
      4          8           0        1.310162   -0.563136   -0.001047
      5          1           0        1.259776    1.438083    0.006979
      6          8           0       -1.328601   -0.546753    0.001482
 ---------------------------------------------------------------------

 SCF Done:  E(RB3LYP) =  -227.776053341     A.U. after   11 cycles

 The electronic state is 1-A.
 Alpha  occ. eigenvalues --  -19.16241 -19.16147 -10.28856 -10.28751  -1.10343
 Alpha  occ. eigenvalues --   -1.06562  -0.75793  -0.57979  -0.56070  -0.48391
 Alpha  occ. eigenvalues --   -0.46238  -0.45584  -0.38959  -0.31634  -0.28795
 Alpha virt. eigenvalues --   -0.13870   0.02792   0.05717   0.09255   0.15019
 Alpha virt. eigenvalues --    0.26059   0.32767   0.37837   0.38170   0.44682
 Alpha virt. eigenvalues --    0.49840   0.57555   0.58333   0.62761   0.66035

 Mulliken charges:
               1
     1  C    0.238783
     2  C    0.235206
     3  H    0.069200
     4  O   -0.305373
     5  H    0.072658
     6  O   -0.310474
 Sum of Mulliken charges =   0.00000

 Dipole moment (field-independent basis, Debye):
    X=              0.1180    Y=              4.2031    Z=             -0.0010  Tot=              4.2048
 Quadrupole moment (field-independent basis, Debye-Ang):
   XX=            -26.5798   YY=            -21.6738   ZZ=            -21.1972
   XY=              0.0980   XZ=              0.0119   YZ=              0.0016

 Normal termination of Gaussian 16 at Fri Sep 22 16:32:49 2023.
