 Gaussian 16, Revision A.03,
 Gaussian 16:  ES64L-G16RevA.03 25-Dec-2016

 ----------------------------------------------------------------------
 #p b3lyp/gen scrf=(cpcm,solvent=toluene) pop=hirshfeld empiricaldisper
 sion=gd3bj
 ----------------------------------------------------------------------

 -----------------------
 tmpdir/M2_conf_0_84.gjf
 -----------------------
 Symbolic Z-matrix:
 Charge =  0 Multiplicity = 1

                         Standard orientation:
 ---------------------------------------------------------------------
 Center     Atomic      Atomic             Coordinates (Angstroms)
 Number     Number       Type             X           Y           Z
 ---------------------------------------------------------------------
      1          1           0       -1.144962   -0.291555   -0.984583
      2          6           0       -0.772161    0.010016    0.001736
      3          6           0        0.768072    0.010029   -0.012392
      4          1           0       -1.203670    0.993345    0.260598
      5          1           0       -1.103059   -0.767616    0.702724
      6          1           0        1.225497    0.860433   -0.576850
      7          1           0        1.133685   -1.033787   -0.357212
      8          1           0        1.117041    0.118910    1.019257
 ---------------------------------------------------------------------

 SCF Done:  E(RB3LYP) =  -79.8175053199     A.U. after    9 cycles

 The electronic state is 1-A.
 Alpha  occ. eigenvalues --  -10.17347 -10.16730  -0.75068  -0.61028  -0.43867
 Alpha  occ. eigenvalues --   -0.43005  -0.36448  -0.34899  -0.33734
 Alpha virt. eigenvalues --    0.04776   0.08999   0.10007   0.10589   0.13445
 Alpha virt. eigenvalues --    0.13941   0.20990   0.37421   0.38281   0.39941
 Alpha virt. eigenvalues --    0.44785   0.49468   0.57822   0.61403   0.63493

 Mulliken charges:
               1
     1  H    0.085358
     2  C   -0.253980
     3  C   -0.282735
     4  H    0.092870
     5  H    0.086442
     6  H    0.095864
     7  H    0.093384
     8  H    0.082798
 Sum of Mulliken charges =   0.00000

 Dipole moment (field-independent basis, Debye):
    X=             -0.0361    Y=             -0.0097    Z=              0.0713  Tot=              0.0805
 Quadrupole moment (field-independent basis, Debye-Ang):
   XX=            -16.0948   YY=            -14.7593   ZZ=            -15.3213
   XY=              0.0694   XZ=              0.0497   YZ=             -0.0377

 Normal termination of Gaussian 16 at Fri Sep 22 16:33:00 2023.
