 Gaussian 16, Revision A.03,
 Gaussian 16:  ES64L-G16RevA.03 25-Dec-2016

 ----------------------------------------------------------------------
 #p b3lyp/gen scrf=(cpcm,solvent=toluene) pop=hirshfeld empiricaldisper
 sion=gd3bj
 ----------------------------------------------------------------------

 ------------------------
 tmpdir/M2_conf_0_288.gjf
 ------------------------
 Symbolic Z-matrix:
 Charge =  0 Multiplicity = 1

                         Standard orientation:
 ---------------------------------------------------------------------
 Center     Atomic      Atomic             Coordinates (Angstroms)
 Number     Number       Type             X           Y           Z
 ---------------------------------------------------------------------
      1          1           0       -0.468854   -0.462688   -0.873117
      2          6           0        0.005455   -0.001685    0.000418
      3          1           0       -0.553431   -0.314284    0.890746
      4          1           0        1.055442   -0.302282    0.073360
      5          1           0       -0.065885    1.089363   -0.093499
 ---------------------------------------------------------------------

 SCF Done:  E(RB3LYP) =  -40.5140724533     A.U. after    7 cycles

 The electronic state is 1-A.
 Alpha  occ. eigenvalues --  -10.16262  -0.69372  -0.39675  -0.39164  -0.39024
 Alpha virt. eigenvalues --    0.05703   0.12566   0.12579   0.12611   0.37342
 Alpha virt. eigenvalues --    0.37536   0.38099   0.63737   0.63788   0.64082
 Alpha virt. eigenvalues --    0.67771   0.96141   1.28724   1.29100   1.85429

 Mulliken charges:
               1
     1  H    0.086596
     2  C   -0.351032
     3  H    0.086791
     4  H    0.090809
     5  H    0.086837
 Sum of Mulliken charges =  -0.00000

 Dipole moment (field-independent basis, Debye):
    X=             -0.0213    Y=              0.0052    Z=             -0.0024  Tot=              0.0220
 Quadrupole moment (field-independent basis, Debye-Ang):
   XX=             -8.3690   YY=             -8.4743   ZZ=             -8.5057
   XY=             -0.0059   XZ=              0.0024   YZ=              0.0005

 Normal termination of Gaussian 16 at Fri Sep 22 16:35:04 2023.
