 Gaussian 16, Revision A.03,
 Gaussian 16:  ES64L-G16RevA.03 25-Dec-2016

 ----------------------------------------------------------------------
 #p b3lyp/gen scrf=(cpcm,solvent=toluene) pop=hirshfeld empiricaldisper
 sion=gd3bj
 ----------------------------------------------------------------------

 ------------------------
 tmpdir/M2_conf_0_276.gjf
 ------------------------
 Symbolic Z-matrix:
 Charge =  0 Multiplicity = 1

                         Standard orientation:
 ---------------------------------------------------------------------
 Center     Atomic      Atomic             Coordinates (Angstroms)
 Number     Number       Type             X           Y           Z
 ---------------------------------------------------------------------
      1          8           0       -1.153192   -0.373114   -0.042343
      2          6           0       -0.063316    0.571422   -0.008921
      3          6           0        1.213442   -0.238559    0.014735
      4          1           0       -1.982540   -0.107081    0.275062
      5          1           0       -0.135959    1.207796   -0.900743
      6          1           0       -0.169956    1.216183    0.869064
      7          1           0        2.082337    0.431623    0.001639
      8          1           0        1.260601   -0.859644    0.916171
      9          1           0        1.270306   -0.901146   -0.857339
 ---------------------------------------------------------------------

 SCF Done:  E(RB3LYP) =  -155.018163119     A.U. after   10 cycles

 The electronic state is 1-A.
 Alpha  occ. eigenvalues --  -19.10497 -10.22216 -10.16628  -1.01434  -0.75477
 Alpha  occ. eigenvalues --   -0.61943  -0.52042  -0.46451  -0.40352  -0.38729
 Alpha  occ. eigenvalues --   -0.36700  -0.32448  -0.27199
 Alpha virt. eigenvalues --    0.04711   0.07303   0.09724   0.10243   0.12049
 Alpha virt. eigenvalues --    0.14350   0.18221   0.21294   0.38306   0.39692
 Alpha virt. eigenvalues --    0.44969   0.47032   0.53640   0.57671   0.61782

 Mulliken charges:
               1
     1  O   -0.490150
     2  C    0.082567
     3  C   -0.216082
     4  H    0.203012
     5  H    0.076155
     6  H    0.077902
     7  H    0.084001
     8  H    0.089015
     9  H    0.093581
 Sum of Mulliken charges =  -0.00000

 Dipole moment (field-independent basis, Debye):
    X=             -0.1569    Y=              1.5963    Z=              0.6619  Tot=              1.7352
 Quadrupole moment (field-independent basis, Debye-Ang):
   XX=            -17.0928   YY=            -20.6996   ZZ=            -20.0159
   XY=             -1.2762   XZ=             -1.4137   YZ=             -0.0441

 Normal termination of Gaussian 16 at Fri Sep 22 16:35:39 2023.
