 Gaussian 16, Revision A.03,
 Gaussian 16:  ES64L-G16RevA.03 25-Dec-2016

 ----------------------------------------------------------------------
 #p b3lyp/gen scrf=(cpcm,solvent=toluene) pop=hirshfeld empiricaldisper
 sion=gd3bj
 ----------------------------------------------------------------------

 ------------------------
 tmpdir/M2_conf_0_122.gjf
 ------------------------
 Symbolic Z-matrix:
 Charge =  0 Multiplicity = 1

                         Standard orientation:
 ---------------------------------------------------------------------
 Center     Atomic      Atomic             Coordinates (Angstroms)
 Number     Number       Type             X           Y           Z
 ---------------------------------------------------------------------
      1          6           0        1.249849   -0.275232   -0.002118
      2          6           0        0.000162    0.619043   -0.002691
      3          6           0       -1.256143   -0.266940   -0.005943
      4          1           0        1.294018   -0.918903   -0.889698
      5          1           0        2.170554    0.321264    0.038696
      6          1           0        1.236515   -0.929169    0.878813
      7          1           0        0.051883    1.310599   -0.898286
      8          1           0        0.007885    1.254827    0.911177
      9          1           0       -2.182631    0.319291   -0.032482
     10          1           0       -1.266080   -0.954150   -0.858521
     11          1           0       -1.275352   -0.864984    0.914813
 ---------------------------------------------------------------------

 SCF Done:  E(RB3LYP) =  -119.131817949     A.U. after   10 cycles

 The electronic state is 1-A.
 Alpha  occ. eigenvalues --  -10.17570 -10.16402 -10.16307  -0.78041  -0.67862
 Alpha  occ. eigenvalues --   -0.58254  -0.45680  -0.43766  -0.39720  -0.38057
 Alpha  occ. eigenvalues --   -0.34130  -0.33644  -0.32972
 Alpha virt. eigenvalues --    0.04725   0.08552   0.08792   0.08839   0.11648
 Alpha virt. eigenvalues --    0.13496   0.14411   0.15523   0.19147   0.23167
 Alpha virt. eigenvalues --    0.37577   0.38710   0.39841   0.40261   0.40905

 Mulliken charges:
               1
     1  C   -0.214174
     2  C   -0.260409
     3  C   -0.208626
     4  H    0.084035
     5  H    0.085188
     6  H    0.079832
     7  H    0.092050
     8  H    0.090201
     9  H    0.085790
    10  H    0.083770
    11  H    0.082342
 Sum of Mulliken charges =  -0.00000

 Dipole moment (field-independent basis, Debye):
    X=             -0.0049    Y=              0.0241    Z=              0.0384  Tot=              0.0456
 Quadrupole moment (field-independent basis, Debye-Ang):
   XX=            -22.6710   YY=            -22.2824   ZZ=            -21.6745
   XY=              0.0912   XZ=             -0.0475   YZ=              0.0665

 Normal termination of Gaussian 16 at Fri Sep 22 16:34:49 2023.
