 Gaussian 16, Revision A.03,
 Gaussian 16:  ES64L-G16RevA.03 25-Dec-2016

 ----------------------------------------------------------------------
 #p b3lyp/gen scrf=(cpcm,solvent=toluene) pop=hirshfeld empiricaldisper
 sion=gd3bj
 ----------------------------------------------------------------------

 ------------------------
 tmpdir/M2_conf_0_104.gjf
 ------------------------
 Symbolic Z-matrix:
 Charge =  0 Multiplicity = 1

                         Standard orientation:
 ---------------------------------------------------------------------
 Center     Atomic      Atomic             Coordinates (Angstroms)
 Number     Number       Type             X           Y           Z
 ---------------------------------------------------------------------
      1          6           0        0.780364   -0.008927   -0.003042
      2          6           0       -0.784203   -0.000074   -0.007893
      3          1           0        1.199901    0.851490   -0.612507
      4          1           0        1.103903    0.139443    1.028265
      5          1           0        1.191109   -0.962511   -0.387551
      6          1           0       -1.145123   -0.802929    0.672251
      7          1           0       -1.212872   -0.158419   -1.022647
      8          1           0       -1.113882    0.986928    0.387804
 ---------------------------------------------------------------------

 SCF Done:  E(RB3LYP) =  -79.8195700900     A.U. after    8 cycles

 The electronic state is 1-A.
 Alpha  occ. eigenvalues --  -10.17253 -10.17147  -0.74610  -0.61080  -0.43513
 Alpha  occ. eigenvalues --   -0.43064  -0.35935  -0.34820  -0.34384
 Alpha virt. eigenvalues --    0.04797   0.08950   0.10422   0.10636   0.13349
 Alpha virt. eigenvalues --    0.13597   0.20173   0.37822   0.38823   0.39399
 Alpha virt. eigenvalues --    0.46655   0.46933   0.56315   0.62786   0.63744

 Mulliken charges:
               1
     1  C   -0.273088
     2  C   -0.271972
     3  H    0.090992
     4  H    0.086842
     5  H    0.092393
     6  H    0.090667
     7  H    0.093783
     8  H    0.090383
 Sum of Mulliken charges =  -0.00000

 Dipole moment (field-independent basis, Debye):
    X=              0.0039    Y=              0.0017    Z=              0.0597  Tot=              0.0598
 Quadrupole moment (field-independent basis, Debye-Ang):
   XX=            -16.1120   YY=            -15.0070   ZZ=            -15.0650
   XY=              0.0240   XZ=              0.0350   YZ=              0.0426

 Normal termination of Gaussian 16 at Fri Sep 22 16:33:00 2023.
