 Gaussian 16, Revision A.03,
 Gaussian 16:  ES64L-G16RevA.03 25-Dec-2016

 ----------------------------------------------------------------------
 #p b3lyp/gen scrf=(cpcm,solvent=toluene) pop=hirshfeld empiricaldisper
 sion=gd3bj
 ----------------------------------------------------------------------

 ------------------------
 tmpdir/M2_conf_0_332.gjf
 ------------------------
 Symbolic Z-matrix:
 Charge =  0 Multiplicity = 1

                         Standard orientation:
 ---------------------------------------------------------------------
 Center     Atomic      Atomic             Coordinates (Angstroms)
 Number     Number       Type             X           Y           Z
 ---------------------------------------------------------------------
      1          6           0       -0.688601   -0.007242   -0.000159
      2          6           0        0.687398   -0.006940   -0.001488
      3          1           0        1.237172    0.931360   -0.001356
      4          1           0       -1.209091   -0.891644   -0.003521
      5          1           0       -1.232842    0.935294    0.006132
      6          1           0        1.211982   -0.889913    0.008631
 ---------------------------------------------------------------------

 SCF Done:  E(RB3LYP) =  -78.5745455342     A.U. after    9 cycles

 The electronic state is 1-A.
 Alpha  occ. eigenvalues --  -10.18030 -10.17966  -0.76126  -0.59432  -0.47957
 Alpha  occ. eigenvalues --   -0.41810  -0.37373  -0.27421
 Alpha virt. eigenvalues --   -0.01168   0.06598   0.09601   0.10007   0.16169
 Alpha virt. eigenvalues --    0.27697   0.35753   0.41950   0.43564   0.51273
 Alpha virt. eigenvalues --    0.51766   0.55113   0.63603   0.65537   0.70634

 Mulliken charges:
               1
     1  C   -0.184262
     2  C   -0.186605
     3  H    0.102314
     4  H    0.082776
     5  H    0.102889
     6  H    0.082888
 Sum of Mulliken charges =   0.00000

 Dipole moment (field-independent basis, Debye):
    X=              0.0033    Y=             -0.0261    Z=              0.0107  Tot=              0.0284
 Quadrupole moment (field-independent basis, Debye-Ang):
   XX=            -12.3672   YY=            -12.3093   ZZ=            -15.6548
   XY=              0.0026   XZ=              0.0061   YZ=             -0.0001

 Normal termination of Gaussian 16 at Fri Sep 22 16:36:41 2023.
