 Gaussian 16, Revision A.03,
 Gaussian 16:  ES64L-G16RevA.03 25-Dec-2016

 ----------------------------------------------------------------------
 #p b3lyp/gen scrf=(cpcm,solvent=toluene) pop=hirshfeld empiricaldisper
 sion=gd3bj
 ----------------------------------------------------------------------

 ------------------------
 tmpdir/M2_conf_0_318.gjf
 ------------------------
 Symbolic Z-matrix:
 Charge =  0 Multiplicity = 1

                         Standard orientation:
 ---------------------------------------------------------------------
 Center     Atomic      Atomic             Coordinates (Angstroms)
 Number     Number       Type             X           Y           Z
 ---------------------------------------------------------------------
      1          6           0        0.687920   -0.006835   -0.000483
      2          6           0       -0.686280   -0.006284   -0.001132
      3          1           0       -1.239914    0.929978   -0.001690
      4          1           0        1.205466   -0.892963   -0.002738
      5          1           0        1.232675    0.935059    0.006387
      6          1           0       -1.208070   -0.893362    0.007732
 ---------------------------------------------------------------------

 SCF Done:  E(RB3LYP) =  -78.5748775202     A.U. after    9 cycles

 The electronic state is 1-A.
 Alpha  occ. eigenvalues --  -10.18011 -10.17945  -0.76159  -0.59384  -0.47971
 Alpha  occ. eigenvalues --   -0.41808  -0.37351  -0.27446
 Alpha virt. eigenvalues --   -0.01127   0.06597   0.09577   0.10011   0.16177
 Alpha virt. eigenvalues --    0.27725   0.35707   0.42009   0.43543   0.51294
 Alpha virt. eigenvalues --    0.51723   0.55162   0.63558   0.65569   0.70669

 Mulliken charges:
               1
     1  C   -0.183348
     2  C   -0.187829
     3  H    0.102352
     4  H    0.082623
     5  H    0.102769
     6  H    0.083432
 Sum of Mulliken charges =   0.00000

 Dipole moment (field-independent basis, Debye):
    X=             -0.0037    Y=             -0.0270    Z=              0.0104  Tot=              0.0292
 Quadrupole moment (field-independent basis, Debye-Ang):
   XX=            -12.3798   YY=            -12.3033   ZZ=            -15.6513
   XY=             -0.0074   XZ=             -0.0030   YZ=             -0.0001

 Normal termination of Gaussian 16 at Fri Sep 22 16:36:02 2023.
