 Gaussian 16, Revision A.03,
 Gaussian 16:  ES64L-G16RevA.03 25-Dec-2016

 ----------------------------------------------------------------------
 #p b3lyp/gen scrf=(cpcm,solvent=toluene) pop=hirshfeld empiricaldisper
 sion=gd3bj
 ----------------------------------------------------------------------

 -----------------------
 tmpdir/M2_conf_0_46.gjf
 -----------------------
 Symbolic Z-matrix:
 Charge =  0 Multiplicity = 1

                         Standard orientation:
 ---------------------------------------------------------------------
 Center     Atomic      Atomic             Coordinates (Angstroms)
 Number     Number       Type             X           Y           Z
 ---------------------------------------------------------------------
      1          7           0        1.550806   -0.268271   -0.045448
      2          6           0        0.449807    0.505742    0.021344
      3         16           0       -1.143527   -0.106454   -0.004956
      4          1           0        2.439181    0.247619   -0.025423
      5          1           0        1.633573   -1.249043    0.217584
      6          1           0        0.669198    1.548138    0.077199
 ---------------------------------------------------------------------

 SCF Done:  E(RB3LYP) =  -492.845364382     A.U. after   11 cycles

 The electronic state is 1-A.
 Alpha  occ. eigenvalues --  -88.81329 -14.37798 -10.28221  -7.89809  -5.86726
 Alpha  occ. eigenvalues --   -5.86284  -5.85772  -0.96281  -0.74749  -0.63059
 Alpha  occ. eigenvalues --   -0.55537  -0.49783  -0.39227  -0.37307  -0.24909
 Alpha  occ. eigenvalues --   -0.22709
 Alpha virt. eigenvalues --   -0.05940   0.02719   0.05959   0.07024   0.13354
 Alpha virt. eigenvalues --    0.22509   0.31528   0.32933   0.33577   0.36761
 Alpha virt. eigenvalues --    0.43787   0.44741   0.45463   0.50714   0.60254

 Mulliken charges:
               1
     1  N   -0.285166
     2  C    0.046088
     3  S   -0.309782
     4  H    0.205092
     5  H    0.215308
     6  H    0.128461
 Sum of Mulliken charges =  -0.00000

 Dipole moment (field-independent basis, Debye):
    X=              5.6893    Y=              0.4386    Z=              0.5069  Tot=              5.7287
 Quadrupole moment (field-independent basis, Debye-Ang):
   XX=            -21.1651   YY=            -23.8955   ZZ=            -27.8486
   XY=              0.1899   XZ=              0.8901   YZ=             -0.5636

 Normal termination of Gaussian 16 at Fri Sep 22 16:32:38 2023.
