 Gaussian 16, Revision A.03,
 Gaussian 16:  ES64L-G16RevA.03 25-Dec-2016

 ----------------------------------------------------------------------
 #p b3lyp/gen scrf=(cpcm,solvent=toluene) pop=hirshfeld empiricaldisper
 sion=gd3bj
 ----------------------------------------------------------------------

 ------------------------
 tmpdir/M2_conf_0_370.gjf
 ------------------------
 Symbolic Z-matrix:
 Charge =  0 Multiplicity = 1

                         Standard orientation:
 ---------------------------------------------------------------------
 Center     Atomic      Atomic             Coordinates (Angstroms)
 Number     Number       Type             X           Y           Z
 ---------------------------------------------------------------------
      1          6           0       -0.009305    0.004959   -0.001148
      2          1           0        0.297807   -0.522808    0.913207
      3          1           0       -1.095505    0.070802   -0.056519
      4          1           0        0.392719   -0.572214   -0.846737
      5          1           0        0.460808    0.994463   -0.003064
 ---------------------------------------------------------------------

 SCF Done:  E(RB3LYP) =  -40.5138342575     A.U. after    7 cycles

 The electronic state is 1-A.
 Alpha  occ. eigenvalues --  -10.16265  -0.69378  -0.39919  -0.39193  -0.38747
 Alpha virt. eigenvalues --    0.05700   0.12509   0.12568   0.12662   0.37165
 Alpha virt. eigenvalues --    0.37562   0.38257   0.63470   0.63775   0.64350
 Alpha virt. eigenvalues --    0.67788   0.96201   1.28817   1.28991   1.84895

 Mulliken charges:
               1
     1  C   -0.350946
     2  H    0.085106
     3  H    0.092136
     4  H    0.085642
     5  H    0.088062
 Sum of Mulliken charges =  -0.00000

 Dipole moment (field-independent basis, Debye):
    X=              0.0304    Y=             -0.0167    Z=              0.0048  Tot=              0.0350
 Quadrupole moment (field-independent basis, Debye-Ang):
   XX=             -8.3303   YY=             -8.4685   ZZ=             -8.5532
   XY=              0.0054   XZ=              0.0030   YZ=              0.0002

 Normal termination of Gaussian 16 at Fri Sep 22 16:36:04 2023.
