 Gaussian 16, Revision A.03,
 Gaussian 16:  ES64L-G16RevA.03 25-Dec-2016

 ----------------------------------------------------------------------
 #p b3lyp/gen scrf=(cpcm,solvent=toluene) pop=hirshfeld empiricaldisper
 sion=gd3bj
 ----------------------------------------------------------------------

 -----------------------
 tmpdir/M2_conf_0_51.gjf
 -----------------------
 Symbolic Z-matrix:
 Charge =  0 Multiplicity = 1

                         Standard orientation:
 ---------------------------------------------------------------------
 Center     Atomic      Atomic             Coordinates (Angstroms)
 Number     Number       Type             X           Y           Z
 ---------------------------------------------------------------------
      1          1           0       -1.224568    0.884709    0.058036
      2          7           0       -0.725502   -0.008554   -0.008736
      3          6           0        0.718184   -0.000099    0.007415
      4          1           0       -1.259492   -0.794383   -0.023193
      5          1           0        1.051658   -0.842065   -0.601005
      6          1           0        1.071817   -0.130910    1.048431
      7          1           0        1.129996    0.943121   -0.465606
 ---------------------------------------------------------------------

 SCF Done:  E(RB3LYP) =  -95.8330499250     A.U. after    9 cycles

 The electronic state is 1-A.
 Alpha  occ. eigenvalues --  -14.27198 -10.19508  -0.86340  -0.65752  -0.49856
 Alpha  occ. eigenvalues --   -0.43165  -0.41738  -0.36905  -0.20762
 Alpha virt. eigenvalues --    0.05192   0.08416   0.09542   0.12357   0.15494
 Alpha virt. eigenvalues --    0.20974   0.40150   0.45048   0.46251   0.57293
 Alpha virt. eigenvalues --    0.59019   0.62693   0.65163   0.69977   0.71131

 Mulliken charges:
               1
     1  H    0.166956
     2  N   -0.517572
     3  C   -0.029111
     4  H    0.138542
     5  H    0.078536
     6  H    0.073228
     7  H    0.089421
 Sum of Mulliken charges =   0.00000

 Dipole moment (field-independent basis, Debye):
    X=             -0.1991    Y=              0.0553    Z=             -0.0027  Tot=              0.2067
 Quadrupole moment (field-independent basis, Debye-Ang):
   XX=            -12.9846   YY=            -12.3107   ZZ=            -15.6344
   XY=              0.0450   XZ=             -0.3425   YZ=              0.1013

 Normal termination of Gaussian 16 at Fri Sep 22 16:33:17 2023.
