 Gaussian 16, Revision A.03,
 Gaussian 16:  ES64L-G16RevA.03 25-Dec-2016

 ----------------------------------------------------------------------
 #p b3lyp/gen scrf=(cpcm,solvent=toluene) pop=hirshfeld empiricaldisper
 sion=gd3bj
 ----------------------------------------------------------------------

 -----------------------
 tmpdir/M2_conf_0_88.gjf
 -----------------------
 Symbolic Z-matrix:
 Charge =  0 Multiplicity = 1

                         Standard orientation:
 ---------------------------------------------------------------------
 Center     Atomic      Atomic             Coordinates (Angstroms)
 Number     Number       Type             X           Y           Z
 ---------------------------------------------------------------------
      1          6           0        1.247449   -0.264229   -0.000725
      2          6           0       -0.003980    0.608291   -0.010281
      3          6           0       -1.251667   -0.273214   -0.000502
      4          1           0        1.306705   -0.983624   -0.852110
      5          1           0        1.271380   -0.839159    0.937468
      6          1           0        2.161326    0.343381   -0.012998
      7          1           0        0.008634    1.278599    0.859153
      8          1           0       -0.013225    1.251470   -0.904324
      9          1           0       -1.258755   -0.928418   -0.889774
     10          1           0       -2.165582    0.335164    0.014649
     11          1           0       -1.261293   -0.882494    0.916980
 ---------------------------------------------------------------------

 SCF Done:  E(RB3LYP) =  -119.132246948     A.U. after   10 cycles

 The electronic state is 1-A.
 Alpha  occ. eigenvalues --  -10.16948 -10.16442 -10.16392  -0.78350  -0.67795
 Alpha  occ. eigenvalues --   -0.58333  -0.45973  -0.43864  -0.39609  -0.38071
 Alpha  occ. eigenvalues --   -0.34163  -0.33574  -0.32999
 Alpha virt. eigenvalues --    0.04732   0.08624   0.08774   0.08888   0.11778
 Alpha virt. eigenvalues --    0.13662   0.14300   0.15326   0.19446   0.23473
 Alpha virt. eigenvalues --    0.37460   0.38473   0.40167   0.40729   0.40941

 Mulliken charges:
               1
     1  C   -0.220922
     2  C   -0.244516
     3  C   -0.212096
     4  H    0.087034
     5  H    0.080423
     6  H    0.083484
     7  H    0.087067
     8  H    0.086516
     9  H    0.086800
    10  H    0.084643
    11  H    0.081567
 Sum of Mulliken charges =  -0.00000

 Dipole moment (field-independent basis, Debye):
    X=              0.0057    Y=              0.1077    Z=              0.0406  Tot=              0.1152
 Quadrupole moment (field-independent basis, Debye-Ang):
   XX=            -22.7517   YY=            -22.2789   ZZ=            -21.6021
   XY=             -0.0718   XZ=             -0.0350   YZ=              0.1495

 Normal termination of Gaussian 16 at Fri Sep 22 16:33:31 2023.
