 Gaussian 16, Revision A.03,
 Gaussian 16:  ES64L-G16RevA.03 25-Dec-2016

 ----------------------------------------------------------------------
 #p b3lyp/gen scrf=(cpcm,solvent=toluene) pop=hirshfeld empiricaldisper
 sion=gd3bj
 ----------------------------------------------------------------------

 ----------------------
 tmpdir/M2_conf_0_1.gjf
 ----------------------
 Symbolic Z-matrix:
 Charge =  0 Multiplicity = 1

                         Standard orientation:
 ---------------------------------------------------------------------
 Center     Atomic      Atomic             Coordinates (Angstroms)
 Number     Number       Type             X           Y           Z
 ---------------------------------------------------------------------
      1          6           0        0.689761    0.505892   -0.007026
      2          6           0       -0.710902    0.475434   -0.003183
      3          6           0        1.416426   -0.716617    0.001316
      4          1           0        1.229573    1.392194    0.029695
      5          6           0       -1.389110   -0.731442    0.003007
      6          1           0       -1.266620    1.408206    0.005626
 ---------------------------------------------------------------------

 SCF Done:  E(RB3LYP) =  -153.285816320     A.U. after   14 cycles

 The electronic state is 1-A.
 Alpha  occ. eigenvalues --  -10.27746 -10.27159 -10.22375 -10.22271  -0.86010
 Alpha  occ. eigenvalues --   -0.73383  -0.61745  -0.51208  -0.49883  -0.37112
 Alpha  occ. eigenvalues --   -0.33386  -0.31301  -0.25469
 Alpha virt. eigenvalues --   -0.14550  -0.11493  -0.08290   0.04496   0.05982
 Alpha virt. eigenvalues --    0.09872   0.19531   0.26476   0.31195   0.36442
 Alpha virt. eigenvalues --    0.39211   0.43324   0.44417   0.45637   0.46219

 Mulliken charges:
               1
     1  C   -0.137605
     2  C   -0.158946
     3  C    0.002571
     4  H    0.132214
     5  C   -0.000948
     6  H    0.162715
 Sum of Mulliken charges =   0.00000

 Dipole moment (field-independent basis, Debye):
    X=             -0.0304    Y=              3.9975    Z=              0.0442  Tot=              3.9978
 Quadrupole moment (field-independent basis, Debye-Ang):
   XX=            -25.6235   YY=            -24.4474   ZZ=            -26.6030
   XY=             -0.1356   XZ=              0.0759   YZ=              0.0934

 Normal termination of Gaussian 16 at Fri Sep 22 16:32:39 2023.
