 Gaussian 16, Revision A.03,
 Gaussian 16:  ES64L-G16RevA.03 25-Dec-2016

 ----------------------------------------------------------------------
 #p b3lyp/gen scrf=(cpcm,solvent=toluene) pop=hirshfeld empiricaldisper
 sion=gd3bj
 ----------------------------------------------------------------------

 -----------------------
 tmpdir/M2_conf_0_28.gjf
 -----------------------
 Symbolic Z-matrix:
 Charge =  0 Multiplicity = 1

                         Standard orientation:
 ---------------------------------------------------------------------
 Center     Atomic      Atomic             Coordinates (Angstroms)
 Number     Number       Type             X           Y           Z
 ---------------------------------------------------------------------
      1          6           0       -0.689959    0.500036   -0.002251
      2          6           0        0.710537    0.499692    0.001013
      3          1           0        1.259666    1.437765    0.006960
      4          8           0       -1.328956   -0.546616    0.001463
      5          1           0       -1.229906    1.445288   -0.003099
      6          8           0        1.309802   -0.563562   -0.001017
 ---------------------------------------------------------------------

 SCF Done:  E(RB3LYP) =  -227.776136454     A.U. after   11 cycles

 The electronic state is 1-A.
 Alpha  occ. eigenvalues --  -19.16234 -19.16170 -10.28840 -10.28758  -1.10342
 Alpha  occ. eigenvalues --   -1.06563  -0.75816  -0.57970  -0.56049  -0.48396
 Alpha  occ. eigenvalues --   -0.46238  -0.45596  -0.38961  -0.31649  -0.28796
 Alpha virt. eigenvalues --   -0.13873   0.02793   0.05710   0.09278   0.15018
 Alpha virt. eigenvalues --    0.26015   0.32811   0.37837   0.38239   0.44686
 Alpha virt. eigenvalues --    0.49827   0.57540   0.58271   0.62786   0.66013

 Mulliken charges:
               1
     1  C    0.236228
     2  C    0.237775
     3  H    0.072586
     4  O   -0.310306
     5  H    0.069159
     6  O   -0.305441
 Sum of Mulliken charges =  -0.00000

 Dipole moment (field-independent basis, Debye):
    X=              0.1205    Y=              4.2032    Z=             -0.0011  Tot=              4.2049
 Quadrupole moment (field-independent basis, Debye-Ang):
   XX=            -26.5962   YY=            -21.6661   ZZ=            -21.1966
   XY=              0.1055   XZ=              0.0117   YZ=              0.0015

 Normal termination of Gaussian 16 at Fri Sep 22 16:32:45 2023.
