 Gaussian 16, Revision A.03,
 Gaussian 16:  ES64L-G16RevA.03 25-Dec-2016

 ----------------------------------------------------------------------
 #p b3lyp/gen scrf=(cpcm,solvent=toluene) pop=hirshfeld empiricaldisper
 sion=gd3bj
 ----------------------------------------------------------------------

 ------------------------
 tmpdir/M2_conf_0_382.gjf
 ------------------------
 Symbolic Z-matrix:
 Charge =  0 Multiplicity = 1

                         Standard orientation:
 ---------------------------------------------------------------------
 Center     Atomic      Atomic             Coordinates (Angstroms)
 Number     Number       Type             X           Y           Z
 ---------------------------------------------------------------------
      1          6           0        0.540156   -0.011390   -0.000731
      2          1           0        1.099394    0.922113    0.001477
      3          8           0       -0.673318    0.006079    0.000167
      4          1           0        1.046210   -0.902407    0.001573
 ---------------------------------------------------------------------

 SCF Done:  E(RB3LYP) =  -114.483519992     A.U. after    9 cycles

 The electronic state is 1-A.
 Alpha  occ. eigenvalues --  -19.13883 -10.27051  -1.06436  -0.65041  -0.51188
 Alpha  occ. eigenvalues --   -0.45472  -0.40317  -0.27434
 Alpha virt. eigenvalues --   -0.05281   0.06557   0.11896   0.18139   0.40322
 Alpha virt. eigenvalues --    0.47684   0.52710   0.60877   0.62580   0.72769
 Alpha virt. eigenvalues --    0.78058   0.87664   0.98003   1.32128   1.50537

 Mulliken charges:
               1
     1  C    0.221902
     2  H    0.076998
     3  O   -0.364256
     4  H    0.065356
 Sum of Mulliken charges =  -0.00000

 Dipole moment (field-independent basis, Debye):
    X=              2.7519    Y=             -0.0915    Z=              0.0003  Tot=              2.7534
 Quadrupole moment (field-independent basis, Debye-Ang):
   XX=            -12.0554   YY=            -11.4881   ZZ=            -11.5033
   XY=             -0.0466   XZ=              0.0015   YZ=              0.0001

 Normal termination of Gaussian 16 at Fri Sep 22 16:36:34 2023.
