 Gaussian 16, Revision A.03,
 Gaussian 16:  ES64L-G16RevA.03 25-Dec-2016

 ----------------------------------------------------------------------
 #p b3lyp/gen scrf=(cpcm,solvent=toluene) pop=hirshfeld empiricaldisper
 sion=gd3bj
 ----------------------------------------------------------------------

 ------------------------
 tmpdir/M2_conf_0_155.gjf
 ------------------------
 Symbolic Z-matrix:
 Charge =  0 Multiplicity = 1

                         Standard orientation:
 ---------------------------------------------------------------------
 Center     Atomic      Atomic             Coordinates (Angstroms)
 Number     Number       Type             X           Y           Z
 ---------------------------------------------------------------------
      1          6           0        1.177736   -0.122098    0.000880
      2          6           0       -0.237298    0.459173   -0.008690
      3          1           0        1.430700   -0.528796    1.021149
      4          1           0        1.224935   -1.090895   -0.666907
      5          1           0        1.955284    0.594774   -0.333221
      6          1           0       -0.390290    1.443800    0.024652
      7          8           0       -1.232907   -0.305166    0.000149
 ---------------------------------------------------------------------

 SCF Done:  E(RB3LYP) =  -153.796964306     A.U. after   10 cycles

 The electronic state is 1-A.
 Alpha  occ. eigenvalues --  -19.12696 -10.27316 -10.19915  -1.03677  -0.74594
 Alpha  occ. eigenvalues --   -0.61145  -0.48289  -0.43941  -0.43231  -0.39804
 Alpha  occ. eigenvalues --   -0.35656  -0.26852
 Alpha virt. eigenvalues --   -0.05264   0.05214   0.08043   0.10848   0.11593
 Alpha virt. eigenvalues --    0.19919   0.21601   0.40078   0.41763   0.44864
 Alpha virt. eigenvalues --    0.45810   0.54783   0.57767   0.59103   0.60731

 Mulliken charges:
               1
     1  C   -0.277070
     2  C    0.245290
     3  H    0.140595
     4  H    0.132422
     5  H    0.113783
     6  H    0.044805
     7  O   -0.399825
 Sum of Mulliken charges =  -0.00000

 Dipole moment (field-independent basis, Debye):
    X=              2.8258    Y=              1.5356    Z=              0.1056  Tot=              3.2178
 Quadrupole moment (field-independent basis, Debye-Ang):
   XX=            -21.5401   YY=            -17.5567   ZZ=            -18.1075
   XY=             -1.5038   XZ=              0.1143   YZ=             -0.1145

 Normal termination of Gaussian 16 at Fri Sep 22 16:33:56 2023.
