 Gaussian 16, Revision A.03,
 Gaussian 16:  ES64L-G16RevA.03 25-Dec-2016

 ----------------------------------------------------------------------
 #p b3lyp/gen scrf=(cpcm,solvent=toluene) pop=hirshfeld empiricaldisper
 sion=gd3bj
 ----------------------------------------------------------------------

 ------------------------
 tmpdir/M2_conf_0_386.gjf
 ------------------------
 Symbolic Z-matrix:
 Charge =  0 Multiplicity = 1

                         Standard orientation:
 ---------------------------------------------------------------------
 Center     Atomic      Atomic             Coordinates (Angstroms)
 Number     Number       Type             X           Y           Z
 ---------------------------------------------------------------------
      1          1           0       -1.246497    1.441556    0.017813
      2          6           0       -0.707937    0.496097    0.002313
      3          6           0        0.707541    0.496047   -0.004983
      4          8           0       -1.319005   -0.552422   -0.002599
      5          8           0        1.319359   -0.552132    0.003549
      6          1           0        1.246036    1.442009   -0.009389
 ---------------------------------------------------------------------

 SCF Done:  E(RB3LYP) =  -227.778736228     A.U. after   10 cycles

 The electronic state is 1-A.
 Alpha  occ. eigenvalues --  -19.16127 -19.16122 -10.28741 -10.28698  -1.10715
 Alpha  occ. eigenvalues --   -1.07070  -0.75264  -0.57911  -0.55986  -0.48442
 Alpha  occ. eigenvalues --   -0.46344  -0.45813  -0.39292  -0.31817  -0.28549
 Alpha virt. eigenvalues --   -0.13436   0.02878   0.05822   0.09262   0.15227
 Alpha virt. eigenvalues --    0.26036   0.32311   0.37940   0.38589   0.44547
 Alpha virt. eigenvalues --    0.50661   0.56896   0.58869   0.63410   0.66112

 Mulliken charges:
               1
     1  H    0.068268
     2  C    0.234230
     3  C    0.234058
     4  O   -0.302373
     5  O   -0.302438
     6  H    0.068255
 Sum of Mulliken charges =   0.00000

 Dipole moment (field-independent basis, Debye):
    X=             -0.0025    Y=              4.1543    Z=             -0.0027  Tot=              4.1543
 Quadrupole moment (field-independent basis, Debye-Ang):
   XX=            -26.5686   YY=            -21.7149   ZZ=            -21.1672
   XY=             -0.0026   XZ=             -0.0296   YZ=              0.0025

 Normal termination of Gaussian 16 at Fri Sep 22 16:37:09 2023.
