 Gaussian 16, Revision A.03,
 Gaussian 16:  ES64L-G16RevA.03 25-Dec-2016

 ----------------------------------------------------------------------
 #p b3lyp/gen scrf=(cpcm,solvent=toluene) pop=hirshfeld empiricaldisper
 sion=gd3bj
 ----------------------------------------------------------------------

 ------------------------
 tmpdir/M2_conf_0_291.gjf
 ------------------------
 Symbolic Z-matrix:
 Charge =  0 Multiplicity = 1

                         Standard orientation:
 ---------------------------------------------------------------------
 Center     Atomic      Atomic             Coordinates (Angstroms)
 Number     Number       Type             X           Y           Z
 ---------------------------------------------------------------------
      1          6           0        0.764813    0.402463    0.204465
      2          6           0       -0.658061    0.599404   -0.132359
      3          6           0       -1.534485   -0.447048    0.078676
      4          1           0        1.317215    0.954839    0.960456
      5          8           0        1.496608   -0.498551   -0.205109
      6          1           0       -1.023442    1.448155   -0.587354
      7          1           0       -2.513388   -0.398077   -0.214019
      8          1           0       -1.186853   -1.345426    0.577097
 ---------------------------------------------------------------------

 SCF Done:  E(RB3LYP) =  -191.867114561     A.U. after   11 cycles

 The electronic state is 1-A.
 Alpha  occ. eigenvalues --  -19.12910 -10.27653 -10.20466 -10.20404  -1.05362
 Alpha  occ. eigenvalues --   -0.80276  -0.66520  -0.57243  -0.52302  -0.46000
 Alpha  occ. eigenvalues --   -0.45061  -0.40935  -0.38510  -0.29282  -0.26684
 Alpha virt. eigenvalues --   -0.06612  -0.01319   0.06897   0.08307   0.09135
 Alpha virt. eigenvalues --    0.12660   0.23520   0.24655   0.26190   0.40307
 Alpha virt. eigenvalues --    0.41941   0.45208   0.48328   0.50673   0.51576

 Mulliken charges:
               1
     1  C    0.254967
     2  C   -0.186374
     3  C   -0.065707
     4  H    0.068133
     5  O   -0.366936
     6  H    0.089236
     7  H    0.094950
     8  H    0.111732
 Sum of Mulliken charges =  -0.00000

 Dipole moment (field-independent basis, Debye):
    X=             -2.5486    Y=              1.7121    Z=              0.7945  Tot=              3.1714
 Quadrupole moment (field-independent basis, Debye-Ang):
   XX=            -25.1233   YY=            -22.8267   ZZ=            -24.5472
   XY=              2.8997   XZ=              1.8697   YZ=             -1.4671

 Normal termination of Gaussian 16 at Fri Sep 22 16:35:33 2023.
