 Gaussian 16, Revision A.03,
 Gaussian 16:  ES64L-G16RevA.03 25-Dec-2016

 ----------------------------------------------------------------------
 #p b3lyp/gen scrf=(cpcm,solvent=toluene) pop=hirshfeld empiricaldisper
 sion=gd3bj
 ----------------------------------------------------------------------

 ------------------------
 tmpdir/M2_conf_0_180.gjf
 ------------------------
 Symbolic Z-matrix:
 Charge =  0 Multiplicity = 1

                         Standard orientation:
 ---------------------------------------------------------------------
 Center     Atomic      Atomic             Coordinates (Angstroms)
 Number     Number       Type             X           Y           Z
 ---------------------------------------------------------------------
      1          1           0       -0.448877   -0.448088    0.893538
      2          6           0       -0.006788   -0.002937   -0.007452
      3          1           0       -0.825428    0.312195   -0.661174
      4          1           0        0.629712    0.876946    0.294251
      5          1           0        0.685323   -0.723432   -0.481905
 ---------------------------------------------------------------------

 SCF Done:  E(RB3LYP) =  -40.5129310657     A.U. after    7 cycles

 The electronic state is 1-A.
 Alpha  occ. eigenvalues --  -10.16669  -0.69090  -0.40167  -0.38968  -0.38241
 Alpha virt. eigenvalues --    0.05535   0.12075   0.12485   0.12558   0.36905
 Alpha virt. eigenvalues --    0.37218   0.39085   0.62168   0.63483   0.63967
 Alpha virt. eigenvalues --    0.66622   0.95684   1.28419   1.29995   1.82732

 Mulliken charges:
               1
     1  H    0.087712
     2  C   -0.361110
     3  H    0.093064
     4  H    0.088995
     5  H    0.091337
 Sum of Mulliken charges =   0.00000

 Dipole moment (field-independent basis, Debye):
    X=              0.0032    Y=             -0.0072    Z=              0.0236  Tot=              0.0249
 Quadrupole moment (field-independent basis, Debye-Ang):
   XX=             -8.2901   YY=             -8.5820   ZZ=             -8.5742
   XY=             -0.0423   XZ=              0.0060   YZ=             -0.0282

 Normal termination of Gaussian 16 at Fri Sep 22 16:33:43 2023.
