 Gaussian 16, Revision A.03,
 Gaussian 16:  ES64L-G16RevA.03 25-Dec-2016

 ----------------------------------------------------------------------
 #p b3lyp/gen scrf=(cpcm,solvent=toluene) pop=hirshfeld empiricaldisper
 sion=gd3bj
 ----------------------------------------------------------------------

 ------------------------
 tmpdir/M2_conf_0_307.gjf
 ------------------------
 Symbolic Z-matrix:
 Charge =  0 Multiplicity = 1

                         Standard orientation:
 ---------------------------------------------------------------------
 Center     Atomic      Atomic             Coordinates (Angstroms)
 Number     Number       Type             X           Y           Z
 ---------------------------------------------------------------------
      1          6           0       -0.809890    0.470314   -0.000667
      2          6           0        0.589847    0.664169   -0.003609
      3          6           0        1.451287   -0.478370   -0.001139
      4          8           0       -1.303918   -0.642671   -0.000596
      5          1           0       -1.454011    1.342842    0.012384
      6          1           0        1.004798    1.605942    0.007959
      7          1           0        1.025461   -1.413916    0.012820
      8          1           0        2.467630   -0.330179    0.004090
 ---------------------------------------------------------------------

 SCF Done:  E(RB3LYP) =  -191.872636168     A.U. after   11 cycles

 The electronic state is 1-A.
 Alpha  occ. eigenvalues --  -19.11859 -10.26277 -10.21127 -10.19695  -1.05388
 Alpha  occ. eigenvalues --   -0.79783  -0.68099  -0.56064  -0.52995  -0.45788
 Alpha  occ. eigenvalues --   -0.43159  -0.40982  -0.40632  -0.28365  -0.26847
 Alpha virt. eigenvalues --   -0.09496   0.04965   0.06314   0.08285   0.11083
 Alpha virt. eigenvalues --    0.13530   0.21781   0.24364   0.29083   0.40400
 Alpha virt. eigenvalues --    0.42269   0.46315   0.46494   0.48129   0.51425

 Mulliken charges:
               1
     1  C    0.302425
     2  C   -0.253511
     3  C    0.016850
     4  O   -0.380795
     5  H    0.053506
     6  H    0.061751
     7  H    0.097179
     8  H    0.102596
 Sum of Mulliken charges =   0.00000

 Dipole moment (field-independent basis, Debye):
    X=              2.4868    Y=              2.0046    Z=              0.0289  Tot=              3.1942
 Quadrupole moment (field-independent basis, Debye-Ang):
   XX=            -23.8137   YY=            -22.5164   ZZ=            -25.0112
   XY=             -3.4317   XZ=              0.0263   YZ=              0.0019

 Normal termination of Gaussian 16 at Fri Sep 22 16:35:57 2023.
