 Gaussian 16, Revision A.03,
 Gaussian 16:  ES64L-G16RevA.03 25-Dec-2016

 ----------------------------------------------------------------------
 #p b3lyp/gen scrf=(cpcm,solvent=toluene) pop=hirshfeld empiricaldisper
 sion=gd3bj
 ----------------------------------------------------------------------

 ----------------------
 tmpdir/M2_conf_0_5.gjf
 ----------------------
 Symbolic Z-matrix:
 Charge =  0 Multiplicity = 1

                         Standard orientation:
 ---------------------------------------------------------------------
 Center     Atomic      Atomic             Coordinates (Angstroms)
 Number     Number       Type             X           Y           Z
 ---------------------------------------------------------------------
      1          6           0        0.816221   -0.749819   -0.010330
      2          6           0        0.042775    0.426313   -0.030223
      3          6           0       -1.387173    0.313748   -0.010919
      4          8           0        2.034831   -0.691086    0.023830
      5          1           0        0.321204   -1.716204   -0.014877
      6          8           0        0.615152    1.541721   -0.007426
      7          1           0       -1.973151    1.202351    0.201444
      8          8           0       -2.047356   -0.779085   -0.001121
 ---------------------------------------------------------------------

 SCF Done:  E(RB3LYP) =  -341.065810380     A.U. after   13 cycles

 The electronic state is 1-A.
 Alpha  occ. eigenvalues --  -19.18999 -19.18491 -19.16937 -10.31364 -10.31287
 Alpha  occ. eigenvalues --  -10.29581  -1.11609  -1.08086  -1.07265  -0.80458
 Alpha  occ. eigenvalues --   -0.69938  -0.57822  -0.55561  -0.51465  -0.49182
 Alpha  occ. eigenvalues --   -0.47486  -0.47019  -0.42284  -0.39438  -0.34868
 Alpha  occ. eigenvalues --   -0.32730  -0.28959
 Alpha virt. eigenvalues --   -0.17939  -0.08729   0.04936   0.07078   0.07844
 Alpha virt. eigenvalues --    0.12987   0.22841   0.24089   0.27432   0.31668
 Alpha virt. eigenvalues --    0.36015   0.39725   0.42797   0.47478   0.48728

 Mulliken charges:
               1
     1  C    0.289617
     2  C    0.135402
     3  C    0.306516
     4  O   -0.301328
     5  H    0.082450
     6  O   -0.285580
     7  H    0.110727
     8  O   -0.337803
 Sum of Mulliken charges =  -0.00000

 Dipole moment (field-independent basis, Debye):
    X=             -2.1874    Y=             -0.0426    Z=             -0.0135  Tot=              2.1879
 Quadrupole moment (field-independent basis, Debye-Ang):
   XX=            -42.9551   YY=            -36.0005   ZZ=            -31.0041
   XY=             -4.6127   XZ=             -0.2906   YZ=              0.1212

 Normal termination of Gaussian 16 at Fri Sep 22 16:33:35 2023.
