 Gaussian 16, Revision A.03,
 Gaussian 16:  ES64L-G16RevA.03 25-Dec-2016

 ----------------------------------------------------------------------
 #p b3lyp/gen scrf=(cpcm,solvent=toluene) pop=hirshfeld empiricaldisper
 sion=gd3bj
 ----------------------------------------------------------------------

 ------------------------
 tmpdir/M2_conf_0_385.gjf
 ------------------------
 Symbolic Z-matrix:
 Charge =  0 Multiplicity = 1

                         Standard orientation:
 ---------------------------------------------------------------------
 Center     Atomic      Atomic             Coordinates (Angstroms)
 Number     Number       Type             X           Y           Z
 ---------------------------------------------------------------------
      1          6           0       -1.422217   -0.465795   -0.004322
      2          6           0       -0.597599    0.636480    0.000496
      3          6           0        0.808567    0.474303   -0.005021
      4          1           0       -1.027900   -1.414505   -0.019045
      5          1           0       -2.502338   -0.348785    0.023536
      6          1           0       -1.024503    1.637349    0.014162
      7          8           0        1.296295   -0.637042    0.005539
      8          1           0        1.451868    1.352351   -0.009890
 ---------------------------------------------------------------------

 SCF Done:  E(RB3LYP) =  -191.883586596     A.U. after   11 cycles

 The electronic state is 1-A.
 Alpha  occ. eigenvalues --  -19.11972 -10.26392 -10.20809 -10.19619  -1.05781
 Alpha  occ. eigenvalues --   -0.80152  -0.67600  -0.55616  -0.52452  -0.46008
 Alpha  occ. eigenvalues --   -0.42949  -0.41283  -0.39692  -0.28939  -0.26928
 Alpha virt. eigenvalues --   -0.08895   0.05458   0.05643   0.08117   0.10789
 Alpha virt. eigenvalues --    0.13311   0.22041   0.25415   0.28896   0.40131
 Alpha virt. eigenvalues --    0.41746   0.45189   0.46142   0.48043   0.51680

 Mulliken charges:
               1
     1  C   -0.009548
     2  C   -0.273016
     3  C    0.301617
     4  H    0.091292
     5  H    0.120220
     6  H    0.088570
     7  O   -0.374916
     8  H    0.055782
 Sum of Mulliken charges =  -0.00000

 Dipole moment (field-independent basis, Debye):
    X=             -2.3356    Y=              1.9874    Z=             -0.0058  Tot=              3.0667
 Quadrupole moment (field-independent basis, Debye-Ang):
   XX=            -23.8857   YY=            -22.5340   ZZ=            -24.9912
   XY=              3.5040   XZ=             -0.0775   YZ=              0.0391

 Normal termination of Gaussian 16 at Fri Sep 22 16:37:01 2023.
