 Gaussian 16, Revision A.03,
 Gaussian 16:  ES64L-G16RevA.03 25-Dec-2016

 ----------------------------------------------------------------------
 #p b3lyp/gen scrf=(cpcm,solvent=toluene) pop=hirshfeld empiricaldisper
 sion=gd3bj
 ----------------------------------------------------------------------

 ------------------------
 tmpdir/M2_conf_0_345.gjf
 ------------------------
 Symbolic Z-matrix:
 Charge =  0 Multiplicity = 1

                         Standard orientation:
 ---------------------------------------------------------------------
 Center     Atomic      Atomic             Coordinates (Angstroms)
 Number     Number       Type             X           Y           Z
 ---------------------------------------------------------------------
      1          6           0        0.593943   -0.011036   -0.026150
      2          8           0       -0.727166   -0.006389    0.005679
      3          1           0        1.198316   -0.851017    0.060119
      4          1           0        1.055350    0.968349    0.051346
 ---------------------------------------------------------------------

 SCF Done:  E(RB3LYP) =  -114.468027652     A.U. after   10 cycles

 The electronic state is 1-A.
 Alpha  occ. eigenvalues --  -19.14616 -10.28617  -1.01363  -0.66503  -0.49939
 Alpha  occ. eigenvalues --   -0.44141  -0.37461  -0.27904
 Alpha virt. eigenvalues --   -0.08277   0.06181   0.11249   0.15900   0.40709
 Alpha virt. eigenvalues --    0.46197   0.50173   0.52050   0.60139   0.72122
 Alpha virt. eigenvalues --    0.81153   0.87033   0.96527   1.32453   1.47263

 Mulliken charges:
               1
     1  C    0.220596
     2  O   -0.423453
     3  H    0.101655
     4  H    0.101202
 Sum of Mulliken charges =   0.00000

 Dipole moment (field-independent basis, Debye):
    X=              3.1907    Y=             -0.0355    Z=              0.0311  Tot=              3.1911
 Quadrupole moment (field-independent basis, Debye-Ang):
   XX=            -11.7825   YY=            -11.5037   ZZ=            -11.7756
   XY=             -0.2007   XZ=              0.0628   YZ=              0.0111

 Normal termination of Gaussian 16 at Fri Sep 22 16:36:10 2023.
