 Gaussian 16, Revision A.03,
 Gaussian 16:  ES64L-G16RevA.03 25-Dec-2016

 ----------------------------------------------------------------------
 #p b3lyp/gen scrf=(cpcm,solvent=toluene) pop=hirshfeld empiricaldisper
 sion=gd3bj
 ----------------------------------------------------------------------

 -----------------------
 tmpdir/M2_conf_0_67.gjf
 -----------------------
 Symbolic Z-matrix:
 Charge =  0 Multiplicity = 1

                         Standard orientation:
 ---------------------------------------------------------------------
 Center     Atomic      Atomic             Coordinates (Angstroms)
 Number     Number       Type             X           Y           Z
 ---------------------------------------------------------------------
      1          6           0       -0.006588   -0.009275   -0.005318
      2          1           0       -0.049640    0.504019    0.966514
      3          1           0        0.825498   -0.752462    0.029501
      4          1           0       -0.996021   -0.451407   -0.218033
      5          1           0        0.259693    0.755499   -0.746076
 ---------------------------------------------------------------------

 SCF Done:  E(RB3LYP) =  -40.5131492043     A.U. after    7 cycles

 The electronic state is 1-A.
 Alpha  occ. eigenvalues --  -10.16597  -0.69149  -0.39922  -0.38833  -0.38677
 Alpha virt. eigenvalues --    0.05558   0.12278   0.12423   0.12542   0.36984
 Alpha virt. eigenvalues --    0.37250   0.38830   0.62808   0.63358   0.63695
 Alpha virt. eigenvalues --    0.66991   0.96084   1.28676   1.29368   1.82350

 Mulliken charges:
               1
     1  C   -0.359414
     2  H    0.084356
     3  H    0.092593
     4  H    0.096086
     5  H    0.086379
 Sum of Mulliken charges =  -0.00000

 Dipole moment (field-independent basis, Debye):
    X=              0.0185    Y=              0.0550    Z=              0.0217  Tot=              0.0619
 Quadrupole moment (field-independent basis, Debye-Ang):
   XX=             -8.2867   YY=             -8.5282   ZZ=             -8.6144
   XY=              0.0244   XZ=              0.0039   YZ=             -0.0043

 Normal termination of Gaussian 16 at Fri Sep 22 16:33:06 2023.
