 Gaussian 16, Revision A.03,
 Gaussian 16:  ES64L-G16RevA.03 25-Dec-2016

 ----------------------------------------------------------------------
 #p b3lyp/gen scrf=(cpcm,solvent=toluene) pop=hirshfeld empiricaldisper
 sion=gd3bj
 ----------------------------------------------------------------------

 ------------------------
 tmpdir/M2_conf_0_248.gjf
 ------------------------
 Symbolic Z-matrix:
 Charge =  0 Multiplicity = 1

                         Standard orientation:
 ---------------------------------------------------------------------
 Center     Atomic      Atomic             Coordinates (Angstroms)
 Number     Number       Type             X           Y           Z
 ---------------------------------------------------------------------
      1          6           0        1.226772   -0.470473   -0.010904
      2          6           0        0.565573    0.759173    0.001843
      3          6           0       -0.832335    0.485638    0.016842
      4          1           0        0.468836   -1.249732   -0.019147
      5          1           0        2.277704   -0.628132    0.095478
      6          1           0        0.978862    1.730112   -0.078575
      7          8           0       -0.982740   -0.715511   -0.008900
      8          1           0       -1.623545    1.225810    0.026754
 ---------------------------------------------------------------------

 SCF Done:  E(RB3LYP) =  -191.827791152     A.U. after   12 cycles

 The electronic state is 1-A.
 Alpha  occ. eigenvalues --  -19.11029 -10.26874 -10.18806 -10.18460  -1.07594
 Alpha  occ. eigenvalues --   -0.78591  -0.67002  -0.55338  -0.52660  -0.48031
 Alpha  occ. eigenvalues --   -0.42279  -0.41730  -0.36923  -0.27042  -0.25794
 Alpha virt. eigenvalues --   -0.08884   0.04777   0.06762   0.08689   0.10743
 Alpha virt. eigenvalues --    0.14166   0.21454   0.25934   0.27852   0.40414
 Alpha virt. eigenvalues --    0.40667   0.44974   0.46549   0.49578   0.51123

 Mulliken charges:
               1
     1  C   -0.023476
     2  C   -0.290032
     3  C    0.330707
     4  H    0.153326
     5  H    0.086238
     6  H    0.061785
     7  O   -0.400838
     8  H    0.082288
 Sum of Mulliken charges =  -0.00000

 Dipole moment (field-independent basis, Debye):
    X=              0.7870    Y=              2.1180    Z=              0.0324  Tot=              2.2597
 Quadrupole moment (field-independent basis, Debye-Ang):
   XX=            -23.5077   YY=            -22.7568   ZZ=            -24.9855
   XY=             -3.5950   XZ=              0.0176   YZ=             -0.1642

 Normal termination of Gaussian 16 at Fri Sep 22 16:35:48 2023.
