 Gaussian 16, Revision A.03,
 Gaussian 16:  ES64L-G16RevA.03 25-Dec-2016

 ----------------------------------------------------------------------
 #p b3lyp/gen scrf=(cpcm,solvent=toluene) pop=hirshfeld empiricaldisper
 sion=gd3bj
 ----------------------------------------------------------------------

 -----------------------
 tmpdir/M2_conf_0_68.gjf
 -----------------------
 Symbolic Z-matrix:
 Charge =  0 Multiplicity = 1

                         Standard orientation:
 ---------------------------------------------------------------------
 Center     Atomic      Atomic             Coordinates (Angstroms)
 Number     Number       Type             X           Y           Z
 ---------------------------------------------------------------------
      1          6           0       -0.006534   -0.009400   -0.005217
      2          1           0        0.257711    0.739063   -0.762296
      3          1           0        0.827205   -0.749792    0.045778
      4          1           0       -0.995024   -0.458314   -0.207857
      5          1           0       -0.050690    0.525440    0.955676
 ---------------------------------------------------------------------

 SCF Done:  E(RB3LYP) =  -40.5131476498     A.U. after    7 cycles

 The electronic state is 1-A.
 Alpha  occ. eigenvalues --  -10.16597  -0.69148  -0.39923  -0.38838  -0.38669
 Alpha virt. eigenvalues --    0.05558   0.12278   0.12419   0.12545   0.36987
 Alpha virt. eigenvalues --    0.37248   0.38829   0.62807   0.63347   0.63705
 Alpha virt. eigenvalues --    0.66987   0.96083   1.28676   1.29369   1.82350

 Mulliken charges:
               1
     1  C   -0.359433
     2  H    0.086329
     3  H    0.092602
     4  H    0.096084
     5  H    0.084419
 Sum of Mulliken charges =   0.00000

 Dipole moment (field-independent basis, Debye):
    X=              0.0184    Y=              0.0555    Z=              0.0198  Tot=              0.0617
 Quadrupole moment (field-independent basis, Debye-Ang):
   XX=             -8.2870   YY=             -8.5284   ZZ=             -8.6142
   XY=              0.0248   XZ=              0.0032   YZ=             -0.0060

 Normal termination of Gaussian 16 at Fri Sep 22 16:33:09 2023.
