 Gaussian 16, Revision A.03,
 Gaussian 16:  ES64L-G16RevA.03 25-Dec-2016

 ----------------------------------------------------------------------
 #p b3lyp/gen scrf=(cpcm,solvent=toluene) pop=hirshfeld empiricaldisper
 sion=gd3bj
 ----------------------------------------------------------------------

 ------------------------
 tmpdir/M2_conf_0_308.gjf
 ------------------------
 Symbolic Z-matrix:
 Charge =  0 Multiplicity = 1

                         Standard orientation:
 ---------------------------------------------------------------------
 Center     Atomic      Atomic             Coordinates (Angstroms)
 Number     Number       Type             X           Y           Z
 ---------------------------------------------------------------------
      1          6           0        0.823139    0.469051   -0.003292
      2          6           0       -0.584554    0.668124   -0.002572
      3          6           0       -1.449262   -0.471948   -0.003149
      4          8           0        1.284633   -0.651081    0.003820
      5          1           0        1.476357    1.338761   -0.001019
      6          1           0       -0.994262    1.605244    0.013697
      7          1           0       -2.465214   -0.317234    0.023079
      8          1           0       -1.029892   -1.409480   -0.012243
 ---------------------------------------------------------------------

 SCF Done:  E(RB3LYP) =  -191.871912589     A.U. after   11 cycles

 The electronic state is 1-A.
 Alpha  occ. eigenvalues --  -19.11905 -10.26361 -10.20968 -10.19576  -1.05795
 Alpha  occ. eigenvalues --   -0.79558  -0.67898  -0.56113  -0.52956  -0.45866
 Alpha  occ. eigenvalues --   -0.43062  -0.41151  -0.40673  -0.28271  -0.26885
 Alpha virt. eigenvalues --   -0.09332   0.04902   0.06411   0.08281   0.11075
 Alpha virt. eigenvalues --    0.13571   0.21788   0.24410   0.28919   0.40430
 Alpha virt. eigenvalues --    0.41967   0.46322   0.46808   0.48227   0.51473

 Mulliken charges:
               1
     1  C    0.301103
     2  C   -0.251660
     3  C    0.014554
     4  O   -0.374643
     5  H    0.055505
     6  H    0.056725
     7  H    0.102227
     8  H    0.096189
 Sum of Mulliken charges =  -0.00000

 Dipole moment (field-independent basis, Debye):
    X=             -2.3397    Y=              2.0220    Z=              0.0120  Tot=              3.0924
 Quadrupole moment (field-independent basis, Debye-Ang):
   XX=            -23.6959   YY=            -22.5530   ZZ=            -25.0144
   XY=              3.4542   XZ=             -0.0767   YZ=              0.0371

 Normal termination of Gaussian 16 at Fri Sep 22 16:36:09 2023.
