 Gaussian 16, Revision A.03,
 Gaussian 16:  ES64L-G16RevA.03 25-Dec-2016

 ----------------------------------------------------------------------
 #p b3lyp/gen scrf=(cpcm,solvent=toluene) pop=hirshfeld empiricaldisper
 sion=gd3bj
 ----------------------------------------------------------------------

 ------------------------
 tmpdir/M2_conf_0_357.gjf
 ------------------------
 Symbolic Z-matrix:
 Charge =  0 Multiplicity = 1

                         Standard orientation:
 ---------------------------------------------------------------------
 Center     Atomic      Atomic             Coordinates (Angstroms)
 Number     Number       Type             X           Y           Z
 ---------------------------------------------------------------------
      1          6           0        1.253579   -0.223683   -0.002768
      2          6           0        0.134240    0.513893   -0.001655
      3          6           0       -1.199463   -0.183869    0.000610
      4          1           0        2.271890    0.132938    0.015078
      5          1           0        1.166391   -1.311595   -0.000830
      6          1           0        0.101785    1.602611   -0.001018
      7          1           0       -1.793324    0.101174   -0.880218
      8          1           0       -1.090506   -1.273923    0.006427
      9          1           0       -1.786373    0.110752    0.883439
 ---------------------------------------------------------------------

 SCF Done:  E(RB3LYP) =  -117.896163418     A.U. after   10 cycles

 The electronic state is 1-A.
 Alpha  occ. eigenvalues --  -10.18504 -10.17255 -10.17013  -0.79167  -0.68271
 Alpha  occ. eigenvalues --   -0.56196  -0.47255  -0.42029  -0.41344  -0.37440
 Alpha  occ. eigenvalues --   -0.35121  -0.26226
 Alpha virt. eigenvalues --    0.00557   0.05912   0.07854   0.09229   0.11887
 Alpha virt. eigenvalues --    0.12428   0.14647   0.22403   0.31885   0.36699
 Alpha virt. eigenvalues --    0.40171   0.40570   0.48070   0.49059   0.53509

 Mulliken charges:
               1
     1  C   -0.132419
     2  C   -0.246565
     3  C   -0.166148
     4  H    0.091604
     5  H    0.087041
     6  H    0.077204
     7  H    0.100908
     8  H    0.087554
     9  H    0.100822
 Sum of Mulliken charges =  -0.00000

 Dipole moment (field-independent basis, Debye):
    X=             -0.4356    Y=              0.0762    Z=              0.0204  Tot=              0.4427
 Quadrupole moment (field-independent basis, Debye-Ang):
   XX=            -19.4900   YY=            -19.0685   ZZ=            -22.0829
   XY=             -0.3936   XZ=              0.0399   YZ=              0.0035

 Normal termination of Gaussian 16 at Fri Sep 22 16:36:52 2023.
