 Gaussian 16, Revision A.03,
 Gaussian 16:  ES64L-G16RevA.03 25-Dec-2016

 ----------------------------------------------------------------------
 #p b3lyp/gen scrf=(cpcm,solvent=toluene) pop=hirshfeld empiricaldisper
 sion=gd3bj
 ----------------------------------------------------------------------

 ------------------------
 tmpdir/M2_conf_0_238.gjf
 ------------------------
 Symbolic Z-matrix:
 Charge =  0 Multiplicity = 1

                         Standard orientation:
 ---------------------------------------------------------------------
 Center     Atomic      Atomic             Coordinates (Angstroms)
 Number     Number       Type             X           Y           Z
 ---------------------------------------------------------------------
      1          7           0       -1.074604   -0.223396   -0.022848
      2          6           0        0.043471    0.590412    0.001485
      3          6           0        1.169187   -0.235498    0.000370
      4          1           0       -0.791478   -1.162968   -0.036782
      5          1           0       -2.023055    0.116443    0.200699
      6          1           0        0.038515    1.654496   -0.089760
      7          1           0        0.836011   -1.210878   -0.031343
      8          1           0        2.186285    0.037190    0.105991
 ---------------------------------------------------------------------

 SCF Done:  E(RB3LYP) =  -133.901137768     A.U. after   11 cycles

 The electronic state is 1-A.
 Alpha  occ. eigenvalues --  -14.31491 -10.21519 -10.14082  -0.91763  -0.71558
 Alpha  occ. eigenvalues --   -0.60179  -0.53412  -0.46503  -0.40197  -0.39164
 Alpha  occ. eigenvalues --   -0.34393  -0.19263
 Alpha virt. eigenvalues --    0.01502   0.05355   0.07414   0.09602   0.12351
 Alpha virt. eigenvalues --    0.17775   0.24650   0.26256   0.41169   0.44306
 Alpha virt. eigenvalues --    0.45686   0.50087   0.51423   0.53032   0.56336

 Mulliken charges:
               1
     1  N   -0.355591
     2  C    0.001200
     3  C   -0.211967
     4  H    0.166325
     5  H    0.192864
     6  H    0.088820
     7  H    0.040462
     8  H    0.077886
 Sum of Mulliken charges =  -0.00000

 Dipole moment (field-independent basis, Debye):
    X=             -1.8157    Y=              0.2333    Z=              0.4020  Tot=              1.8742
 Quadrupole moment (field-independent basis, Debye-Ang):
   XX=            -17.2860   YY=            -16.3395   ZZ=            -22.8848
   XY=              0.1698   XZ=             -0.6475   YZ=              0.0376

 Normal termination of Gaussian 16 at Fri Sep 22 16:35:15 2023.
