 Gaussian 16, Revision A.03,
 Gaussian 16:  ES64L-G16RevA.03 25-Dec-2016

 ----------------------------------------------------------------------
 #p b3lyp/gen scrf=(cpcm,solvent=toluene) pop=hirshfeld empiricaldisper
 sion=gd3bj
 ----------------------------------------------------------------------

 ------------------------
 tmpdir/M2_conf_0_252.gjf
 ------------------------
 Symbolic Z-matrix:
 Charge =  0 Multiplicity = 1

                         Standard orientation:
 ---------------------------------------------------------------------
 Center     Atomic      Atomic             Coordinates (Angstroms)
 Number     Number       Type             X           Y           Z
 ---------------------------------------------------------------------
      1          6           0        1.213276   -0.480863    0.011991
      2          6           0        0.579293    0.737237   -0.010961
      3          6           0       -0.826959    0.509996   -0.006001
      4          1           0        0.435365   -1.260984    0.008333
      5          1           0        2.279713   -0.657323    0.000539
      6          1           0        1.063557    1.706494   -0.010221
      7          8           0       -1.002955   -0.708258   -0.005650
      8          1           0       -1.548648    1.279650    0.076377
 ---------------------------------------------------------------------

 SCF Done:  E(RB3LYP) =  -191.830255999     A.U. after   12 cycles

 The electronic state is 1-A.
 Alpha  occ. eigenvalues --  -19.11241 -10.27104 -10.18603 -10.18364  -1.06712
 Alpha  occ. eigenvalues --   -0.78790  -0.67316  -0.55252  -0.52414  -0.48003
 Alpha  occ. eigenvalues --   -0.42118  -0.41515  -0.36351  -0.27295  -0.25868
 Alpha virt. eigenvalues --   -0.08989   0.04831   0.06679   0.08557   0.10822
 Alpha virt. eigenvalues --    0.14061   0.20833   0.26374   0.28196   0.40366
 Alpha virt. eigenvalues --    0.40835   0.43854   0.46414   0.49708   0.50704

 Mulliken charges:
               1
     1  C   -0.033610
     2  C   -0.307800
     3  C    0.358378
     4  H    0.158241
     5  H    0.087931
     6  H    0.071849
     7  O   -0.416571
     8  H    0.081581
 Sum of Mulliken charges =  -0.00000

 Dipole moment (field-independent basis, Debye):
    X=              0.8451    Y=              2.2160    Z=              0.0343  Tot=              2.3719
 Quadrupole moment (field-independent basis, Debye-Ang):
   XX=            -23.6670   YY=            -22.6230   ZZ=            -25.0049
   XY=             -3.6402   XZ=             -0.0585   YZ=              0.0482

 Normal termination of Gaussian 16 at Fri Sep 22 16:34:56 2023.
