 Gaussian 16, Revision A.03,
 Gaussian 16:  ES64L-G16RevA.03 25-Dec-2016

 ----------------------------------------------------------------------
 #p b3lyp/gen scrf=(cpcm,solvent=toluene) pop=hirshfeld empiricaldisper
 sion=gd3bj
 ----------------------------------------------------------------------

 ------------------------
 tmpdir/M2_conf_0_398.gjf
 ------------------------
 Symbolic Z-matrix:
 Charge = -1 Multiplicity = 1

                         Standard orientation:
 ---------------------------------------------------------------------
 Center     Atomic      Atomic             Coordinates (Angstroms)
 Number     Number       Type             X           Y           Z
 ---------------------------------------------------------------------
      1         17           0        0.000000    0.276120    0.000000
      2          1           0        0.086934   -2.001021   -0.000000
      3          1           0       -0.086934   -2.693018    0.000000
 ---------------------------------------------------------------------

 SCF Done:  E(RB3LYP) =  -461.508869047     A.U. after    9 cycles

 The electronic state is 1-A'.
 Alpha  occ. eigenvalues -- -101.30721  -9.24197  -7.00463  -7.00453  -7.00447
 Alpha  occ. eigenvalues --   -0.59301  -0.34430  -0.14452  -0.14442  -0.14016
 Alpha virt. eigenvalues --    0.17779   0.38448   0.50461   0.50515   0.52096
 Alpha virt. eigenvalues --    0.71560   0.85536   0.92240   0.92374   0.92415
 Alpha virt. eigenvalues --    0.92424   0.97356   1.60105   1.61110   2.28828

 Mulliken charges:
               1
     1  Cl  -0.950614
     2  H    0.075324
     3  H   -0.124710
 Sum of Mulliken charges =  -1.00000

 Dipole moment (field-independent basis, Debye):
    X=              0.0488    Y=             -0.5777    Z=             -0.0000  Tot=              0.5798
 Quadrupole moment (field-independent basis, Debye-Ang):
   XX=            -18.1651   YY=            -21.0230   ZZ=            -18.1900
   XY=             -0.0795   XZ=              0.0000   YZ=              0.0000

 Normal termination of Gaussian 16 at Fri Sep 22 16:36:35 2023.
