 Gaussian 16, Revision A.03,
 Gaussian 16:  ES64L-G16RevA.03 25-Dec-2016

 ----------------------------------------------------------------------
 #p b3lyp/gen scrf=(cpcm,solvent=toluene) pop=hirshfeld empiricaldisper
 sion=gd3bj
 ----------------------------------------------------------------------

 ----------------------
 tmpdir/M2_conf_0_4.gjf
 ----------------------
 Symbolic Z-matrix:
 Charge =  0 Multiplicity = 1

                         Standard orientation:
 ---------------------------------------------------------------------
 Center     Atomic      Atomic             Coordinates (Angstroms)
 Number     Number       Type             X           Y           Z
 ---------------------------------------------------------------------
      1          6           0        1.834927    0.140115   -0.002813
      2          6           0        0.542788   -0.454046   -0.004860
      3          6           0       -0.651457    0.340420   -0.024506
      4          1           0        2.656694   -0.451596    0.043784
      5          1           0        1.858223    1.236694   -0.051427
      6          1           0        0.456911   -1.467933    0.051843
      7          1           0       -0.564292    1.409503    0.141517
      8          8           0       -1.845635   -0.110700    0.000920
 ---------------------------------------------------------------------

 SCF Done:  E(RB3LYP) =  -191.872650121     A.U. after   11 cycles

 The electronic state is 1-A.
 Alpha  occ. eigenvalues --  -19.12427 -10.27231 -10.22559 -10.20848  -1.02397
 Alpha  occ. eigenvalues --   -0.80950  -0.67362  -0.59003  -0.49575  -0.47874
 Alpha  occ. eigenvalues --   -0.42542  -0.41250  -0.39314  -0.29366  -0.26851
 Alpha virt. eigenvalues --   -0.09795   0.02585   0.05902   0.07216   0.10506
 Alpha virt. eigenvalues --    0.13052   0.20911   0.23478   0.28394   0.39804
 Alpha virt. eigenvalues --    0.42531   0.43535   0.46776   0.48529   0.50393

 Mulliken charges:
               1
     1  C   -0.025744
     2  C   -0.186335
     3  C    0.276561
     4  H    0.100968
     5  H    0.126904
     6  H    0.067362
     7  H    0.061322
     8  O   -0.421039
 Sum of Mulliken charges =  -0.00000

 Dipole moment (field-independent basis, Debye):
    X=              4.3053    Y=              0.8108    Z=              0.0781  Tot=              4.3817
 Quadrupole moment (field-independent basis, Debye-Ang):
   XX=            -27.6860   YY=            -21.6712   ZZ=            -25.2391
   XY=             -1.0200   XZ=              0.0495   YZ=             -0.1006

 Normal termination of Gaussian 16 at Fri Sep 22 16:33:16 2023.
