 Gaussian 16, Revision A.03,
 Gaussian 16:  ES64L-G16RevA.03 25-Dec-2016

 ----------------------------------------------------------------------
 #p b3lyp/gen scrf=(cpcm,solvent=toluene) pop=hirshfeld empiricaldisper
 sion=gd3bj
 ----------------------------------------------------------------------

 -----------------------
 tmpdir/M2_conf_0_14.gjf
 -----------------------
 Symbolic Z-matrix:
 Charge =  0 Multiplicity = 1

                         Standard orientation:
 ---------------------------------------------------------------------
 Center     Atomic      Atomic             Coordinates (Angstroms)
 Number     Number       Type             X           Y           Z
 ---------------------------------------------------------------------
      1          6           0       -0.688653    0.519935    0.001393
      2          6           0        0.711679    0.506761   -0.002727
      3          1           0        1.240389    1.453989   -0.004839
      4          8           0       -1.316732   -0.565317   -0.001452
      5          1           0       -1.303544    1.429464    0.009143
      6          8           0        1.307357   -0.565137    0.001914
 ---------------------------------------------------------------------

 SCF Done:  E(RB3LYP) =  -227.773089861     A.U. after   11 cycles

 The electronic state is 1-A.
 Alpha  occ. eigenvalues --  -19.16388 -19.16104 -10.29160 -10.29040  -1.09732
 Alpha  occ. eigenvalues --   -1.05511  -0.75853  -0.58120  -0.55890  -0.48233
 Alpha  occ. eigenvalues --   -0.45842  -0.45160  -0.38390  -0.31348  -0.29056
 Alpha virt. eigenvalues --   -0.14277   0.02240   0.05634   0.08921   0.14592
 Alpha virt. eigenvalues --    0.25821   0.32107   0.37661   0.37907   0.44758
 Alpha virt. eigenvalues --    0.48953   0.57361   0.57757   0.61278   0.65915

 Mulliken charges:
               1
     1  C    0.220154
     2  C    0.255363
     3  H    0.074238
     4  O   -0.327629
     5  H    0.084369
     6  O   -0.306495
 Sum of Mulliken charges =  -0.00000

 Dipole moment (field-independent basis, Debye):
    X=              0.0748    Y=              4.3476    Z=             -0.0009  Tot=              4.3482
 Quadrupole moment (field-independent basis, Debye-Ang):
   XX=            -26.4701   YY=            -21.5776   ZZ=            -21.2945
   XY=             -0.1128   XZ=             -0.0173   YZ=              0.0017

 Normal termination of Gaussian 16 at Fri Sep 22 16:33:14 2023.
