 Gaussian 16, Revision A.03,
 Gaussian 16:  ES64L-G16RevA.03 25-Dec-2016

 ----------------------------------------------------------------------
 #p b3lyp/gen scrf=(cpcm,solvent=toluene) pop=hirshfeld empiricaldisper
 sion=gd3bj
 ----------------------------------------------------------------------

 ------------------------
 tmpdir/M2_conf_0_343.gjf
 ------------------------
 Symbolic Z-matrix:
 Charge =  0 Multiplicity = 1

                         Standard orientation:
 ---------------------------------------------------------------------
 Center     Atomic      Atomic             Coordinates (Angstroms)
 Number     Number       Type             X           Y           Z
 ---------------------------------------------------------------------
      1          7           0        0.736333   -0.005629   -0.037091
      2          6           0       -0.736811   -0.013924    0.009367
      3          1           0       -1.042605    1.022536   -0.164318
      4          1           0        1.263278    0.800985    0.060432
      5          1           0        1.317201   -0.788312    0.077588
      6          1           0       -1.213499   -0.610500   -0.807892
      7          1           0       -1.057844   -0.301763    1.037625
 ---------------------------------------------------------------------

 SCF Done:  E(RB3LYP) =  -95.8331572911     A.U. after    9 cycles

 The electronic state is 1-A.
 Alpha  occ. eigenvalues --  -14.27173 -10.19999  -0.85957  -0.66488  -0.48733
 Alpha  occ. eigenvalues --   -0.43550  -0.41848  -0.36893  -0.21150
 Alpha virt. eigenvalues --    0.05403   0.08004   0.10003   0.12188   0.15569
 Alpha virt. eigenvalues --    0.19997   0.38775   0.44501   0.46446   0.58722
 Alpha virt. eigenvalues --    0.61004   0.64142   0.65783   0.67131   0.71830

 Mulliken charges:
               1
     1  N   -0.516451
     2  C   -0.023823
     3  H    0.081654
     4  H    0.141028
     5  H    0.145085
     6  H    0.091773
     7  H    0.080734
 Sum of Mulliken charges =  -0.00000

 Dipole moment (field-independent basis, Debye):
    X=              0.1254    Y=              0.1579    Z=              0.3912  Tot=              0.4401
 Quadrupole moment (field-independent basis, Debye-Ang):
   XX=            -12.5126   YY=            -12.7066   ZZ=            -15.5059
   XY=             -0.1300   XZ=              0.7773   YZ=             -0.0024

 Normal termination of Gaussian 16 at Fri Sep 22 16:36:02 2023.
