 Gaussian 16, Revision A.03,
 Gaussian 16:  ES64L-G16RevA.03 25-Dec-2016

 ----------------------------------------------------------------------
 #p b3lyp/gen scrf=(cpcm,solvent=toluene) pop=hirshfeld empiricaldisper
 sion=gd3bj
 ----------------------------------------------------------------------

 ------------------------
 tmpdir/M2_conf_0_330.gjf
 ------------------------
 Symbolic Z-matrix:
 Charge =  0 Multiplicity = 1

                         Standard orientation:
 ---------------------------------------------------------------------
 Center     Atomic      Atomic             Coordinates (Angstroms)
 Number     Number       Type             X           Y           Z
 ---------------------------------------------------------------------
      1          6           0        0.801894    0.510859    0.002239
      2          6           0       -0.611386    0.635539   -0.007239
      3          6           0       -1.415615   -0.480921    0.003059
      4          8           0        1.308570   -0.644403   -0.003049
      5          1           0        1.431772    1.322783    0.030903
      6          1           0       -1.048810    1.631177   -0.010840
      7          1           0       -1.002435   -1.420266    0.003251
      8          1           0       -2.498442   -0.371333    0.012723
 ---------------------------------------------------------------------

 SCF Done:  E(RB3LYP) =  -191.877580341     A.U. after   11 cycles

 The electronic state is 1-A.
 Alpha  occ. eigenvalues --  -19.11790 -10.26335 -10.20940 -10.19885  -1.03182
 Alpha  occ. eigenvalues --   -0.80177  -0.68146  -0.56594  -0.52416  -0.45577
 Alpha  occ. eigenvalues --   -0.43007  -0.39993  -0.39403  -0.28764  -0.26866
 Alpha virt. eigenvalues --   -0.09460   0.04691   0.05714   0.08327   0.10871
 Alpha virt. eigenvalues --    0.13318   0.21255   0.25365   0.28558   0.40332
 Alpha virt. eigenvalues --    0.41677   0.45530   0.46276   0.47937   0.51699

 Mulliken charges:
               1
     1  C    0.339484
     2  C   -0.274412
     3  C    0.000765
     4  O   -0.416535
     5  H    0.048048
     6  H    0.089150
     7  H    0.091999
     8  H    0.121500
 Sum of Mulliken charges =  -0.00000

 Dipole moment (field-independent basis, Debye):
    X=             -2.4307    Y=              2.2020    Z=              0.0321  Tot=              3.2799
 Quadrupole moment (field-independent basis, Debye-Ang):
   XX=            -23.9302   YY=            -22.3107   ZZ=            -25.0263
   XY=              3.8305   XZ=              0.0035   YZ=             -0.0072

 Normal termination of Gaussian 16 at Fri Sep 22 16:36:27 2023.
