 Gaussian 16, Revision A.03,
 Gaussian 16:  ES64L-G16RevA.03 25-Dec-2016

 ----------------------------------------------------------------------
 #p b3lyp/gen scrf=(cpcm,solvent=toluene) pop=hirshfeld empiricaldisper
 sion=gd3bj
 ----------------------------------------------------------------------

 ------------------------
 tmpdir/M2_conf_0_191.gjf
 ------------------------
 Symbolic Z-matrix:
 Charge =  0 Multiplicity = 1

                         Standard orientation:
 ---------------------------------------------------------------------
 Center     Atomic      Atomic             Coordinates (Angstroms)
 Number     Number       Type             X           Y           Z
 ---------------------------------------------------------------------
      1          6           0       -1.240468   -0.237324   -0.000527
      2          7           0        0.011028    0.586191    0.013043
      3          6           0        1.230231   -0.245023   -0.004345
      4          1           0       -0.829610   -1.286544   -0.026959
      5          1           0       -1.804775   -0.066776    0.938923
      6          1           0       -1.827488   -0.027335   -0.915512
      7          1           0       -0.032136    1.517652   -0.028830
      8          1           0        0.872346   -1.199722   -0.428023
      9          1           0        1.607851   -0.377534    1.017912
     10          1           0        1.998037    0.231006   -0.619587
 ---------------------------------------------------------------------

 SCF Done:  E(RB3LYP) =  -135.120515062     A.U. after   10 cycles

 The electronic state is 1-A.
 Alpha  occ. eigenvalues --  -14.27104 -10.19592 -10.19253  -0.87762  -0.68793
 Alpha  occ. eigenvalues --   -0.64081  -0.48711  -0.43485  -0.40915  -0.39483
 Alpha  occ. eigenvalues --   -0.38946  -0.35530  -0.19222
 Alpha virt. eigenvalues --    0.05016   0.08662   0.09145   0.09912   0.11813
 Alpha virt. eigenvalues --    0.13014   0.15315   0.18487   0.22948   0.38866
 Alpha virt. eigenvalues --    0.39993   0.43867   0.47461   0.47990   0.54074

 Mulliken charges:
               1
     1  C   -0.024354
     2  N   -0.582268
     3  C    0.005527
     4  H    0.074941
     5  H    0.086965
     6  H    0.085091
     7  H    0.117392
     8  H    0.079465
     9  H    0.074287
    10  H    0.082953
 Sum of Mulliken charges =  -0.00000

 Dipole moment (field-independent basis, Debye):
    X=             -0.0123    Y=              0.0006    Z=             -0.1862  Tot=              0.1867
 Quadrupole moment (field-independent basis, Debye-Ang):
   XX=            -20.5462   YY=            -19.2364   ZZ=            -21.9948
   XY=              0.0032   XZ=             -0.0858   YZ=             -0.0895

 Normal termination of Gaussian 16 at Fri Sep 22 16:34:27 2023.
