 Gaussian 16, Revision A.03,
 Gaussian 16:  ES64L-G16RevA.03 25-Dec-2016

 ----------------------------------------------------------------------
 #p b3lyp/gen scrf=(cpcm,solvent=toluene) pop=hirshfeld empiricaldisper
 sion=gd3bj
 ----------------------------------------------------------------------

 ------------------------
 tmpdir/M2_conf_0_214.gjf
 ------------------------
 Symbolic Z-matrix:
 Charge =  0 Multiplicity = 1

                         Standard orientation:
 ---------------------------------------------------------------------
 Center     Atomic      Atomic             Coordinates (Angstroms)
 Number     Number       Type             X           Y           Z
 ---------------------------------------------------------------------
      1          6           0       -0.713313   -0.013234   -0.007686
      2          6           0        0.710318   -0.007852    0.005235
      3          1           0        1.251718    0.933270   -0.051167
      4          1           0       -1.273642    0.939508    0.057259
      5          1           0       -1.187995   -0.889712   -0.029465
      6          1           0        1.227893   -0.856544    0.038085
 ---------------------------------------------------------------------

 SCF Done:  E(RB3LYP) =  -78.5598446127     A.U. after    9 cycles

 The electronic state is 1-A.
 Alpha  occ. eigenvalues --  -10.18573 -10.18335  -0.75436  -0.60266  -0.47939
 Alpha  occ. eigenvalues --   -0.41214  -0.38277  -0.26725
 Alpha virt. eigenvalues --   -0.02209   0.06559   0.09854   0.10095   0.15961
 Alpha virt. eigenvalues --    0.26396   0.36507   0.41468   0.44060   0.50773
 Alpha virt. eigenvalues --    0.52332   0.53341   0.64692   0.64959   0.70334

 Mulliken charges:
               1
     1  C   -0.184470
     2  C   -0.181039
     3  H    0.105098
     4  H    0.113089
     5  H    0.074254
     6  H    0.073068
 Sum of Mulliken charges =   0.00000

 Dipole moment (field-independent basis, Debye):
    X=              0.0153    Y=             -0.0357    Z=              0.0163  Tot=              0.0422
 Quadrupole moment (field-independent basis, Debye-Ang):
   XX=            -12.2737   YY=            -12.3184   ZZ=            -15.7495
   XY=             -0.0530   XZ=             -0.0587   YZ=              0.0015

 Normal termination of Gaussian 16 at Fri Sep 22 16:35:08 2023.
