 Gaussian 16, Revision A.03,
 Gaussian 16:  ES64L-G16RevA.03 25-Dec-2016

 ----------------------------------------------------------------------
 #p b3lyp/gen scrf=(cpcm,solvent=toluene) pop=hirshfeld empiricaldisper
 sion=gd3bj
 ----------------------------------------------------------------------

 ---------------------
 tmpdir/M2_ref_313.gjf
 ---------------------
 Symbolic Z-matrix:
 Charge =  0 Multiplicity = 1

                         Standard orientation:
 ---------------------------------------------------------------------
 Center     Atomic      Atomic             Coordinates (Angstroms)
 Number     Number       Type             X           Y           Z
 ---------------------------------------------------------------------
      1          6           0       -0.700585    0.531889   -0.006260
      2          6           0        0.718998    0.492469    0.001264
      3          1           0        1.269269    1.430290    0.018378
      4          8           0       -1.333404   -0.559391    0.003541
      5          1           0       -1.232145    1.410703   -0.001840
      6          8           0        1.314954   -0.564002   -0.001862
 ---------------------------------------------------------------------

 SCF Done:  E(RB3LYP) =  -227.772037224     A.U. after   11 cycles

 The electronic state is 1-A.
 Alpha  occ. eigenvalues --  -19.16194 -19.16148 -10.28945 -10.28755  -1.09877
 Alpha  occ. eigenvalues --   -1.05465  -0.75613  -0.59078  -0.56031  -0.48148
 Alpha  occ. eigenvalues --   -0.45713  -0.45488  -0.38495  -0.31540  -0.28848
 Alpha virt. eigenvalues --   -0.14014   0.02058   0.06009   0.09474   0.14598
 Alpha virt. eigenvalues --    0.25947   0.31483   0.38122   0.39291   0.44758
 Alpha virt. eigenvalues --    0.49689   0.56630   0.57602   0.62149   0.67105

 Mulliken charges:
               1
     1  C    0.270123
     2  C    0.237045
     3  H    0.068580
     4  O   -0.336779
     5  H    0.060628
     6  O   -0.299598
 Sum of Mulliken charges =  -0.00000

 Dipole moment (field-independent basis, Debye):
    X=              0.0595    Y=              4.3743    Z=             -0.0046  Tot=              4.3747
 Quadrupole moment (field-independent basis, Debye-Ang):
   XX=            -26.5734   YY=            -21.5130   ZZ=            -21.2230
   XY=             -0.2224   XZ=              0.0246   YZ=              0.0032

 Normal termination of Gaussian 16 at Fri Sep 22 16:31:46 2023.
