 Gaussian 16, Revision A.03,
 Gaussian 16:  ES64L-G16RevA.03 25-Dec-2016

 ----------------------------------------------------------------------
 #p b3lyp/gen scrf=(cpcm,solvent=toluene) pop=hirshfeld empiricaldisper
 sion=gd3bj
 ----------------------------------------------------------------------

 ---------------------
 tmpdir/M2_ref_380.gjf
 ---------------------
 Symbolic Z-matrix:
 Charge =  0 Multiplicity = 1

                         Standard orientation:
 ---------------------------------------------------------------------
 Center     Atomic      Atomic             Coordinates (Angstroms)
 Number     Number       Type             X           Y           Z
 ---------------------------------------------------------------------
      1          6           0       -0.583866   -0.376455    0.016625
      2          6           0        0.613724    0.385524    0.009714
      3          1           0        0.544046    1.469599    0.042256
      4          1           0       -0.521480   -1.409853    0.033619
      5          8           0       -1.721017    0.149246   -0.015134
      6          8           0        1.695803   -0.163516   -0.014105
 ---------------------------------------------------------------------

 SCF Done:  E(RB3LYP) =  -227.782234135     A.U. after   11 cycles

 The electronic state is 1-A.
 Alpha  occ. eigenvalues --  -19.16886 -19.16762 -10.29323 -10.29020  -1.10048
 Alpha  occ. eigenvalues --   -1.07081  -0.74898  -0.62166  -0.52208  -0.50259
 Alpha  occ. eigenvalues --   -0.46225  -0.45873  -0.39518  -0.33004  -0.28824
 Alpha virt. eigenvalues --   -0.13769   0.01469   0.06883   0.09047   0.15103
 Alpha virt. eigenvalues --    0.24341   0.31809   0.38037   0.40792   0.44509
 Alpha virt. eigenvalues --    0.47356   0.57658   0.58767   0.62127   0.67281

 Mulliken charges:
               1
     1  C    0.265190
     2  C    0.239989
     3  H    0.083358
     4  H    0.071070
     5  O   -0.344911
     6  O   -0.314697
 Sum of Mulliken charges =  -0.00000

 Dipole moment (field-independent basis, Debye):
    X=              0.1994    Y=             -0.0050    Z=              0.1229  Tot=              0.2343
 Quadrupole moment (field-independent basis, Debye-Ang):
   XX=            -32.3269   YY=            -20.5020   ZZ=            -21.2125
   XY=              2.3383   XZ=             -0.0046   YZ=              0.0055

 Normal termination of Gaussian 16 at Fri Sep 22 16:31:17 2023.
