 Gaussian 16, Revision A.03,
 Gaussian 16:  ES64L-G16RevA.03 25-Dec-2016

 ----------------------------------------------------------------------
 #p b3lyp/gen scrf=(cpcm,solvent=toluene) pop=hirshfeld empiricaldisper
 sion=gd3bj
 ----------------------------------------------------------------------

 ---------------------
 tmpdir/M2_ref_295.gjf
 ---------------------
 Symbolic Z-matrix:
 Charge =  0 Multiplicity = 1

                         Standard orientation:
 ---------------------------------------------------------------------
 Center     Atomic      Atomic             Coordinates (Angstroms)
 Number     Number       Type             X           Y           Z
 ---------------------------------------------------------------------
      1          6           0        0.541533   -0.011393   -0.001433
      2          1           0        1.089534    0.924578    0.002860
      3          8           0       -0.676080    0.003885    0.000329
      4          1           0        1.069909   -0.887298    0.003102
 ---------------------------------------------------------------------

 SCF Done:  E(RB3LYP) =  -114.483229925     A.U. after    9 cycles

 The electronic state is 1-A.
 Alpha  occ. eigenvalues --  -19.13944 -10.27085  -1.06229  -0.65263  -0.51080
 Alpha  occ. eigenvalues --   -0.45486  -0.40206  -0.27482
 Alpha virt. eigenvalues --   -0.05419   0.06591   0.11942   0.18045   0.40340
 Alpha virt. eigenvalues --    0.48246   0.52321   0.60369   0.62571   0.72728
 Alpha virt. eigenvalues --    0.78172   0.87627   0.97887   1.32264   1.50175

 Mulliken charges:
               1
     1  C    0.225256
     2  H    0.075484
     3  O   -0.367065
     4  H    0.066325
 Sum of Mulliken charges =  -0.00000

 Dipole moment (field-independent basis, Debye):
    X=              2.7758    Y=             -0.0888    Z=              0.0006  Tot=              2.7772
 Quadrupole moment (field-independent basis, Debye-Ang):
   XX=            -12.0202   YY=            -11.5127   ZZ=            -11.5058
   XY=             -0.0794   XZ=              0.0029   YZ=              0.0003

 Normal termination of Gaussian 16 at Fri Sep 22 16:31:21 2023.
