 Gaussian 16, Revision A.03,
 Gaussian 16:  ES64L-G16RevA.03 25-Dec-2016

 ----------------------------------------------------------------------
 #p b3lyp/gen scrf=(cpcm,solvent=toluene) pop=hirshfeld empiricaldisper
 sion=gd3bj
 ----------------------------------------------------------------------

 -------------------
 tmpdir/M2_ref_6.gjf
 -------------------
 Symbolic Z-matrix:
 Charge =  0 Multiplicity = 1

                         Standard orientation:
 ---------------------------------------------------------------------
 Center     Atomic      Atomic             Coordinates (Angstroms)
 Number     Number       Type             X           Y           Z
 ---------------------------------------------------------------------
      1          6           0       -0.688266    0.502441    0.001434
      2          6           0        0.712021    0.485411   -0.002736
      3          6           0       -1.404119   -0.726507   -0.001867
      4          1           0       -1.300679    1.413688    0.009297
      5          6           0        1.384430   -0.732275    0.002437
      6          1           0        1.276285    1.411896   -0.004906
 ---------------------------------------------------------------------

 SCF Done:  E(RB3LYP) =  -153.286694671     A.U. after   13 cycles

 The electronic state is 1-A.
 Alpha  occ. eigenvalues --  -10.27634 -10.27302 -10.22817 -10.22401  -0.85867
 Alpha  occ. eigenvalues --   -0.73103  -0.61333  -0.50826  -0.49451  -0.37075
 Alpha  occ. eigenvalues --   -0.33401  -0.31229  -0.25375
 Alpha virt. eigenvalues --   -0.14684  -0.11323  -0.08331   0.04444   0.05718
 Alpha virt. eigenvalues --    0.09303   0.19211   0.26451   0.31007   0.36156
 Alpha virt. eigenvalues --    0.39251   0.43551   0.43842   0.44882   0.46233

 Mulliken charges:
               1
     1  C   -0.178487
     2  C   -0.145739
     3  C   -0.002063
     4  H    0.165859
     5  C   -0.001089
     6  H    0.161519
 Sum of Mulliken charges =  -0.00000

 Dipole moment (field-independent basis, Debye):
    X=              0.0292    Y=              4.0231    Z=              0.0050  Tot=              4.0232
 Quadrupole moment (field-independent basis, Debye-Ang):
   XX=            -25.4148   YY=            -24.4994   ZZ=            -26.6967
   XY=             -0.0226   XZ=             -0.0552   YZ=              0.0124

 Normal termination of Gaussian 16 at Fri Sep 22 16:28:41 2023.
