 Gaussian 16, Revision A.03,
 Gaussian 16:  ES64L-G16RevA.03 25-Dec-2016

 ----------------------------------------------------------------------
 #p b3lyp/gen scrf=(cpcm,solvent=toluene) pop=hirshfeld empiricaldisper
 sion=gd3bj
 ----------------------------------------------------------------------

 ---------------------
 tmpdir/M2_ref_305.gjf
 ---------------------
 Symbolic Z-matrix:
 Charge =  0 Multiplicity = 1

                         Standard orientation:
 ---------------------------------------------------------------------
 Center     Atomic      Atomic             Coordinates (Angstroms)
 Number     Number       Type             X           Y           Z
 ---------------------------------------------------------------------
      1          6           0        0.714476    0.000878   -0.001918
      2          6           0       -0.716448   -0.000898   -0.002202
      3          1           0        1.209217    0.896218    0.001307
      4          1           0        1.219812   -0.895589    0.010490
      5          1           0       -1.208328    0.901719    0.011022
      6          1           0       -1.208865   -0.902230    0.001903
 ---------------------------------------------------------------------

 SCF Done:  E(RB3LYP) =  -78.5614332371     A.U. after    8 cycles

 The electronic state is 1-A.
 Alpha  occ. eigenvalues --  -10.18109 -10.18045  -0.75536  -0.60478  -0.48626
 Alpha  occ. eigenvalues --   -0.40849  -0.39068  -0.26636
 Alpha virt. eigenvalues --   -0.02239   0.06880   0.10236   0.10441   0.16158
 Alpha virt. eigenvalues --    0.26062   0.36234   0.42969   0.44200   0.50847
 Alpha virt. eigenvalues --    0.53127   0.54290   0.65777   0.66369   0.69461

 Mulliken charges:
               1
     1  C   -0.175080
     2  C   -0.172832
     3  H    0.085128
     4  H    0.087780
     5  H    0.087702
     6  H    0.087303
 Sum of Mulliken charges =  -0.00000

 Dipole moment (field-independent basis, Debye):
    X=              0.0064    Y=              0.0017    Z=              0.0272  Tot=              0.0280
 Quadrupole moment (field-independent basis, Debye-Ang):
   XX=            -12.3802   YY=            -12.2058   ZZ=            -15.6921
   XY=             -0.0045   XZ=             -0.0014   YZ=              0.0001

 Normal termination of Gaussian 16 at Fri Sep 22 16:31:20 2023.
