 Gaussian 16, Revision A.03,
 Gaussian 16:  ES64L-G16RevA.03 25-Dec-2016

 ----------------------------------------------------------------------
 #p b3lyp/gen scrf=(cpcm,solvent=toluene) pop=hirshfeld empiricaldisper
 sion=gd3bj
 ----------------------------------------------------------------------

 ---------------------
 tmpdir/M2_ref_310.gjf
 ---------------------
 Symbolic Z-matrix:
 Charge =  0 Multiplicity = 1

                         Standard orientation:
 ---------------------------------------------------------------------
 Center     Atomic      Atomic             Coordinates (Angstroms)
 Number     Number       Type             X           Y           Z
 ---------------------------------------------------------------------
      1          6           0       -0.539127   -0.010749   -0.001126
      2          1           0       -1.097887    0.922190    0.002264
      3          8           0        0.673742    0.005117    0.000259
      4          1           0       -1.057288   -0.898631    0.002416
 ---------------------------------------------------------------------

 SCF Done:  E(RB3LYP) =  -114.483994354     A.U. after    9 cycles

 The electronic state is 1-A.
 Alpha  occ. eigenvalues --  -19.13921 -10.27083  -1.06483  -0.65050  -0.51096
 Alpha  occ. eigenvalues --   -0.45533  -0.40353  -0.27450
 Alpha virt. eigenvalues --   -0.05279   0.06545   0.11923   0.18122   0.40312
 Alpha virt. eigenvalues --    0.47946   0.52463   0.60677   0.62613   0.72679
 Alpha virt. eigenvalues --    0.78022   0.87643   0.97949   1.32226   1.50412

 Mulliken charges:
               1
     1  C    0.221050
     2  H    0.075900
     3  O   -0.363101
     4  H    0.066150
 Sum of Mulliken charges =  -0.00000

 Dipole moment (field-independent basis, Debye):
    X=             -2.7492    Y=             -0.0871    Z=              0.0004  Tot=              2.7506
 Quadrupole moment (field-independent basis, Debye-Ang):
   XX=            -12.0445   YY=            -11.5101   ZZ=            -11.5033
   XY=              0.0554   XZ=             -0.0023   YZ=              0.0001

 Normal termination of Gaussian 16 at Fri Sep 22 16:31:20 2023.
