 Gaussian 16, Revision A.03,
 Gaussian 16:  ES64L-G16RevA.03 25-Dec-2016

 ----------------------------------------------------------------------
 #p b3lyp/gen scrf=(cpcm,solvent=toluene) pop=hirshfeld empiricaldisper
 sion=gd3bj
 ----------------------------------------------------------------------

 ---------------------
 tmpdir/M2_ref_309.gjf
 ---------------------
 Symbolic Z-matrix:
 Charge =  0 Multiplicity = 1

                         Standard orientation:
 ---------------------------------------------------------------------
 Center     Atomic      Atomic             Coordinates (Angstroms)
 Number     Number       Type             X           Y           Z
 ---------------------------------------------------------------------
      1          6           0        0.720282    0.470226    0.001379
      2          6           0       -0.699162    0.514348   -0.006266
      3          6           0        1.392292   -0.730339   -0.002422
      4          1           0        1.273653    1.406215    0.018793
      5          6           0       -1.421052   -0.721090    0.004455
      6          1           0       -1.227810    1.394916   -0.001662
 ---------------------------------------------------------------------

 SCF Done:  E(RB3LYP) =  -153.285832049     A.U. after   13 cycles

 The electronic state is 1-A.
 Alpha  occ. eigenvalues --  -10.27959 -10.27015 -10.22575 -10.22323  -0.85707
 Alpha  occ. eigenvalues --   -0.73488  -0.61582  -0.51256  -0.49908  -0.36902
 Alpha  occ. eigenvalues --   -0.33357  -0.31381  -0.25594
 Alpha virt. eigenvalues --   -0.14503  -0.11617  -0.08206   0.04243   0.06070
 Alpha virt. eigenvalues --    0.09874   0.19468   0.26428   0.30464   0.36470
 Alpha virt. eigenvalues --    0.39243   0.43323   0.44437   0.45594   0.46177

 Mulliken charges:
               1
     1  C   -0.164379
     2  C   -0.129722
     3  C   -0.001708
     4  H    0.165953
     5  C    0.005798
     6  H    0.124058
 Sum of Mulliken charges =   0.00000

 Dipole moment (field-independent basis, Debye):
    X=             -0.0133    Y=              4.0049    Z=              0.0222  Tot=              4.0050
 Quadrupole moment (field-independent basis, Debye-Ang):
   XX=            -25.5596   YY=            -24.4678   ZZ=            -26.6351
   XY=              0.2165   XZ=              0.0777   YZ=              0.0436

 Normal termination of Gaussian 16 at Fri Sep 22 16:31:17 2023.
