 Gaussian 16, Revision A.03,
 Gaussian 16:  ES64L-G16RevA.03 25-Dec-2016

 ----------------------------------------------------------------------
 #p b3lyp/gen scrf=(cpcm,solvent=toluene) pop=hirshfeld empiricaldisper
 sion=gd3bj
 ----------------------------------------------------------------------

 --------------------
 tmpdir/M2_ref_28.gjf
 --------------------
 Symbolic Z-matrix:
 Charge =  0 Multiplicity = 1

                         Standard orientation:
 ---------------------------------------------------------------------
 Center     Atomic      Atomic             Coordinates (Angstroms)
 Number     Number       Type             X           Y           Z
 ---------------------------------------------------------------------
      1          6           0       -0.689975    0.500072   -0.002254
      2          6           0        0.710533    0.499666    0.001042
      3          1           0        1.259946    1.437628    0.006969
      4          8           0       -1.328993   -0.546614    0.001471
      5          1           0       -1.229945    1.445284   -0.003188
      6          8           0        1.309824   -0.563553   -0.001034
 ---------------------------------------------------------------------

 SCF Done:  E(RB3LYP) =  -227.776136882     A.U. after   11 cycles

 The electronic state is 1-A.
 Alpha  occ. eigenvalues --  -19.16233 -19.16170 -10.28840 -10.28759  -1.10342
 Alpha  occ. eigenvalues --   -1.06563  -0.75815  -0.57970  -0.56049  -0.48396
 Alpha  occ. eigenvalues --   -0.46238  -0.45595  -0.38961  -0.31649  -0.28796
 Alpha virt. eigenvalues --   -0.13873   0.02792   0.05710   0.09277   0.15018
 Alpha virt. eigenvalues --    0.26017   0.32808   0.37837   0.38237   0.44686
 Alpha virt. eigenvalues --    0.49827   0.57540   0.58272   0.62784   0.66013

 Mulliken charges:
               1
     1  C    0.236276
     2  C    0.237720
     3  H    0.072590
     4  O   -0.310332
     5  H    0.069175
     6  O   -0.305429
 Sum of Mulliken charges =  -0.00000

 Dipole moment (field-independent basis, Debye):
    X=              0.1205    Y=              4.2032    Z=             -0.0010  Tot=              4.2049
 Quadrupole moment (field-independent basis, Debye-Ang):
   XX=            -26.5957   YY=            -21.6664   ZZ=            -21.1967
   XY=              0.1052   XZ=              0.0118   YZ=              0.0015

 Normal termination of Gaussian 16 at Fri Sep 22 16:27:39 2023.
