 Gaussian 16, Revision A.03,
 Gaussian 16:  ES64L-G16RevA.03 25-Dec-2016

 ----------------------------------------------------------------------
 #p b3lyp/gen scrf=(cpcm,solvent=toluene) pop=hirshfeld empiricaldisper
 sion=gd3bj
 ----------------------------------------------------------------------

 --------------------
 tmpdir/M2_ref_23.gjf
 --------------------
 Symbolic Z-matrix:
 Charge =  0 Multiplicity = 1

                         Standard orientation:
 ---------------------------------------------------------------------
 Center     Atomic      Atomic             Coordinates (Angstroms)
 Number     Number       Type             X           Y           Z
 ---------------------------------------------------------------------
      1          6           0        0.797405    0.503452   -0.006557
      2          6           0       -0.603926    0.637910   -0.003976
      3          6           0       -1.418764   -0.481243    0.001438
      4          8           0        1.307406   -0.641985    0.001324
      5          1           0        1.437314    1.320416    0.030749
      6          1           0       -1.046628    1.629295    0.004396
      7          1           0       -0.998074   -1.403645   -0.001438
      8          1           0       -2.500155   -0.370899    0.010267
 ---------------------------------------------------------------------

 SCF Done:  E(RB3LYP) =  -191.876597502     A.U. after   11 cycles

 The electronic state is 1-A.
 Alpha  occ. eigenvalues --  -19.11719 -10.26221 -10.20985 -10.19865  -1.03543
 Alpha  occ. eigenvalues --   -0.80253  -0.68215  -0.56433  -0.52609  -0.45594
 Alpha  occ. eigenvalues --   -0.43043  -0.40205  -0.39580  -0.28717  -0.26837
 Alpha virt. eigenvalues --   -0.09516   0.04884   0.05699   0.08382   0.10924
 Alpha virt. eigenvalues --    0.13350   0.21455   0.25186   0.28888   0.40287
 Alpha virt. eigenvalues --    0.41837   0.45454   0.46298   0.47895   0.51645

 Mulliken charges:
               1
     1  C    0.333730
     2  C   -0.275911
     3  C    0.008822
     4  O   -0.412286
     5  H    0.049258
     6  H    0.088292
     7  H    0.085397
     8  H    0.122697
 Sum of Mulliken charges =  -0.00000

 Dipole moment (field-independent basis, Debye):
    X=             -2.4780    Y=              2.1582    Z=              0.0160  Tot=              3.2861
 Quadrupole moment (field-independent basis, Debye-Ang):
   XX=            -23.8621   YY=            -22.4066   ZZ=            -25.0046
   XY=              3.7523   XZ=             -0.0202   YZ=              0.0205

 Normal termination of Gaussian 16 at Fri Sep 22 16:28:06 2023.
