 Gaussian 16, Revision A.03,
 Gaussian 16:  ES64L-G16RevA.03 25-Dec-2016

 ----------------------------------------------------------------------
 #p b3lyp/gen scrf=(cpcm,solvent=toluene) pop=hirshfeld empiricaldisper
 sion=gd3bj
 ----------------------------------------------------------------------

 ---------------------
 tmpdir/M2_ref_230.gjf
 ---------------------
 Symbolic Z-matrix:
 Charge =  0 Multiplicity = 1

                         Standard orientation:
 ---------------------------------------------------------------------
 Center     Atomic      Atomic             Coordinates (Angstroms)
 Number     Number       Type             X           Y           Z
 ---------------------------------------------------------------------
      1          7           0       -1.024727   -0.179758   -0.030434
      2          6           0        0.170856    0.514548    0.007496
      3          1           0       -0.839681   -1.143421   -0.044917
      4          1           0       -1.935359    0.255345    0.185121
      5          8           0        1.080821   -0.314326    0.013500
      6          1           0        0.276430    1.573703   -0.080141
 ---------------------------------------------------------------------

 SCF Done:  E(RB3LYP) =  -169.855749822     A.U. after   11 cycles

 The electronic state is 1-A.
 Alpha  occ. eigenvalues --  -19.09193 -14.33493 -10.28566  -1.05074  -0.89037
 Alpha  occ. eigenvalues --   -0.63163  -0.55539  -0.49373  -0.42552  -0.40767
 Alpha  occ. eigenvalues --   -0.27382  -0.26198
 Alpha virt. eigenvalues --   -0.00367   0.05140   0.07386   0.11791   0.19943
 Alpha virt. eigenvalues --    0.27282   0.41191   0.42334   0.48386   0.53670
 Alpha virt. eigenvalues --    0.61746   0.66941   0.67952   0.70913   0.75130

 Mulliken charges:
               1
     1  N   -0.345992
     2  C    0.351732
     3  H    0.179486
     4  H    0.191621
     5  O   -0.467617
     6  H    0.090771
 Sum of Mulliken charges =  -0.00000

 Dipole moment (field-independent basis, Debye):
    X=             -3.5547    Y=              1.7029    Z=              0.2981  Tot=              3.9528
 Quadrupole moment (field-independent basis, Debye-Ang):
   XX=            -18.4518   YY=            -14.5954   ZZ=            -18.7070
   XY=              1.4192   XZ=             -0.8285   YZ=              0.1476

 Normal termination of Gaussian 16 at Fri Sep 22 16:30:14 2023.
