 Gaussian 16, Revision A.03,
 Gaussian 16:  ES64L-G16RevA.03 25-Dec-2016

 ----------------------------------------------------------------------
 #p b3lyp/gen scrf=(cpcm,solvent=toluene) pop=hirshfeld empiricaldisper
 sion=gd3bj
 ----------------------------------------------------------------------

 ---------------------
 tmpdir/M2_ref_220.gjf
 ---------------------
 Symbolic Z-matrix:
 Charge =  0 Multiplicity = 1

                         Standard orientation:
 ---------------------------------------------------------------------
 Center     Atomic      Atomic             Coordinates (Angstroms)
 Number     Number       Type             X           Y           Z
 ---------------------------------------------------------------------
      1          6           0        0.804874   -0.760072    0.021748
      2          6           0       -0.002135    0.420791    0.006404
      3          6           0       -1.416896    0.286446   -0.011590
      4          8           0        2.050380   -0.628608   -0.021976
      5          1           0        0.344312   -1.678069    0.053141
      6          8           0        0.556077    1.540665    0.009055
      7          8           0       -1.935124   -0.810991   -0.001771
      8          1           0       -2.030039    1.186554   -0.034975
 ---------------------------------------------------------------------

 SCF Done:  E(RB3LYP) =  -341.069689076     A.U. after   12 cycles

 The electronic state is 1-A.
 Alpha  occ. eigenvalues --  -19.18355 -19.18198 -19.16842 -10.30681 -10.30516
 Alpha  occ. eigenvalues --  -10.29424  -1.11907  -1.09825  -1.06254  -0.79736
 Alpha  occ. eigenvalues --   -0.69826  -0.58477  -0.55937  -0.51614  -0.49192
 Alpha  occ. eigenvalues --   -0.47736  -0.46815  -0.42882  -0.39076  -0.34889
 Alpha  occ. eigenvalues --   -0.32400  -0.28813
 Alpha virt. eigenvalues --   -0.17141  -0.08338   0.05495   0.06979   0.08566
 Alpha virt. eigenvalues --    0.13604   0.22842   0.23854   0.28145   0.33690
 Alpha virt. eigenvalues --    0.36030   0.40347   0.42726   0.47938   0.48247

 Mulliken charges:
               1
     1  C    0.332519
     2  C    0.104243
     3  C    0.327011
     4  O   -0.326853
     5  H    0.065032
     6  O   -0.290489
     7  O   -0.309367
     8  H    0.097904
 Sum of Mulliken charges =  -0.00000

 Dipole moment (field-independent basis, Debye):
    X=             -2.6856    Y=             -0.3030    Z=              0.0595  Tot=              2.7033
 Quadrupole moment (field-independent basis, Debye-Ang):
   XX=            -42.0469   YY=            -35.9890   ZZ=            -30.8847
   XY=             -4.5574   XZ=              0.1573   YZ=             -0.1105

 Normal termination of Gaussian 16 at Fri Sep 22 16:30:09 2023.
