 Gaussian 16, Revision A.03,
 Gaussian 16:  ES64L-G16RevA.03 25-Dec-2016

 ----------------------------------------------------------------------
 #p b3lyp/gen scrf=(cpcm,solvent=toluene) pop=hirshfeld empiricaldisper
 sion=gd3bj
 ----------------------------------------------------------------------

 ---------------------
 tmpdir/M2_ref_141.gjf
 ---------------------
 Symbolic Z-matrix:
 Charge =  0 Multiplicity = 1

                         Standard orientation:
 ---------------------------------------------------------------------
 Center     Atomic      Atomic             Coordinates (Angstroms)
 Number     Number       Type             X           Y           Z
 ---------------------------------------------------------------------
      1          1           0        0.577442   -0.541862   -0.757807
      2          6           0       -0.005770    0.003015   -0.005631
      3          1           0        0.101831   -0.537412    0.944251
      4          1           0       -1.085531    0.065596   -0.267651
      5          1           0        0.440875    0.995588    0.114992
 ---------------------------------------------------------------------

 SCF Done:  E(RB3LYP) =  -40.5135665403     A.U. after    7 cycles

 The electronic state is 1-A.
 Alpha  occ. eigenvalues --  -10.16444  -0.69252  -0.39715  -0.39127  -0.38780
 Alpha virt. eigenvalues --    0.05622   0.12337   0.12556   0.12588   0.37077
 Alpha virt. eigenvalues --    0.37402   0.38539   0.63079   0.63696   0.63801
 Alpha virt. eigenvalues --    0.67424   0.96100   1.28644   1.29305   1.83984

 Mulliken charges:
               1
     1  H    0.087804
     2  C   -0.355581
     3  H    0.084658
     4  H    0.095323
     5  H    0.087796
 Sum of Mulliken charges =  -0.00000

 Dipole moment (field-independent basis, Debye):
    X=              0.0396    Y=             -0.0120    Z=              0.0274  Tot=              0.0496
 Quadrupole moment (field-independent basis, Debye-Ang):
   XX=             -8.3130   YY=             -8.5110   ZZ=             -8.5681
   XY=              0.0038   XZ=             -0.0054   YZ=              0.0089

 Normal termination of Gaussian 16 at Fri Sep 22 16:29:02 2023.
