 Gaussian 16, Revision A.03,
 Gaussian 16:  ES64L-G16RevA.03 25-Dec-2016

 ----------------------------------------------------------------------
 #p b3lyp/gen scrf=(cpcm,solvent=toluene) pop=hirshfeld empiricaldisper
 sion=gd3bj
 ----------------------------------------------------------------------

 --------------------
 tmpdir/M2_ref_96.gjf
 --------------------
 Symbolic Z-matrix:
 Charge =  0 Multiplicity = 1

                         Standard orientation:
 ---------------------------------------------------------------------
 Center     Atomic      Atomic             Coordinates (Angstroms)
 Number     Number       Type             X           Y           Z
 ---------------------------------------------------------------------
      1          6           0        1.248555   -0.266966    0.000566
      2          6           0       -0.002948    0.605904   -0.010242
      3          6           0       -1.252979   -0.272173    0.000691
      4          1           0        2.160248    0.342429   -0.054184
      5          1           0        1.298289   -0.802646    0.956213
      6          1           0        1.277031   -1.001611   -0.837744
      7          1           0        0.013151    1.281725    0.854938
      8          1           0       -0.011231    1.242098   -0.909309
      9          1           0       -1.260100   -0.927760   -0.888042
     10          1           0       -2.162594    0.342579    0.011282
     11          1           0       -1.270561   -0.877401    0.920753
 ---------------------------------------------------------------------

 SCF Done:  E(RB3LYP) =  -119.132231212     A.U. after   10 cycles

 The electronic state is 1-A.
 Alpha  occ. eigenvalues --  -10.16914 -10.16394 -10.16387  -0.78350  -0.67823
 Alpha  occ. eigenvalues --   -0.58284  -0.46048  -0.43828  -0.39546  -0.38230
 Alpha  occ. eigenvalues --   -0.34093  -0.33548  -0.33015
 Alpha virt. eigenvalues --    0.04724   0.08656   0.08768   0.08912   0.11783
 Alpha virt. eigenvalues --    0.13606   0.14382   0.15321   0.19455   0.23460
 Alpha virt. eigenvalues --    0.37322   0.38425   0.40290   0.40823   0.41085

 Mulliken charges:
               1
     1  C   -0.218126
     2  C   -0.247243
     3  C   -0.211440
     4  H    0.083028
     5  H    0.081153
     6  H    0.086826
     7  H    0.086779
     8  H    0.086001
     9  H    0.086814
    10  H    0.084482
    11  H    0.081726
 Sum of Mulliken charges =  -0.00000

 Dipole moment (field-independent basis, Debye):
    X=              0.0078    Y=              0.1126    Z=              0.0385  Tot=              0.1193
 Quadrupole moment (field-independent basis, Debye-Ang):
   XX=            -22.7676   YY=            -22.3122   ZZ=            -21.5576
   XY=             -0.0470   XZ=             -0.0180   YZ=              0.1559

 Normal termination of Gaussian 16 at Fri Sep 22 16:28:09 2023.
