 Gaussian 16, Revision A.03,
 Gaussian 16:  ES64L-G16RevA.03 25-Dec-2016

 ----------------------------------------------------------------------
 #p b3lyp/gen scrf=(cpcm,solvent=toluene) pop=hirshfeld empiricaldisper
 sion=gd3bj
 ----------------------------------------------------------------------

 ---------------------
 tmpdir/M2_ref_325.gjf
 ---------------------
 Symbolic Z-matrix:
 Charge =  0 Multiplicity = 1

                         Standard orientation:
 ---------------------------------------------------------------------
 Center     Atomic      Atomic             Coordinates (Angstroms)
 Number     Number       Type             X           Y           Z
 ---------------------------------------------------------------------
      1          6           0       -1.423798   -0.466151   -0.001026
      2          6           0       -0.600572    0.634171   -0.000113
      3          6           0        0.807953    0.473939   -0.000354
      4          1           0       -1.025674   -1.415126    0.009738
      5          1           0       -2.505372   -0.350619   -0.003817
      6          1           0       -1.028840    1.634476    0.004779
      7          8           0        1.301302   -0.634345   -0.000349
      8          1           0        1.447974    1.354277    0.001054
 ---------------------------------------------------------------------

 SCF Done:  E(RB3LYP) =  -191.884221836     A.U. after   11 cycles

 The electronic state is 1-A.
 Alpha  occ. eigenvalues --  -19.12005 -10.26417 -10.20794 -10.19606  -1.05820
 Alpha  occ. eigenvalues --   -0.80178  -0.67561  -0.55598  -0.52456  -0.46006
 Alpha  occ. eigenvalues --   -0.42981  -0.41301  -0.39666  -0.28986  -0.26941
 Alpha virt. eigenvalues --   -0.08855   0.05467   0.05631   0.08111   0.10793
 Alpha virt. eigenvalues --    0.13295   0.22054   0.25442   0.28882   0.40121
 Alpha virt. eigenvalues --    0.41711   0.45157   0.46137   0.48060   0.51702

 Mulliken charges:
               1
     1  C   -0.010928
     2  C   -0.272924
     3  C    0.301342
     4  H    0.091770
     5  H    0.120562
     6  H    0.088541
     7  O   -0.373981
     8  H    0.055619
 Sum of Mulliken charges =   0.00000

 Dipole moment (field-independent basis, Debye):
    X=             -2.3426    Y=              1.9818    Z=              0.0101  Tot=              3.0685
 Quadrupole moment (field-independent basis, Debye-Ang):
   XX=            -23.9027   YY=            -22.5397   ZZ=            -24.9913
   XY=              3.4847   XZ=             -0.0040   YZ=             -0.0032

 Normal termination of Gaussian 16 at Fri Sep 22 16:30:49 2023.
