 Gaussian 16, Revision A.03,
 Gaussian 16:  ES64L-G16RevA.03 25-Dec-2016

 ----------------------------------------------------------------------
 #p b3lyp/gen scrf=(cpcm,solvent=toluene) pop=hirshfeld empiricaldisper
 sion=gd3bj
 ----------------------------------------------------------------------

 ---------------------
 tmpdir/M2_ref_208.gjf
 ---------------------
 Symbolic Z-matrix:
 Charge =  0 Multiplicity = 1

                         Standard orientation:
 ---------------------------------------------------------------------
 Center     Atomic      Atomic             Coordinates (Angstroms)
 Number     Number       Type             X           Y           Z
 ---------------------------------------------------------------------
      1          6           0        0.807127    0.492362    0.001332
      2          6           0       -0.560727    0.653227   -0.006828
      3          6           0       -1.442855   -0.458575    0.007123
      4          1           0        1.485600    1.364742    0.068115
      5          8           0        1.276371   -0.671739   -0.009606
      6          1           0       -1.004829    1.644684   -0.026633
      7          1           0       -1.048278   -1.415065    0.046229
      8          1           0       -2.464728   -0.342529   -0.020624
 ---------------------------------------------------------------------

 SCF Done:  E(RB3LYP) =  -191.871792214     A.U. after   11 cycles

 The electronic state is 1-A.
 Alpha  occ. eigenvalues --  -19.11666 -10.26539 -10.21331 -10.20098  -1.03484
 Alpha  occ. eigenvalues --   -0.80065  -0.68646  -0.55699  -0.52444  -0.45427
 Alpha  occ. eigenvalues --   -0.43578  -0.40306  -0.39338  -0.28310  -0.26808
 Alpha virt. eigenvalues --   -0.10112   0.04985   0.05782   0.08127   0.10593
 Alpha virt. eigenvalues --    0.13421   0.20969   0.24816   0.29650   0.40194
 Alpha virt. eigenvalues --    0.41227   0.45248   0.46310   0.47365   0.51559

 Mulliken charges:
               1
     1  C    0.301065
     2  C   -0.275657
     3  C    0.022577
     4  H    0.071672
     5  O   -0.410814
     6  H    0.088360
     7  H    0.100039
     8  H    0.102757
 Sum of Mulliken charges =  -0.00000

 Dipole moment (field-independent basis, Debye):
    X=             -2.5734    Y=              2.1075    Z=              0.0514  Tot=              3.3266
 Quadrupole moment (field-independent basis, Debye-Ang):
   XX=            -23.5840   YY=            -22.5627   ZZ=            -25.0695
   XY=              3.8637   XZ=              0.0984   YZ=             -0.0644

 Normal termination of Gaussian 16 at Fri Sep 22 16:29:17 2023.
