 Gaussian 16, Revision A.03,
 Gaussian 16:  ES64L-G16RevA.03 25-Dec-2016

 ----------------------------------------------------------------------
 #p b3lyp/gen scrf=(cpcm,solvent=toluene) pop=hirshfeld empiricaldisper
 sion=gd3bj
 ----------------------------------------------------------------------

 ---------------------
 tmpdir/M2_ref_292.gjf
 ---------------------
 Symbolic Z-matrix:
 Charge =  0 Multiplicity = 1

                         Standard orientation:
 ---------------------------------------------------------------------
 Center     Atomic      Atomic             Coordinates (Angstroms)
 Number     Number       Type             X           Y           Z
 ---------------------------------------------------------------------
      1          6           0       -1.327580   -0.393616    0.316052
      2          6           0        0.036724    0.149184    0.171892
      3          6           0        1.194293   -0.663308    0.015553
      4          1           0       -1.697336   -0.954087    1.171026
      5          8           0       -2.284735   -0.176244   -0.426720
      6          8           0        0.152844    1.358826    0.093797
      7          8           0        2.278823   -0.164258   -0.199033
      8          1           0        1.101268   -1.746057    0.063636
 ---------------------------------------------------------------------

 SCF Done:  E(RB3LYP) =  -341.060731198     A.U. after   14 cycles

 The electronic state is 1-A.
 Alpha  occ. eigenvalues --  -19.18237 -19.17462 -19.16467 -10.31181 -10.30333
 Alpha  occ. eigenvalues --  -10.30328  -1.12872  -1.09302  -1.07764  -0.79470
 Alpha  occ. eigenvalues --   -0.68114  -0.58467  -0.57199  -0.50469  -0.49906
 Alpha  occ. eigenvalues --   -0.47782  -0.46235  -0.42356  -0.40458  -0.34498
 Alpha  occ. eigenvalues --   -0.31864  -0.28165
 Alpha virt. eigenvalues --   -0.15596  -0.08084   0.01028   0.05658   0.08263
 Alpha virt. eigenvalues --    0.16857   0.20215   0.23661   0.27471   0.31413
 Alpha virt. eigenvalues --    0.38480   0.39032   0.44320   0.47007   0.52148

 Mulliken charges:
               1
     1  C    0.256120
     2  C    0.175359
     3  C    0.279525
     4  H    0.097659
     5  O   -0.325715
     6  O   -0.268120
     7  O   -0.289472
     8  H    0.074643
 Sum of Mulliken charges =  -0.00000

 Dipole moment (field-independent basis, Debye):
    X=             -0.2440    Y=             -3.6724    Z=              2.0733  Tot=              4.2243
 Quadrupole moment (field-independent basis, Debye-Ang):
   XX=            -45.0911   YY=            -33.4174   ZZ=            -31.2481
   XY=             -0.9642   XZ=             -2.3510   YZ=             -0.7069

 Normal termination of Gaussian 16 at Fri Sep 22 16:30:54 2023.
