 Gaussian 16, Revision A.03,
 Gaussian 16:  ES64L-G16RevA.03 25-Dec-2016

 ----------------------------------------------------------------------
 #p b3lyp/gen scrf=(cpcm,solvent=toluene) pop=hirshfeld empiricaldisper
 sion=gd3bj
 ----------------------------------------------------------------------

 ---------------------
 tmpdir/M2_ref_324.gjf
 ---------------------
 Symbolic Z-matrix:
 Charge =  0 Multiplicity = 1

                         Standard orientation:
 ---------------------------------------------------------------------
 Center     Atomic      Atomic             Coordinates (Angstroms)
 Number     Number       Type             X           Y           Z
 ---------------------------------------------------------------------
      1          6           0        0.539257   -0.011130   -0.000532
      2          1           0        1.096894    0.923261    0.001075
      3          8           0       -0.672134    0.005970    0.000121
      4          1           0        1.044638   -0.904242    0.001143
 ---------------------------------------------------------------------

 SCF Done:  E(RB3LYP) =  -114.483662181     A.U. after    9 cycles

 The electronic state is 1-A.
 Alpha  occ. eigenvalues --  -19.13863 -10.27030  -1.06543  -0.64971  -0.51225
 Alpha  occ. eigenvalues --   -0.45486  -0.40378  -0.27414
 Alpha virt. eigenvalues --   -0.05217   0.06553   0.11893   0.18176   0.40313
 Alpha virt. eigenvalues --    0.47588   0.52795   0.60973   0.62730   0.72775
 Alpha virt. eigenvalues --    0.78003   0.87676   0.98034   1.32095   1.50654

 Mulliken charges:
               1
     1  C    0.220817
     2  H    0.076597
     3  O   -0.362741
     4  H    0.065327
 Sum of Mulliken charges =   0.00000

 Dipole moment (field-independent basis, Debye):
    X=              2.7412    Y=             -0.0898    Z=              0.0002  Tot=              2.7426
 Quadrupole moment (field-independent basis, Debye-Ang):
   XX=            -12.0656   YY=            -11.4842   ZZ=            -11.4999
   XY=             -0.0456   XZ=              0.0011   YZ=              0.0001

 Normal termination of Gaussian 16 at Fri Sep 22 16:30:37 2023.
