 Gaussian 16, Revision A.03,
 Gaussian 16:  ES64L-G16RevA.03 25-Dec-2016

 ----------------------------------------------------------------------
 #p b3lyp/gen scrf=(cpcm,solvent=toluene) pop=hirshfeld empiricaldisper
 sion=gd3bj
 ----------------------------------------------------------------------

 -------------------
 tmpdir/M2_ref_8.gjf
 -------------------
 Symbolic Z-matrix:
 Charge =  0 Multiplicity = 1

                         Standard orientation:
 ---------------------------------------------------------------------
 Center     Atomic      Atomic             Coordinates (Angstroms)
 Number     Number       Type             X           Y           Z
 ---------------------------------------------------------------------
      1          6           0       -1.427379   -0.482446   -0.006776
      2          6           0       -0.578002    0.658294   -0.000497
      3          6           0        0.811514    0.484059   -0.001793
      4          1           0       -1.015390   -1.414499   -0.000786
      5          1           0       -2.453127   -0.324565    0.028148
      6          1           0       -1.084181    1.632566    0.007209
      7          8           0        1.279951   -0.649279    0.002686
      8          1           0        1.476293    1.341289   -0.001667
 ---------------------------------------------------------------------

 SCF Done:  E(RB3LYP) =  -191.873639542     A.U. after   11 cycles

 The electronic state is 1-A.
 Alpha  occ. eigenvalues --  -19.11788 -10.26389 -10.20964 -10.20101  -1.05046
 Alpha  occ. eigenvalues --   -0.79717  -0.68063  -0.55795  -0.52756  -0.45668
 Alpha  occ. eigenvalues --   -0.43027  -0.40916  -0.39814  -0.28326  -0.26919
 Alpha virt. eigenvalues --   -0.09575   0.05055   0.05838   0.08336   0.10659
 Alpha virt. eigenvalues --    0.13591   0.21279   0.24589   0.29432   0.40315
 Alpha virt. eigenvalues --    0.41465   0.45554   0.46284   0.47643   0.51388

 Mulliken charges:
               1
     1  C    0.017919
     2  C   -0.293862
     3  C    0.316862
     4  H    0.091304
     5  H    0.104855
     6  H    0.093722
     7  O   -0.389610
     8  H    0.058808
 Sum of Mulliken charges =  -0.00000

 Dipole moment (field-independent basis, Debye):
    X=             -2.4272    Y=              2.0326    Z=              0.0205  Tot=              3.1660
 Quadrupole moment (field-independent basis, Debye-Ang):
   XX=            -23.6462   YY=            -22.5944   ZZ=            -25.0607
   XY=              3.4500   XZ=             -0.0813   YZ=              0.0079

 Normal termination of Gaussian 16 at Fri Sep 22 16:29:00 2023.
