 Gaussian 16, Revision A.03,
 Gaussian 16:  ES64L-G16RevA.03 25-Dec-2016

 ----------------------------------------------------------------------
 #p b3lyp/gen scrf=(cpcm,solvent=toluene) pop=hirshfeld empiricaldisper
 sion=gd3bj
 ----------------------------------------------------------------------

 ---------------------
 tmpdir/M2_ref_232.gjf
 ---------------------
 Symbolic Z-matrix:
 Charge =  0 Multiplicity = 1

                         Standard orientation:
 ---------------------------------------------------------------------
 Center     Atomic      Atomic             Coordinates (Angstroms)
 Number     Number       Type             X           Y           Z
 ---------------------------------------------------------------------
      1          7           0        0.736360   -0.005584   -0.037099
      2          6           0       -0.736774   -0.013957    0.009368
      3          1           0        1.263293    0.801056    0.060418
      4          1           0        1.317317   -0.788168    0.077566
      5          1           0       -1.213380   -0.610470   -0.807939
      6          1           0       -1.057711   -0.301916    1.037647
      7          1           0       -1.043391    1.022326   -0.164203
 ---------------------------------------------------------------------

 SCF Done:  E(RB3LYP) =  -95.8331580592     A.U. after    9 cycles

 The electronic state is 1-A.
 Alpha  occ. eigenvalues --  -14.27174 -10.19999  -0.85957  -0.66489  -0.48731
 Alpha  occ. eigenvalues --   -0.43554  -0.41849  -0.36891  -0.21150
 Alpha virt. eigenvalues --    0.05404   0.08004   0.10002   0.12188   0.15568
 Alpha virt. eigenvalues --    0.19999   0.38770   0.44500   0.46448   0.58726
 Alpha virt. eigenvalues --    0.61005   0.64139   0.65785   0.67135   0.71829

 Mulliken charges:
               1
     1  N   -0.516417
     2  C   -0.023846
     3  H    0.141025
     4  H    0.145087
     5  H    0.091758
     6  H    0.080731
     7  H    0.081663
 Sum of Mulliken charges =  -0.00000

 Dipole moment (field-independent basis, Debye):
    X=              0.1254    Y=              0.1580    Z=              0.3911  Tot=              0.4401
 Quadrupole moment (field-independent basis, Debye-Ang):
   XX=            -12.5112   YY=            -12.7076   ZZ=            -15.5059
   XY=             -0.1311   XZ=              0.7775   YZ=             -0.0023

 Normal termination of Gaussian 16 at Fri Sep 22 16:30:27 2023.
