 Gaussian 16, Revision A.03,
 Gaussian 16:  ES64L-G16RevA.03 25-Dec-2016

 ----------------------------------------------------------------------
 #p b3lyp/gen scrf=(cpcm,solvent=toluene) pop=hirshfeld empiricaldisper
 sion=gd3bj
 ----------------------------------------------------------------------

 ---------------------
 tmpdir/M2_ref_175.gjf
 ---------------------
 Symbolic Z-matrix:
 Charge =  0 Multiplicity = 1

                         Standard orientation:
 ---------------------------------------------------------------------
 Center     Atomic      Atomic             Coordinates (Angstroms)
 Number     Number       Type             X           Y           Z
 ---------------------------------------------------------------------
      1          6           0       -1.238109   -0.276191    0.012275
      2          6           0        0.011354    0.652739    0.006094
      3          6           0        1.220126   -0.281795    0.001185
      4          1           0       -0.798423   -1.279967   -0.418878
      5          1           0       -2.013288    0.114001   -0.678303
      6          1           0       -1.601937   -0.430195    1.046560
      7          1           0        0.002118    1.255802   -0.911332
      8          1           0       -0.007074    1.339383    0.857552
      9          1           0        0.884708   -1.127699   -0.624049
     10          1           0        2.121142    0.192268   -0.402360
     11          1           0        1.452530   -0.632111    1.013487
 ---------------------------------------------------------------------

 SCF Done:  E(RB3LYP) =  -119.114197669     A.U. after   10 cycles

 The electronic state is 1-A.
 Alpha  occ. eigenvalues --  -10.17192 -10.16824 -10.16278  -0.78470  -0.66924
 Alpha  occ. eigenvalues --   -0.58322  -0.46410  -0.44725  -0.39194  -0.36690
 Alpha  occ. eigenvalues --   -0.34274  -0.33096  -0.32856
 Alpha virt. eigenvalues --    0.04666   0.07840   0.08118   0.08935   0.11233
 Alpha virt. eigenvalues --    0.13510   0.15391   0.16765   0.19682   0.24263
 Alpha virt. eigenvalues --    0.36381   0.37661   0.40431   0.42616   0.45052

 Mulliken charges:
               1
     1  C   -0.243987
     2  C   -0.245186
     3  C   -0.214025
     4  H    0.079123
     5  H    0.092898
     6  H    0.097834
     7  H    0.086771
     8  H    0.090727
     9  H    0.081920
    10  H    0.085185
    11  H    0.088739
 Sum of Mulliken charges =   0.00000

 Dipole moment (field-independent basis, Debye):
    X=              0.0449    Y=              0.1687    Z=              0.0190  Tot=              0.1756
 Quadrupole moment (field-independent basis, Debye-Ang):
   XX=            -23.1307   YY=            -22.6183   ZZ=            -21.4347
   XY=             -0.1534   XZ=              0.0848   YZ=             -0.0525

 Normal termination of Gaussian 16 at Fri Sep 22 16:29:12 2023.
