 Gaussian 16, Revision A.03,
 Gaussian 16:  ES64L-G16RevA.03 25-Dec-2016

 ----------------------------------------------------------------------
 #p b3lyp/gen scrf=(cpcm,solvent=toluene) pop=hirshfeld empiricaldisper
 sion=gd3bj
 ----------------------------------------------------------------------

 ---------------------
 tmpdir/M2_ref_334.gjf
 ---------------------
 Symbolic Z-matrix:
 Charge =  0 Multiplicity = 1

                         Standard orientation:
 ---------------------------------------------------------------------
 Center     Atomic      Atomic             Coordinates (Angstroms)
 Number     Number       Type             X           Y           Z
 ---------------------------------------------------------------------
      1          6           0       -0.810757    0.472716    0.000064
      2          6           0        0.597612    0.634313   -0.000268
      3          6           0        1.426334   -0.464176   -0.000861
      4          8           0       -1.299021   -0.636048   -0.001189
      5          1           0       -1.453613    1.350643    0.005432
      6          1           0        1.022575    1.636325    0.001547
      7          1           0        1.037181   -1.414568    0.013445
      8          1           0        2.506892   -0.341133   -0.004522
 ---------------------------------------------------------------------

 SCF Done:  E(RB3LYP) =  -191.883757176     A.U. after   11 cycles

 The electronic state is 1-A.
 Alpha  occ. eigenvalues --  -19.11994 -10.26396 -10.20796 -10.19618  -1.05908
 Alpha  occ. eigenvalues --   -0.80124  -0.67572  -0.55629  -0.52441  -0.46024
 Alpha  occ. eigenvalues --   -0.42986  -0.41340  -0.39685  -0.28957  -0.26931
 Alpha virt. eigenvalues --   -0.08852   0.05475   0.05635   0.08120   0.10783
 Alpha virt. eigenvalues --    0.13310   0.22066   0.25409   0.28897   0.40123
 Alpha virt. eigenvalues --    0.41689   0.45243   0.46140   0.48001   0.51709

 Mulliken charges:
               1
     1  C    0.301355
     2  C   -0.273597
     3  C   -0.010102
     4  O   -0.372554
     5  H    0.055179
     6  H    0.088519
     7  H    0.090702
     8  H    0.120499
 Sum of Mulliken charges =  -0.00000

 Dipole moment (field-independent basis, Debye):
    X=              2.3254    Y=              1.9815    Z=              0.0136  Tot=              3.0551
 Quadrupole moment (field-independent basis, Debye-Ang):
   XX=            -23.8717   YY=            -22.5498   ZZ=            -24.9915
   XY=             -3.4979   XZ=             -0.0027   YZ=             -0.0119

 Normal termination of Gaussian 16 at Fri Sep 22 16:30:56 2023.
