 Gaussian 16, Revision A.03,
 Gaussian 16:  ES64L-G16RevA.03 25-Dec-2016

 ----------------------------------------------------------------------
 #p b3lyp/gen scrf=(cpcm,solvent=toluene) pop=hirshfeld empiricaldisper
 sion=gd3bj
 ----------------------------------------------------------------------

 ---------------------
 tmpdir/M2_ref_216.gjf
 ---------------------
 Symbolic Z-matrix:
 Charge =  0 Multiplicity = 1

                         Standard orientation:
 ---------------------------------------------------------------------
 Center     Atomic      Atomic             Coordinates (Angstroms)
 Number     Number       Type             X           Y           Z
 ---------------------------------------------------------------------
      1          6           0       -0.711618    0.504648    0.010098
      2          6           0        0.718560    0.506431   -0.012827
      3          6           0       -1.401908   -0.735320   -0.010576
      4          1           0       -1.209968    1.404169    0.041258
      5          6           0        1.394034   -0.744050    0.011662
      6          1           0        1.215563    1.405577   -0.031395
 ---------------------------------------------------------------------

 SCF Done:  E(RB3LYP) =  -153.277944899     A.U. after   13 cycles

 The electronic state is 1-A.
 Alpha  occ. eigenvalues --  -10.27886 -10.27792 -10.22478 -10.22418  -0.85423
 Alpha  occ. eigenvalues --   -0.72971  -0.62039  -0.51254  -0.50334  -0.36573
 Alpha  occ. eigenvalues --   -0.33527  -0.31494  -0.25401
 Alpha virt. eigenvalues --   -0.14713  -0.11636  -0.08534   0.03601   0.06386
 Alpha virt. eigenvalues --    0.10349   0.19219   0.26109   0.29747   0.36986
 Alpha virt. eigenvalues --    0.39433   0.43718   0.45345   0.46038   0.46336

 Mulliken charges:
               1
     1  C   -0.137670
     2  C   -0.129789
     3  C    0.007139
     4  H    0.127252
     5  C    0.008536
     6  H    0.124532
 Sum of Mulliken charges =  -0.00000

 Dipole moment (field-independent basis, Debye):
    X=              0.0447    Y=              3.9699    Z=              0.0123  Tot=              3.9702
 Quadrupole moment (field-independent basis, Debye-Ang):
   XX=            -25.3116   YY=            -24.6061   ZZ=            -26.6709
   XY=             -0.0323   XZ=             -0.2825   YZ=              0.0267

 Normal termination of Gaussian 16 at Fri Sep 22 16:29:15 2023.
