 Gaussian 16, Revision A.03,
 Gaussian 16:  ES64L-G16RevA.03 25-Dec-2016

 ----------------------------------------------------------------------
 #p b3lyp/gen scrf=(cpcm,solvent=toluene) pop=hirshfeld empiricaldisper
 sion=gd3bj
 ----------------------------------------------------------------------

 ---------------------
 tmpdir/M2_ref_291.gjf
 ---------------------
 Symbolic Z-matrix:
 Charge =  0 Multiplicity = 1

                         Standard orientation:
 ---------------------------------------------------------------------
 Center     Atomic      Atomic             Coordinates (Angstroms)
 Number     Number       Type             X           Y           Z
 ---------------------------------------------------------------------
      1          6           0        0.759940    0.403296    0.205603
      2          6           0       -0.661622    0.606011   -0.133229
      3          6           0       -1.522562   -0.452967    0.079206
      4          1           0        1.312390    0.950280    0.965493
      5          8           0        1.490050   -0.497751   -0.206901
      6          1           0       -1.023608    1.458096   -0.584678
      7          1           0       -2.503228   -0.417063   -0.209615
      8          1           0       -1.160482   -1.347346    0.574532
 ---------------------------------------------------------------------

 SCF Done:  E(RB3LYP) =  -191.867036636     A.U. after   11 cycles

 The electronic state is 1-A.
 Alpha  occ. eigenvalues --  -19.12880 -10.27612 -10.20473 -10.20409  -1.05342
 Alpha  occ. eigenvalues --   -0.80305  -0.66469  -0.57250  -0.52323  -0.45950
 Alpha  occ. eigenvalues --   -0.45050  -0.40968  -0.38513  -0.29285  -0.26653
 Alpha virt. eigenvalues --   -0.06575  -0.01326   0.06926   0.08301   0.09119
 Alpha virt. eigenvalues --    0.12650   0.23505   0.24659   0.26018   0.40374
 Alpha virt. eigenvalues --    0.41968   0.45171   0.48522   0.50660   0.51648

 Mulliken charges:
               1
     1  C    0.252495
     2  C   -0.183006
     3  C   -0.066013
     4  H    0.067675
     5  O   -0.367501
     6  H    0.088932
     7  H    0.094914
     8  H    0.112503
 Sum of Mulliken charges =  -0.00000

 Dipole moment (field-independent basis, Debye):
    X=             -2.5433    Y=              1.7102    Z=              0.7996  Tot=              3.1674
 Quadrupole moment (field-independent basis, Debye-Ang):
   XX=            -25.1587   YY=            -22.7736   ZZ=            -24.5569
   XY=              2.8858   XZ=              1.8676   YZ=             -1.4743

 Normal termination of Gaussian 16 at Fri Sep 22 16:30:33 2023.
