 Gaussian 16, Revision A.03,
 Gaussian 16:  ES64L-G16RevA.03 25-Dec-2016

 ----------------------------------------------------------------------
 #p b3lyp/gen scrf=(cpcm,solvent=toluene) pop=hirshfeld empiricaldisper
 sion=gd3bj
 ----------------------------------------------------------------------

 ---------------------
 tmpdir/M2_ref_298.gjf
 ---------------------
 Symbolic Z-matrix:
 Charge =  0 Multiplicity = 1

                         Standard orientation:
 ---------------------------------------------------------------------
 Center     Atomic      Atomic             Coordinates (Angstroms)
 Number     Number       Type             X           Y           Z
 ---------------------------------------------------------------------
      1          6           0        0.700454    0.527643   -0.003454
      2          6           0       -0.712192    0.490821   -0.001465
      3          1           0       -1.255184    1.429655    0.009309
      4          1           0        1.217659    1.417343    0.006700
      5          8           0        1.340507   -0.559444    0.001392
      6          8           0       -1.327013   -0.560278    0.000296
 ---------------------------------------------------------------------

 SCF Done:  E(RB3LYP) =  -227.771682381     A.U. after   11 cycles

 The electronic state is 1-A.
 Alpha  occ. eigenvalues --  -19.16312 -19.16201 -10.28920 -10.28813  -1.09695
 Alpha  occ. eigenvalues --   -1.05499  -0.75975  -0.59023  -0.56050  -0.48176
 Alpha  occ. eigenvalues --   -0.45700  -0.45512  -0.38487  -0.31619  -0.28901
 Alpha virt. eigenvalues --   -0.14202   0.02108   0.05936   0.09585   0.14544
 Alpha virt. eigenvalues --    0.25929   0.31921   0.38059   0.39423   0.44830
 Alpha virt. eigenvalues --    0.49262   0.56436   0.57791   0.61861   0.66974

 Mulliken charges:
               1
     1  C    0.271302
     2  C    0.237623
     3  H    0.067587
     4  H    0.061907
     5  O   -0.335498
     6  O   -0.302921
 Sum of Mulliken charges =  -0.00000

 Dipole moment (field-independent basis, Debye):
    X=             -0.0288    Y=              4.3553    Z=             -0.0038  Tot=              4.3554
 Quadrupole moment (field-independent basis, Debye-Ang):
   XX=            -26.7048   YY=            -21.5059   ZZ=            -21.2237
   XY=              0.2192   XZ=             -0.0034   YZ=              0.0048

 Normal termination of Gaussian 16 at Fri Sep 22 16:30:29 2023.
