 Gaussian 16, Revision A.03,
 Gaussian 16:  ES64L-G16RevA.03 25-Dec-2016

 ----------------------------------------------------------------------
 #p b3lyp/gen scrf=(cpcm,solvent=toluene) pop=hirshfeld empiricaldisper
 sion=gd3bj
 ----------------------------------------------------------------------

 --------------------
 tmpdir/M2_ref_24.gjf
 --------------------
 Symbolic Z-matrix:
 Charge =  0 Multiplicity = 1

                         Standard orientation:
 ---------------------------------------------------------------------
 Center     Atomic      Atomic             Coordinates (Angstroms)
 Number     Number       Type             X           Y           Z
 ---------------------------------------------------------------------
      1          6           0        0.694366    0.523793   -0.007038
      2          6           0       -0.713149    0.497304   -0.003382
      3          1           0       -1.266188    1.431637    0.004819
      4          8           0        1.331875   -0.555887    0.001040
      5          1           0        1.236797    1.408526    0.029305
      6          8           0       -1.314114   -0.564955    0.002509
 ---------------------------------------------------------------------

 SCF Done:  E(RB3LYP) =  -227.772219014     A.U. after   11 cycles

 The electronic state is 1-A.
 Alpha  occ. eigenvalues --  -19.16199 -19.16169 -10.28942 -10.28704  -1.09765
 Alpha  occ. eigenvalues --   -1.05649  -0.75883  -0.58847  -0.56167  -0.48170
 Alpha  occ. eigenvalues --   -0.45807  -0.45425  -0.38497  -0.31481  -0.28933
 Alpha virt. eigenvalues --   -0.14136   0.02226   0.05928   0.09454   0.14652
 Alpha virt. eigenvalues --    0.26070   0.32065   0.38015   0.38843   0.44802
 Alpha virt. eigenvalues --    0.49486   0.57276   0.57817   0.61913   0.66846

 Mulliken charges:
               1
     1  C    0.263541
     2  C    0.239229
     3  H    0.070827
     4  O   -0.331133
     5  H    0.062283
     6  O   -0.304746
 Sum of Mulliken charges =  -0.00000

 Dipole moment (field-independent basis, Debye):
    X=             -0.0671    Y=              4.3513    Z=             -0.0065  Tot=              4.3518
 Quadrupole moment (field-independent basis, Debye-Ang):
   XX=            -26.5669   YY=            -21.5394   ZZ=            -21.2176
   XY=              0.1276   XZ=              0.0193   YZ=              0.0120

 Normal termination of Gaussian 16 at Fri Sep 22 16:28:16 2023.
