 Gaussian 16, Revision A.03,
 Gaussian 16:  ES64L-G16RevA.03 25-Dec-2016

 ----------------------------------------------------------------------
 #p b3lyp/gen scrf=(cpcm,solvent=toluene) pop=hirshfeld empiricaldisper
 sion=gd3bj
 ----------------------------------------------------------------------

 --------------------
 tmpdir/M2_ref_31.gjf
 --------------------
 Symbolic Z-matrix:
 Charge =  0 Multiplicity = 1

                         Standard orientation:
 ---------------------------------------------------------------------
 Center     Atomic      Atomic             Coordinates (Angstroms)
 Number     Number       Type             X           Y           Z
 ---------------------------------------------------------------------
      1          6           0       -0.684141    0.388292   -0.015111
      2          8           0        0.363619   -0.442368   -0.030973
      3          6           0        1.710616    0.074402    0.014752
      4          8           0       -1.813267   -0.155719    0.021208
      5          1           0       -0.617243    1.399666   -0.032193
      6          1           0        1.825234    0.639827    0.951029
      7          1           0        1.868286    0.754602   -0.828971
      8          1           0        2.362056   -0.785558   -0.009596
 ---------------------------------------------------------------------

 SCF Done:  E(RB3LYP) =  -229.016566675     A.U. after   11 cycles

 The electronic state is 1-A.
 Alpha  occ. eigenvalues --  -19.17970 -19.11339 -10.31320 -10.24810  -1.11528
 Alpha  occ. eigenvalues --   -1.01202  -0.74352  -0.63841  -0.55475  -0.49262
 Alpha  occ. eigenvalues --   -0.48495  -0.42773  -0.40507  -0.37066  -0.30678
 Alpha  occ. eigenvalues --   -0.28413
 Alpha virt. eigenvalues --   -0.02669   0.04532   0.08522   0.09628   0.10551
 Alpha virt. eigenvalues --    0.11208   0.22203   0.25523   0.37478   0.40110
 Alpha virt. eigenvalues --    0.42113   0.43163   0.49136   0.55867   0.58640

 Mulliken charges:
               1
     1  C    0.455721
     2  O   -0.452491
     3  C    0.045390
     4  O   -0.434097
     5  H    0.055462
     6  H    0.103610
     7  H    0.105395
     8  H    0.121009
 Sum of Mulliken charges =  -0.00000

 Dipole moment (field-independent basis, Debye):
    X=              4.6739    Y=              2.6885    Z=             -0.0130  Tot=              5.3920
 Quadrupole moment (field-independent basis, Debye-Ang):
   XX=            -26.5694   YY=            -22.7743   ZZ=            -23.1459
   XY=             -1.5117   XZ=              0.1913   YZ=             -0.0754

 Normal termination of Gaussian 16 at Fri Sep 22 16:28:02 2023.
