 Gaussian 16, Revision A.03,
 Gaussian 16:  ES64L-G16RevA.03 25-Dec-2016

 ----------------------------------------------------------------------
 #p b3lyp/gen scrf=(cpcm,solvent=toluene) pop=hirshfeld empiricaldisper
 sion=gd3bj
 ----------------------------------------------------------------------

 ---------------------
 tmpdir/M2_ref_326.gjf
 ---------------------
 Symbolic Z-matrix:
 Charge =  0 Multiplicity = 1

                         Standard orientation:
 ---------------------------------------------------------------------
 Center     Atomic      Atomic             Coordinates (Angstroms)
 Number     Number       Type             X           Y           Z
 ---------------------------------------------------------------------
      1          6           0       -0.686197   -0.006264   -0.001129
      2          6           0        0.687998   -0.006761   -0.000487
      3          1           0        1.232727    0.935188    0.006412
      4          1           0       -1.207862   -0.893371    0.007747
      5          1           0       -1.241282    0.929171   -0.001714
      6          1           0        1.205613   -0.892837   -0.002750
 ---------------------------------------------------------------------

 SCF Done:  E(RB3LYP) =  -78.5748773502     A.U. after    9 cycles

 The electronic state is 1-A.
 Alpha  occ. eigenvalues --  -10.18012 -10.17947  -0.76158  -0.59389  -0.47964
 Alpha  occ. eigenvalues --   -0.41817  -0.37346  -0.27446
 Alpha virt. eigenvalues --   -0.01128   0.06599   0.09577   0.10008   0.16177
 Alpha virt. eigenvalues --    0.27731   0.35712   0.41987   0.43543   0.51293
 Alpha virt. eigenvalues --    0.51735   0.55157   0.63558   0.65570   0.70674

 Mulliken charges:
               1
     1  C   -0.187969
     2  C   -0.183211
     3  H    0.102789
     4  H    0.083386
     5  H    0.102363
     6  H    0.082641
 Sum of Mulliken charges =  -0.00000

 Dipole moment (field-independent basis, Debye):
    X=             -0.0042    Y=             -0.0273    Z=              0.0104  Tot=              0.0295
 Quadrupole moment (field-independent basis, Debye-Ang):
   XX=            -12.3763   YY=            -12.3056   ZZ=            -15.6512
   XY=             -0.0090   XZ=             -0.0030   YZ=             -0.0001

 Normal termination of Gaussian 16 at Fri Sep 22 16:30:55 2023.
