 Gaussian 16, Revision A.03,
 Gaussian 16:  ES64L-G16RevA.03 25-Dec-2016

 ----------------------------------------------------------------------
 #p b3lyp/gen scrf=(cpcm,solvent=toluene) pop=hirshfeld empiricaldisper
 sion=gd3bj
 ----------------------------------------------------------------------

 ---------------------
 tmpdir/M2_ref_212.gjf
 ---------------------
 Symbolic Z-matrix:
 Charge =  0 Multiplicity = 1

                         Standard orientation:
 ---------------------------------------------------------------------
 Center     Atomic      Atomic             Coordinates (Angstroms)
 Number     Number       Type             X           Y           Z
 ---------------------------------------------------------------------
      1          6           0       -0.561208   -0.016388   -0.003944
      2          1           0       -1.122988    0.914360    0.007907
      3          8           0        0.693719    0.007631    0.000877
      4          1           0       -1.059514   -0.877081    0.008746
 ---------------------------------------------------------------------

 SCF Done:  E(RB3LYP) =  -114.476599638     A.U. after    9 cycles

 The electronic state is 1-A.
 Alpha  occ. eigenvalues --  -19.14125 -10.27373  -1.04330  -0.66229  -0.50921
 Alpha  occ. eigenvalues --   -0.44981  -0.39107  -0.27704
 Alpha virt. eigenvalues --   -0.06456   0.06631   0.11846   0.17421   0.40521
 Alpha virt. eigenvalues --    0.48165   0.52023   0.57175   0.62360   0.73269
 Alpha virt. eigenvalues --    0.79258   0.87480   0.97648   1.32316   1.49062

 Mulliken charges:
               1
     1  C    0.241656
     2  H    0.086827
     3  O   -0.393838
     4  H    0.065354
 Sum of Mulliken charges =  -0.00000

 Dipole moment (field-independent basis, Debye):
    X=             -2.9483    Y=             -0.1133    Z=              0.0027  Tot=              2.9505
 Quadrupole moment (field-independent basis, Debye-Ang):
   XX=            -11.9165   YY=            -11.4819   ZZ=            -11.5729
   XY=              0.0585   XZ=             -0.0083   YZ=              0.0010

 Normal termination of Gaussian 16 at Fri Sep 22 16:29:46 2023.
