 Gaussian 16, Revision A.03,
 Gaussian 16:  ES64L-G16RevA.03 25-Dec-2016

 ----------------------------------------------------------------------
 #p b3lyp/gen scrf=(cpcm,solvent=toluene) pop=hirshfeld empiricaldisper
 sion=gd3bj
 ----------------------------------------------------------------------

 ---------------------
 tmpdir/M2_ref_244.gjf
 ---------------------
 Symbolic Z-matrix:
 Charge =  0 Multiplicity = 1

                         Standard orientation:
 ---------------------------------------------------------------------
 Center     Atomic      Atomic             Coordinates (Angstroms)
 Number     Number       Type             X           Y           Z
 ---------------------------------------------------------------------
      1          7           0        1.072255   -0.801949    0.030499
      2          6           0        0.001431    0.101575   -0.007238
      3          6           0       -1.445632   -0.266989    0.004869
      4          1           0        1.906212   -0.309673    0.034455
      5          1           0        1.015662   -1.811672   -0.175130
      6          8           0        0.466272    1.219588   -0.011703
      7          1           0       -2.032105    0.643616   -0.157582
      8          1           0       -1.720141   -0.981052   -0.780157
      9          1           0       -1.740382   -0.691800    0.972762
 ---------------------------------------------------------------------

 SCF Done:  E(RB3LYP) =  -209.180167006     A.U. after   11 cycles

 The electronic state is 1-A.
 Alpha  occ. eigenvalues --  -19.08593 -14.32249 -10.28480 -10.19186  -1.05672
 Alpha  occ. eigenvalues --   -0.88286  -0.75606  -0.57744  -0.53834  -0.47910
 Alpha  occ. eigenvalues --   -0.45588  -0.42320  -0.40047  -0.37866  -0.26860
 Alpha  occ. eigenvalues --   -0.25706
 Alpha virt. eigenvalues --    0.01095   0.03993   0.07981   0.10381   0.11443
 Alpha virt. eigenvalues --    0.12131   0.18947   0.25593   0.30346   0.41031
 Alpha virt. eigenvalues --    0.41777   0.46338   0.47668   0.49578   0.50967

 Mulliken charges:
               1
     1  N   -0.360551
     2  C    0.226879
     3  C   -0.149256
     4  H    0.167200
     5  H    0.182909
     6  O   -0.433770
     7  H    0.114822
     8  H    0.120650
     9  H    0.131118
 Sum of Mulliken charges =  -0.00000

 Dipole moment (field-independent basis, Debye):
    X=             -1.0339    Y=             -3.8489    Z=             -0.3114  Tot=              3.9975
 Quadrupole moment (field-independent basis, Debye-Ang):
   XX=            -20.4665   YY=            -26.0762   ZZ=            -24.9357
   XY=             -1.9438   XZ=             -0.3591   YZ=              0.7434

 Normal termination of Gaussian 16 at Fri Sep 22 16:30:00 2023.
