 Gaussian 16, Revision A.03,
 Gaussian 16:  ES64L-G16RevA.03 25-Dec-2016

 ----------------------------------------------------------------------
 #p b3lyp/gen scrf=(cpcm,solvent=toluene) pop=hirshfeld empiricaldisper
 sion=gd3bj
 ----------------------------------------------------------------------

 ---------------------
 tmpdir/M2_ref_246.gjf
 ---------------------
 Symbolic Z-matrix:
 Charge =  0 Multiplicity = 1

                         Standard orientation:
 ---------------------------------------------------------------------
 Center     Atomic      Atomic             Coordinates (Angstroms)
 Number     Number       Type             X           Y           Z
 ---------------------------------------------------------------------
      1          6           0       -0.705760    0.555148   -0.006905
      2          6           0        0.718489    0.526916   -0.011042
      3          6           0       -1.149547   -0.768625   -0.005813
      4          1           0       -1.277988    1.441724    0.074592
      5          6           0        1.121460   -0.785809    0.013090
      6          1           0        1.370138    1.392494   -0.010573
 ---------------------------------------------------------------------

 SCF Done:  E(RB3LYP) =  -153.275422399     A.U. after   14 cycles

 The electronic state is 1-A.
 Alpha  occ. eigenvalues --  -10.27039 -10.26560 -10.22552 -10.22353  -0.87936
 Alpha  occ. eigenvalues --   -0.71796  -0.62054  -0.50488  -0.49921  -0.37781
 Alpha  occ. eigenvalues --   -0.35015  -0.30245  -0.24612
 Alpha virt. eigenvalues --   -0.16394  -0.08326  -0.06450   0.04310   0.06292
 Alpha virt. eigenvalues --    0.09179   0.18664   0.27255   0.28711   0.35383
 Alpha virt. eigenvalues --    0.40135   0.41876   0.44588   0.45620   0.46382

 Mulliken charges:
               1
     1  C   -0.102052
     2  C   -0.121915
     3  C   -0.029613
     4  H    0.136229
     5  C   -0.035203
     6  H    0.152555
 Sum of Mulliken charges =   0.00000

 Dipole moment (field-independent basis, Debye):
    X=              0.0930    Y=              4.3132    Z=              0.0953  Tot=              4.3152
 Quadrupole moment (field-independent basis, Debye-Ang):
   XX=            -22.4939   YY=            -25.1502   ZZ=            -26.3876
   XY=              0.0704   XZ=             -0.4959   YZ=              0.1469

 Normal termination of Gaussian 16 at Fri Sep 22 16:30:22 2023.
