 Gaussian 16, Revision A.03,
 Gaussian 16:  ES64L-G16RevA.03 25-Dec-2016

 ----------------------------------------------------------------------
 #p b3lyp/gen scrf=(cpcm,solvent=toluene) pop=hirshfeld empiricaldisper
 sion=gd3bj
 ----------------------------------------------------------------------

 ---------------------
 tmpdir/M2_ref_393.gjf
 ---------------------
 Symbolic Z-matrix:
 Charge =  0 Multiplicity = 1

                         Standard orientation:
 ---------------------------------------------------------------------
 Center     Atomic      Atomic             Coordinates (Angstroms)
 Number     Number       Type             X           Y           Z
 ---------------------------------------------------------------------
      1          6           0       -0.808046    0.473977    0.002889
      2          6           0        0.598204    0.635515   -0.005585
      3          6           0        1.423347   -0.466420    0.002386
      4          8           0       -1.299257   -0.635794   -0.002393
      5          1           0       -1.448025    1.353876    0.019756
      6          1           0        1.025146    1.636758   -0.009522
      7          1           0        1.029957   -1.417051   -0.000133
      8          1           0        2.505950   -0.345661    0.010901
 ---------------------------------------------------------------------

 SCF Done:  E(RB3LYP) =  -191.883821315     A.U. after   11 cycles

 The electronic state is 1-A.
 Alpha  occ. eigenvalues --  -19.11981 -10.26390 -10.20855 -10.19626  -1.05781
 Alpha  occ. eigenvalues --   -0.80154  -0.67594  -0.55596  -0.52441  -0.46010
 Alpha  occ. eigenvalues --   -0.42919  -0.41286  -0.39694  -0.28950  -0.26931
 Alpha virt. eigenvalues --   -0.08897   0.05446   0.05634   0.08097   0.10790
 Alpha virt. eigenvalues --    0.13292   0.22046   0.25392   0.28903   0.40128
 Alpha virt. eigenvalues --    0.41780   0.45152   0.46141   0.48020   0.51677

 Mulliken charges:
               1
     1  C    0.301730
     2  C   -0.272661
     3  C   -0.011745
     4  O   -0.374755
     5  H    0.055473
     6  H    0.088900
     7  H    0.092005
     8  H    0.121052
 Sum of Mulliken charges =  -0.00000

 Dipole moment (field-independent basis, Debye):
    X=              2.3471    Y=              1.9844    Z=              0.0198  Tot=              3.0737
 Quadrupole moment (field-independent basis, Debye-Ang):
   XX=            -23.9043   YY=            -22.5286   ZZ=            -24.9969
   XY=             -3.4923   XZ=              0.0021   YZ=             -0.0087

 Normal termination of Gaussian 16 at Fri Sep 22 16:32:11 2023.
