 Gaussian 16, Revision A.03,
 Gaussian 16:  ES64L-G16RevA.03 25-Dec-2016

 ----------------------------------------------------------------------
 #p b3lyp/gen scrf=(cpcm,solvent=toluene) pop=hirshfeld empiricaldisper
 sion=gd3bj
 ----------------------------------------------------------------------

 ---------------------
 tmpdir/M2_ref_238.gjf
 ---------------------
 Symbolic Z-matrix:
 Charge =  0 Multiplicity = 1

                         Standard orientation:
 ---------------------------------------------------------------------
 Center     Atomic      Atomic             Coordinates (Angstroms)
 Number     Number       Type             X           Y           Z
 ---------------------------------------------------------------------
      1          7           0       -1.073450   -0.223866   -0.022860
      2          6           0        0.043431    0.591548    0.001536
      3          6           0        1.168110   -0.235747    0.000369
      4          1           0       -0.788966   -1.162999   -0.036859
      5          1           0       -2.022412    0.114562    0.200670
      6          1           0        0.037015    1.655631   -0.089693
      7          1           0        0.833689   -1.210696   -0.031471
      8          1           0        2.185579    0.035757    0.105947
 ---------------------------------------------------------------------

 SCF Done:  E(RB3LYP) =  -133.900786300     A.U. after   11 cycles

 The electronic state is 1-A.
 Alpha  occ. eigenvalues --  -14.31477 -10.21523 -10.14083  -0.91771  -0.71548
 Alpha  occ. eigenvalues --   -0.60199  -0.53403  -0.46494  -0.40177  -0.39187
 Alpha  occ. eigenvalues --   -0.34396  -0.19253
 Alpha virt. eigenvalues --    0.01491   0.05363   0.07408   0.09605   0.12349
 Alpha virt. eigenvalues --    0.17794   0.24630   0.26238   0.41146   0.44318
 Alpha virt. eigenvalues --    0.45717   0.50088   0.51417   0.53042   0.56304

 Mulliken charges:
               1
     1  N   -0.355544
     2  C    0.001268
     3  C   -0.211662
     4  H    0.166255
     5  H    0.192642
     6  H    0.088880
     7  H    0.040398
     8  H    0.077763
 Sum of Mulliken charges =  -0.00000

 Dipole moment (field-independent basis, Debye):
    X=             -1.8135    Y=              0.2347    Z=              0.4017  Tot=              1.8723
 Quadrupole moment (field-independent basis, Debye-Ang):
   XX=            -17.2961   YY=            -16.3330   ZZ=            -22.8838
   XY=              0.1666   XZ=             -0.6472   YZ=              0.0366

 Normal termination of Gaussian 16 at Fri Sep 22 16:30:11 2023.
