 Gaussian 16, Revision A.03,
 Gaussian 16:  ES64L-G16RevA.03 25-Dec-2016

 ----------------------------------------------------------------------
 #p b3lyp/gen scrf=(cpcm,solvent=toluene) pop=hirshfeld empiricaldisper
 sion=gd3bj
 ----------------------------------------------------------------------

 ---------------------
 tmpdir/M2_ref_171.gjf
 ---------------------
 Symbolic Z-matrix:
 Charge =  0 Multiplicity = 1

                         Standard orientation:
 ---------------------------------------------------------------------
 Center     Atomic      Atomic             Coordinates (Angstroms)
 Number     Number       Type             X           Y           Z
 ---------------------------------------------------------------------
      1          1           0       -1.118518   -0.823368   -0.615162
      2          6           0       -0.736053   -0.001786   -0.004139
      3          7           0        0.739292   -0.029536    0.011834
      4          1           0       -0.959821    0.990996   -0.432263
      5          1           0       -1.123488   -0.092987    1.019016
      6          1           0        1.281910   -0.787993   -0.027093
      7          1           0        1.161189    0.930816   -0.002500
 ---------------------------------------------------------------------

 SCF Done:  E(RB3LYP) =  -95.8272111702     A.U. after    9 cycles

 The electronic state is 1-A.
 Alpha  occ. eigenvalues --  -14.27217 -10.19384  -0.85673  -0.65920  -0.50340
 Alpha  occ. eigenvalues --   -0.41737  -0.41428  -0.37899  -0.20764
 Alpha virt. eigenvalues --    0.04803   0.08424   0.09905   0.12524   0.15783
 Alpha virt. eigenvalues --    0.19937   0.41460   0.43733   0.45011   0.54745
 Alpha virt. eigenvalues --    0.60694   0.62561   0.65285   0.70851   0.71999

 Mulliken charges:
               1
     1  H    0.084606
     2  C   -0.021420
     3  N   -0.529034
     4  H    0.083295
     5  H    0.075750
     6  H    0.130020
     7  H    0.176784
 Sum of Mulliken charges =  -0.00000

 Dipole moment (field-independent basis, Debye):
    X=              0.0639    Y=              0.1736    Z=             -0.1870  Tot=              0.2630
 Quadrupole moment (field-independent basis, Debye-Ang):
   XX=            -13.2373   YY=            -12.0238   ZZ=            -15.6905
   XY=              0.0813   XZ=             -0.0660   YZ=              0.0259

 Normal termination of Gaussian 16 at Fri Sep 22 16:28:40 2023.
