 Gaussian 16, Revision A.03,
 Gaussian 16:  ES64L-G16RevA.03 25-Dec-2016

 ----------------------------------------------------------------------
 #p b3lyp/gen scrf=(cpcm,solvent=toluene) pop=hirshfeld empiricaldisper
 sion=gd3bj
 ----------------------------------------------------------------------

 ---------------------
 tmpdir/M2_ref_385.gjf
 ---------------------
 Symbolic Z-matrix:
 Charge =  0 Multiplicity = 1

                         Standard orientation:
 ---------------------------------------------------------------------
 Center     Atomic      Atomic             Coordinates (Angstroms)
 Number     Number       Type             X           Y           Z
 ---------------------------------------------------------------------
      1          6           0       -1.424850   -0.464649   -0.004313
      2          6           0       -0.596970    0.635180    0.000509
      3          6           0        0.809322    0.473882   -0.005044
      4          1           0       -1.033327   -1.414550   -0.019074
      5          1           0       -2.504617   -0.344396    0.023533
      6          1           0       -1.020972    1.637236    0.014190
      7          8           0        1.297735   -0.637139    0.005548
      8          1           0        1.452023    1.352342   -0.009948
 ---------------------------------------------------------------------

 SCF Done:  E(RB3LYP) =  -191.883634704     A.U. after   11 cycles

 The electronic state is 1-A.
 Alpha  occ. eigenvalues --  -19.11977 -10.26393 -10.20818 -10.19621  -1.05782
 Alpha  occ. eigenvalues --   -0.80148  -0.67616  -0.55619  -0.52440  -0.46009
 Alpha  occ. eigenvalues --   -0.42977  -0.41283  -0.39682  -0.28944  -0.26928
 Alpha virt. eigenvalues --   -0.08899   0.05462   0.05636   0.08114   0.10789
 Alpha virt. eigenvalues --    0.13309   0.22045   0.25402   0.28913   0.40125
 Alpha virt. eigenvalues --    0.41726   0.45234   0.46142   0.47993   0.51696

 Mulliken charges:
               1
     1  C   -0.009337
     2  C   -0.273180
     3  C    0.301397
     4  H    0.091196
     5  H    0.120371
     6  H    0.088476
     7  O   -0.374681
     8  H    0.055757
 Sum of Mulliken charges =  -0.00000

 Dipole moment (field-independent basis, Debye):
    X=             -2.3371    Y=              1.9879    Z=             -0.0059  Tot=              3.0681
 Quadrupole moment (field-independent basis, Debye-Ang):
   XX=            -23.8812   YY=            -22.5391   ZZ=            -24.9917
   XY=              3.5118   XZ=             -0.0775   YZ=              0.0392

 Normal termination of Gaussian 16 at Fri Sep 22 16:31:53 2023.
