 Gaussian 16, Revision A.03,
 Gaussian 16:  ES64L-G16RevA.03 25-Dec-2016

 ----------------------------------------------------------------------
 #p b3lyp/gen scrf=(cpcm,solvent=toluene) pop=hirshfeld empiricaldisper
 sion=gd3bj
 ----------------------------------------------------------------------

 ---------------------
 tmpdir/M2_ref_119.gjf
 ---------------------
 Symbolic Z-matrix:
 Charge =  0 Multiplicity = 1

                         Standard orientation:
 ---------------------------------------------------------------------
 Center     Atomic      Atomic             Coordinates (Angstroms)
 Number     Number       Type             X           Y           Z
 ---------------------------------------------------------------------
      1          6           0       -1.266891   -0.274726    0.007592
      2          6           0        0.011288    0.627775    0.010671
      3          6           0        1.251267   -0.279834   -0.002296
      4          1           0       -2.211877    0.348215   -0.074435
      5          1           0       -1.218674   -0.904887   -0.881752
      6          1           0       -1.327379   -0.911606    0.911254
      7          1           0        0.059741    1.303069    0.893896
      8          1           0       -0.005348    1.233541   -0.923210
      9          1           0        1.310810   -0.905926    0.896928
     10          1           0        1.259257   -0.936493   -0.881990
     11          1           0        2.159488    0.334805   -0.036490
 ---------------------------------------------------------------------

 SCF Done:  E(RB3LYP) =  -119.130220461     A.U. after   10 cycles

 The electronic state is 1-A.
 Alpha  occ. eigenvalues --  -10.17566 -10.16897 -10.16333  -0.77743  -0.67551
 Alpha  occ. eigenvalues --   -0.58247  -0.45855  -0.43190  -0.39525  -0.38259
 Alpha  occ. eigenvalues --   -0.34019  -0.33545  -0.32965
 Alpha virt. eigenvalues --    0.04611   0.08580   0.08815   0.08888   0.11407
 Alpha virt. eigenvalues --    0.13551   0.14084   0.15543   0.18642   0.22577
 Alpha virt. eigenvalues --    0.37524   0.38878   0.40143   0.40385   0.40932

 Mulliken charges:
               1
     1  C   -0.229644
     2  C   -0.251645
     3  C   -0.215960
     4  H    0.090078
     5  H    0.082579
     6  H    0.089237
     7  H    0.093660
     8  H    0.091108
     9  H    0.084426
    10  H    0.082722
    11  H    0.083438
 Sum of Mulliken charges =  -0.00000

 Dipole moment (field-independent basis, Debye):
    X=              0.0622    Y=              0.0416    Z=             -0.0406  Tot=              0.0852
 Quadrupole moment (field-independent basis, Debye-Ang):
   XX=            -22.9142   YY=            -22.3232   ZZ=            -21.5681
   XY=              0.0234   XZ=              0.0924   YZ=             -0.0196

 Normal termination of Gaussian 16 at Fri Sep 22 16:28:56 2023.
