 Gaussian 16, Revision A.03,
 Gaussian 16:  ES64L-G16RevA.03 25-Dec-2016

 ----------------------------------------------------------------------
 #p b3lyp/gen scrf=(cpcm,solvent=toluene) pop=hirshfeld empiricaldisper
 sion=gd3bj
 ----------------------------------------------------------------------

 ---------------------
 tmpdir/M2_ref_195.gjf
 ---------------------
 Symbolic Z-matrix:
 Charge =  0 Multiplicity = 1

                         Standard orientation:
 ---------------------------------------------------------------------
 Center     Atomic      Atomic             Coordinates (Angstroms)
 Number     Number       Type             X           Y           Z
 ---------------------------------------------------------------------
      1          6           0        0.760855   -0.025642    0.002216
      2          6           0       -0.771060   -0.001681   -0.003797
      3          1           0       -1.174369   -0.446852   -0.917113
      4          1           0        1.156596    0.400818    0.967504
      5          1           0        1.168060    0.744438   -0.790213
      6          1           0        1.189837   -1.029349   -0.183202
      7          1           0       -1.164799   -0.542073    0.864197
      8          1           0       -1.114095    1.036954    0.068315
 ---------------------------------------------------------------------

 SCF Done:  E(RB3LYP) =  -79.8172944262     A.U. after    9 cycles

 The electronic state is 1-A.
 Alpha  occ. eigenvalues --  -10.17690 -10.16624  -0.75113  -0.60936  -0.43931
 Alpha  occ. eigenvalues --   -0.42899  -0.36817  -0.34878  -0.33393
 Alpha virt. eigenvalues --    0.04739   0.08917   0.09936   0.10362   0.13396
 Alpha virt. eigenvalues --    0.13949   0.21316   0.37356   0.38291   0.39399
 Alpha virt. eigenvalues --    0.46410   0.48258   0.58058   0.60765   0.63345

 Mulliken charges:
               1
     1  C   -0.295753
     2  C   -0.242306
     3  H    0.089788
     4  H    0.089153
     5  H    0.087384
     6  H    0.097689
     7  H    0.087406
     8  H    0.086638
 Sum of Mulliken charges =  -0.00000

 Dipole moment (field-independent basis, Debye):
    X=             -0.0671    Y=              0.0165    Z=              0.0489  Tot=              0.0847
 Quadrupole moment (field-independent basis, Debye-Ang):
   XX=            -16.0453   YY=            -14.9242   ZZ=            -15.2427
   XY=             -0.0145   XZ=              0.0632   YZ=              0.0984

 Normal termination of Gaussian 16 at Fri Sep 22 16:29:44 2023.
