 Gaussian 16, Revision A.03,
 Gaussian 16:  ES64L-G16RevA.03 25-Dec-2016

 ----------------------------------------------------------------------
 #p b3lyp/gen scrf=(cpcm,solvent=toluene) pop=hirshfeld empiricaldisper
 sion=gd3bj
 ----------------------------------------------------------------------

 ---------------------
 tmpdir/M2_ref_311.gjf
 ---------------------
 Symbolic Z-matrix:
 Charge =  0 Multiplicity = 1

                         Standard orientation:
 ---------------------------------------------------------------------
 Center     Atomic      Atomic             Coordinates (Angstroms)
 Number     Number       Type             X           Y           Z
 ---------------------------------------------------------------------
      1          6           0       -1.418372   -0.479529   -0.001970
      2          6           0       -0.610158    0.633915   -0.002820
      3          6           0        0.804644    0.511204    0.007237
      4          1           0       -1.012042   -1.425987   -0.001972
      5          1           0       -2.499118   -0.358774    0.024813
      6          1           0       -1.049875    1.628381   -0.019713
      7          8           0        1.308925   -0.645105   -0.002833
      8          1           0        1.432949    1.323680    0.004857
 ---------------------------------------------------------------------

 SCF Done:  E(RB3LYP) =  -191.877811735     A.U. after   11 cycles

 The electronic state is 1-A.
 Alpha  occ. eigenvalues --  -19.11810 -10.26354 -10.20951 -10.19878  -1.03190
 Alpha  occ. eigenvalues --   -0.80133  -0.68130  -0.56602  -0.52396  -0.45552
 Alpha  occ. eigenvalues --   -0.43006  -0.39994  -0.39375  -0.28756  -0.26875
 Alpha virt. eigenvalues --   -0.09456   0.04674   0.05712   0.08312   0.10847
 Alpha virt. eigenvalues --    0.13322   0.21211   0.25343   0.28598   0.40333
 Alpha virt. eigenvalues --    0.41606   0.45597   0.46293   0.47881   0.51730

 Mulliken charges:
               1
     1  C   -0.001874
     2  C   -0.274662
     3  C    0.340765
     4  H    0.093773
     5  H    0.121010
     6  H    0.089085
     7  O   -0.416058
     8  H    0.047961
 Sum of Mulliken charges =  -0.00000

 Dipole moment (field-independent basis, Debye):
    X=             -2.4184    Y=              2.2078    Z=              0.0206  Tot=              3.2747
 Quadrupole moment (field-independent basis, Debye-Ang):
   XX=            -23.9220   YY=            -22.3117   ZZ=            -25.0318
   XY=              3.8303   XZ=             -0.0191   YZ=             -0.0312

 Normal termination of Gaussian 16 at Fri Sep 22 16:31:32 2023.
