 Gaussian 16, Revision A.03,
 Gaussian 16:  ES64L-G16RevA.03 25-Dec-2016

 ----------------------------------------------------------------------
 #p b3lyp/gen scrf=(cpcm,solvent=toluene) pop=hirshfeld empiricaldisper
 sion=gd3bj
 ----------------------------------------------------------------------

 -------------------
 tmpdir/M2_ref_3.gjf
 -------------------
 Symbolic Z-matrix:
 Charge =  0 Multiplicity = 1

                         Standard orientation:
 ---------------------------------------------------------------------
 Center     Atomic      Atomic             Coordinates (Angstroms)
 Number     Number       Type             X           Y           Z
 ---------------------------------------------------------------------
      1          6           0        1.435723   -0.483515   -0.000065
      2          6           0        0.584433    0.655789   -0.007895
      3          6           0       -0.811963    0.477276   -0.002976
      4          1           0        1.028122   -1.411686   -0.002329
      5          1           0        2.513839   -0.276049    0.010260
      6          1           0        1.028064    1.593966    0.028444
      7          8           0       -1.294551   -0.643733    0.002874
      8          1           0       -1.462771    1.346335    0.006244
 ---------------------------------------------------------------------

 SCF Done:  E(RB3LYP) =  -191.874168722     A.U. after   11 cycles

 The electronic state is 1-A.
 Alpha  occ. eigenvalues --  -19.11827 -10.26303 -10.21472 -10.19586  -1.05296
 Alpha  occ. eigenvalues --   -0.79788  -0.67733  -0.55918  -0.52858  -0.45893
 Alpha  occ. eigenvalues --   -0.42229  -0.40999  -0.40552  -0.28397  -0.26870
 Alpha virt. eigenvalues --   -0.09447   0.05053   0.05818   0.08142   0.11005
 Alpha virt. eigenvalues --    0.13347   0.21726   0.24173   0.29254   0.40340
 Alpha virt. eigenvalues --    0.41737   0.46226   0.46324   0.48118   0.51464

 Mulliken charges:
               1
     1  C   -0.010210
     2  C   -0.250387
     3  C    0.307039
     4  H    0.087672
     5  H    0.127636
     6  H    0.066585
     7  O   -0.384055
     8  H    0.055721
 Sum of Mulliken charges =  -0.00000

 Dipole moment (field-independent basis, Debye):
    X=              2.4391    Y=              2.0430    Z=              0.0320  Tot=              3.1819
 Quadrupole moment (field-independent basis, Debye-Ang):
   XX=            -23.7952   YY=            -22.5742   ZZ=            -25.0638
   XY=             -3.3376   XZ=              0.0727   YZ=              0.0575

 Normal termination of Gaussian 16 at Fri Sep 22 16:27:57 2023.
