 Gaussian 16, Revision A.03,
 Gaussian 16:  ES64L-G16RevA.03 25-Dec-2016

 ----------------------------------------------------------------------
 #p b3lyp/gen scrf=(cpcm,solvent=toluene) pop=hirshfeld empiricaldisper
 sion=gd3bj
 ----------------------------------------------------------------------

 ---------------------
 tmpdir/M2_ref_107.gjf
 ---------------------
 Symbolic Z-matrix:
 Charge =  0 Multiplicity = 1

                         Standard orientation:
 ---------------------------------------------------------------------
 Center     Atomic      Atomic             Coordinates (Angstroms)
 Number     Number       Type             X           Y           Z
 ---------------------------------------------------------------------
      1          7           0        1.221664   -0.269175   -0.019111
      2          6           0        0.058357    0.582453    0.057485
      3          6           0       -1.263436   -0.250304   -0.029926
      4          1           0        2.068302    0.005172   -0.352021
      5          1           0        1.163578   -1.219908    0.360598
      6          1           0        0.085357    1.242925   -0.810505
      7          1           0        0.108389    1.185428    0.984737
      8          1           0       -2.124410    0.453537   -0.057605
      9          1           0       -1.388906   -0.950473    0.825922
     10          1           0       -1.233482   -0.825351   -0.982705
 ---------------------------------------------------------------------

 SCF Done:  E(RB3LYP) =  -135.146959216     A.U. after   10 cycles

 The electronic state is 1-A.
 Alpha  occ. eigenvalues --  -14.27228 -10.19769 -10.17150  -0.86973  -0.72236
 Alpha  occ. eigenvalues --   -0.60664  -0.50114  -0.44975  -0.43367  -0.37521
 Alpha  occ. eigenvalues --   -0.36079  -0.35008  -0.20944
 Alpha virt. eigenvalues --    0.05027   0.07999   0.08672   0.10083   0.12045
 Alpha virt. eigenvalues --    0.13430   0.14453   0.20558   0.22842   0.39251
 Alpha virt. eigenvalues --    0.40811   0.42684   0.47675   0.54378   0.55624

 Mulliken charges:
               1
     1  N   -0.488925
     2  C    0.011173
     3  C   -0.247017
     4  H    0.136087
     5  H    0.165008
     6  H    0.080672
     7  H    0.073796
     8  H    0.089531
     9  H    0.094377
    10  H    0.085298
 Sum of Mulliken charges =  -0.00000

 Dipole moment (field-independent basis, Debye):
    X=              0.1948    Y=             -0.1036    Z=             -0.0005  Tot=              0.2207
 Quadrupole moment (field-independent basis, Debye-Ang):
   XX=            -19.7529   YY=            -19.9966   ZZ=            -21.6679
   XY=             -0.4550   XZ=             -0.6348   YZ=             -1.2349

 Normal termination of Gaussian 16 at Fri Sep 22 16:28:33 2023.
