 Gaussian 16, Revision A.03,
 Gaussian 16:  ES64L-G16RevA.03 25-Dec-2016

 ----------------------------------------------------------------------
 #p b3lyp/gen scrf=(cpcm,solvent=toluene) pop=hirshfeld empiricaldisper
 sion=gd3bj
 ----------------------------------------------------------------------

 ---------------------
 tmpdir/M2_ref_214.gjf
 ---------------------
 Symbolic Z-matrix:
 Charge =  0 Multiplicity = 1

                         Standard orientation:
 ---------------------------------------------------------------------
 Center     Atomic      Atomic             Coordinates (Angstroms)
 Number     Number       Type             X           Y           Z
 ---------------------------------------------------------------------
      1          6           0       -0.713289   -0.013260   -0.007682
      2          6           0        0.710353   -0.007868    0.005227
      3          1           0        1.251141    0.933620   -0.051144
      4          1           0       -1.273535    0.939494    0.057256
      5          1           0       -1.187918   -0.889778   -0.029457
      6          1           0        1.227927   -0.856572    0.038079
 ---------------------------------------------------------------------

 SCF Done:  E(RB3LYP) =  -78.5598462788     A.U. after    9 cycles

 The electronic state is 1-A.
 Alpha  occ. eigenvalues --  -10.18572 -10.18334  -0.75437  -0.60264  -0.47943
 Alpha  occ. eigenvalues --   -0.41210  -0.38279  -0.26725
 Alpha virt. eigenvalues --   -0.02209   0.06558   0.09855   0.10096   0.15961
 Alpha virt. eigenvalues --    0.26393   0.36504   0.41479   0.44061   0.50773
 Alpha virt. eigenvalues --    0.52330   0.53338   0.64693   0.64958   0.70330

 Mulliken charges:
               1
     1  C   -0.184522
     2  C   -0.180995
     3  H    0.105105
     4  H    0.113079
     5  H    0.074253
     6  H    0.073079
 Sum of Mulliken charges =   0.00000

 Dipole moment (field-independent basis, Debye):
    X=              0.0151    Y=             -0.0356    Z=              0.0163  Tot=              0.0420
 Quadrupole moment (field-independent basis, Debye-Ang):
   XX=            -12.2757   YY=            -12.3172   ZZ=            -15.7496
   XY=             -0.0536   XZ=             -0.0586   YZ=              0.0014

 Normal termination of Gaussian 16 at Fri Sep 22 16:30:06 2023.
