 Gaussian 16, Revision A.03,
 Gaussian 16:  ES64L-G16RevA.03 25-Dec-2016

 ----------------------------------------------------------------------
 #p b3lyp/gen scrf=(cpcm,solvent=toluene) pop=hirshfeld empiricaldisper
 sion=gd3bj
 ----------------------------------------------------------------------

 ---------------------
 tmpdir/M2_ref_237.gjf
 ---------------------
 Symbolic Z-matrix:
 Charge =  0 Multiplicity = 1

                         Standard orientation:
 ---------------------------------------------------------------------
 Center     Atomic      Atomic             Coordinates (Angstroms)
 Number     Number       Type             X           Y           Z
 ---------------------------------------------------------------------
      1          6           0        0.677895    0.412480    0.168566
      2          6           0       -0.756769    0.441901   -0.174381
      3          1           0        1.177871    1.093374    0.852843
      4          6           0        1.597121   -0.576396   -0.187064
      5          6           0       -1.515040   -0.659904    0.170339
      6          1           0       -1.197106    1.198141   -0.717604
 ---------------------------------------------------------------------

 SCF Done:  E(RB3LYP) =  -153.296104884     A.U. after   13 cycles

 The electronic state is 1-A.
 Alpha  occ. eigenvalues --  -10.27926 -10.27534 -10.23310 -10.22535  -0.84757
 Alpha  occ. eigenvalues --   -0.74950  -0.59308  -0.52736  -0.50118  -0.34718
 Alpha  occ. eigenvalues --   -0.32940  -0.30758  -0.28440
 Alpha virt. eigenvalues --   -0.13476  -0.11963  -0.05103  -0.01196   0.07197
 Alpha virt. eigenvalues --    0.08495   0.22475   0.24627   0.25928   0.37619
 Alpha virt. eigenvalues --    0.39873   0.41186   0.42018   0.44622   0.48025

 Mulliken charges:
               1
     1  C   -0.207144
     2  C   -0.127099
     3  H    0.175564
     4  C    0.011122
     5  C    0.004904
     6  H    0.142652
 Sum of Mulliken charges =  -0.00000

 Dipole moment (field-independent basis, Debye):
    X=             -0.1702    Y=              3.1628    Z=              0.0311  Tot=              3.1675
 Quadrupole moment (field-independent basis, Debye-Ang):
   XX=            -28.0717   YY=            -25.3589   ZZ=            -24.5546
   XY=             -0.3048   XZ=              3.9976   YZ=              0.3464

 Normal termination of Gaussian 16 at Fri Sep 22 16:29:59 2023.
