 Gaussian 16, Revision A.03,
 Gaussian 16:  ES64L-G16RevA.03 25-Dec-2016

 ----------------------------------------------------------------------
 #p b3lyp/gen scrf=(cpcm,solvent=toluene) pop=hirshfeld empiricaldisper
 sion=gd3bj
 ----------------------------------------------------------------------

 ---------------------
 tmpdir/M2_ref_270.gjf
 ---------------------
 Symbolic Z-matrix:
 Charge =  0 Multiplicity = 1

                         Standard orientation:
 ---------------------------------------------------------------------
 Center     Atomic      Atomic             Coordinates (Angstroms)
 Number     Number       Type             X           Y           Z
 ---------------------------------------------------------------------
      1          6           0       -0.852281    0.451866   -0.010331
      2          8           0        0.471048    0.716060    0.016666
      3          6           0        1.398424   -0.388644   -0.009598
      4          1           0       -1.442803    1.330004   -0.026510
      5          8           0       -1.304256   -0.683741    0.003365
      6          1           0        1.511268   -0.763833    1.016118
      7          1           0        0.979842   -1.198269   -0.615525
      8          1           0        2.340507   -0.005785   -0.414758
 ---------------------------------------------------------------------

 SCF Done:  E(RB3LYP) =  -229.034445086     A.U. after   11 cycles

 The electronic state is 1-A.
 Alpha  occ. eigenvalues --  -19.17662 -19.12420 -10.31495 -10.23890  -1.11579
 Alpha  occ. eigenvalues --   -1.02795  -0.74685  -0.60938  -0.54337  -0.48810
 Alpha  occ. eigenvalues --   -0.48303  -0.43762  -0.40396  -0.36621  -0.31615
 Alpha  occ. eigenvalues --   -0.29529
 Alpha virt. eigenvalues --   -0.01389   0.05931   0.08111   0.10160   0.10932
 Alpha virt. eigenvalues --    0.12147   0.22329   0.24973   0.37234   0.40574
 Alpha virt. eigenvalues --    0.42729   0.44393   0.49110   0.59305   0.59882

 Mulliken charges:
               1
     1  C    0.449765
     2  O   -0.481217
     3  C    0.045507
     4  H    0.089371
     5  O   -0.426043
     6  H    0.103793
     7  H    0.103538
     8  H    0.115287
 Sum of Mulliken charges =  -0.00000

 Dipole moment (field-independent basis, Debye):
    X=              1.8563    Y=              1.0836    Z=             -0.0875  Tot=              2.1512
 Quadrupole moment (field-independent basis, Debye-Ang):
   XX=            -22.8447   YY=            -24.7295   ZZ=            -23.1386
   XY=             -5.4022   XZ=             -0.0978   YZ=             -0.0880

 Normal termination of Gaussian 16 at Fri Sep 22 16:29:57 2023.
