 Gaussian 16, Revision A.03,
 Gaussian 16:  ES64L-G16RevA.03 25-Dec-2016

 ----------------------------------------------------------------------
 #p b3lyp/gen scrf=(cpcm,solvent=toluene) pop=hirshfeld empiricaldisper
 sion=gd3bj
 ----------------------------------------------------------------------

 ---------------------
 tmpdir/M2_ref_158.gjf
 ---------------------
 Symbolic Z-matrix:
 Charge =  0 Multiplicity = 1

                         Standard orientation:
 ---------------------------------------------------------------------
 Center     Atomic      Atomic             Coordinates (Angstroms)
 Number     Number       Type             X           Y           Z
 ---------------------------------------------------------------------
      1          6           0       -1.520499   -0.480661   -0.142010
      2          6           0       -0.529684    0.647421    0.270089
      3          6           0        0.859416    0.379398   -0.311198
      4          1           0       -1.523231   -1.197936    0.699902
      5          1           0       -2.521599   -0.047335   -0.266385
      6          1           0       -1.229092   -0.928163   -1.096801
      7          1           0       -0.509000    0.538191    1.442447
      8          1           0       -0.940948    1.641137   -0.000909
      9          1           0        1.188995    0.877663   -1.109410
     10          8           0        1.584935   -0.520063    0.178734
 ---------------------------------------------------------------------

 SCF Done:  E(RB3LYP) =  -193.100932493     A.U. after   11 cycles

 The electronic state is 1-A.
 Alpha  occ. eigenvalues --  -19.12595 -10.26903 -10.19726 -10.18399  -1.03591
 Alpha  occ. eigenvalues --   -0.78444  -0.66796  -0.59040  -0.49276  -0.45984
 Alpha  occ. eigenvalues --   -0.43369  -0.41192  -0.37988  -0.35851  -0.34510
 Alpha  occ. eigenvalues --   -0.26535
 Alpha virt. eigenvalues --   -0.05208   0.04866   0.06924   0.08674   0.09713
 Alpha virt. eigenvalues --    0.11937   0.15484   0.18175   0.20962   0.23299
 Alpha virt. eigenvalues --    0.38519   0.41097   0.42343   0.45930   0.50164

 Mulliken charges:
               1
     1  C   -0.206553
     2  C   -0.275902
     3  C    0.290167
     4  H    0.112050
     5  H    0.098610
     6  H    0.098883
     7  H    0.133234
     8  H    0.109991
     9  H    0.040054
    10  O   -0.400533
 Sum of Mulliken charges =   0.00000

 Dipole moment (field-independent basis, Debye):
    X=             -2.4198    Y=              1.9984    Z=             -1.0186  Tot=              3.2995
 Quadrupole moment (field-independent basis, Debye-Ang):
   XX=            -29.0499   YY=            -25.5997   ZZ=            -24.1802
   XY=              2.4981   XZ=             -1.5804   YZ=             -0.4150

 Normal termination of Gaussian 16 at Fri Sep 22 16:29:39 2023.
