 Gaussian 16, Revision A.03,
 Gaussian 16:  ES64L-G16RevA.03 25-Dec-2016

 ----------------------------------------------------------------------
 #p b3lyp/gen scrf=(cpcm,solvent=toluene) pop=hirshfeld empiricaldisper
 sion=gd3bj
 ----------------------------------------------------------------------

 ---------------------
 tmpdir/M2_ref_266.gjf
 ---------------------
 Symbolic Z-matrix:
 Charge =  0 Multiplicity = 1

                         Standard orientation:
 ---------------------------------------------------------------------
 Center     Atomic      Atomic             Coordinates (Angstroms)
 Number     Number       Type             X           Y           Z
 ---------------------------------------------------------------------
      1          6           0       -0.891355   -0.527816    0.050726
      2          6           0        0.514233   -0.128443    0.001932
      3          8           0        0.675358    1.211103    0.039105
      4          8           0       -1.892829    0.178423   -0.064956
      5          1           0       -1.210685   -1.479124    0.288249
      6          8           0        1.452644   -0.910167   -0.046695
      7          1           0        1.592027    1.581806   -0.023824
 ---------------------------------------------------------------------

 SCF Done:  E(RB3LYP) =  -303.016379354     A.U. after   12 cycles

 The electronic state is 1-A.
 Alpha  occ. eigenvalues --  -19.19596 -19.16288 -19.15454 -10.34889 -10.29651
 Alpha  occ. eigenvalues --   -1.13857  -1.08103  -1.05208  -0.75449  -0.64442
 Alpha  occ. eigenvalues --   -0.55093  -0.51511  -0.49236  -0.47383  -0.42503
 Alpha  occ. eigenvalues --   -0.41141  -0.35549  -0.33441  -0.29050
 Alpha virt. eigenvalues --   -0.12007   0.02222   0.03822   0.08470   0.17111
 Alpha virt. eigenvalues --    0.21873   0.25668   0.33152   0.38425   0.42843
 Alpha virt. eigenvalues --    0.45277   0.46149   0.49107   0.56627   0.60192

 Mulliken charges:
               1
     1  C    0.293349
     2  C    0.404963
     3  O   -0.364550
     4  O   -0.317327
     5  H    0.070567
     6  O   -0.363753
     7  H    0.276751
 Sum of Mulliken charges =   0.00000

 Dipole moment (field-independent basis, Debye):
    X=              1.4980    Y=              0.4861    Z=              0.2711  Tot=              1.5981
 Quadrupole moment (field-independent basis, Debye-Ang):
   XX=            -31.9645   YY=            -27.0497   ZZ=            -26.6264
   XY=              8.5212   XZ=             -0.4774   YZ=             -0.3994

 Normal termination of Gaussian 16 at Fri Sep 22 16:30:14 2023.
