 Gaussian 16, Revision A.03,
 Gaussian 16:  ES64L-G16RevA.03 25-Dec-2016

 ----------------------------------------------------------------------
 #p b3lyp/gen scrf=(cpcm,solvent=toluene) pop=hirshfeld empiricaldisper
 sion=gd3bj
 ----------------------------------------------------------------------

 -------------------
 tmpdir/M2_ref_5.gjf
 -------------------
 Symbolic Z-matrix:
 Charge =  0 Multiplicity = 1

                         Standard orientation:
 ---------------------------------------------------------------------
 Center     Atomic      Atomic             Coordinates (Angstroms)
 Number     Number       Type             X           Y           Z
 ---------------------------------------------------------------------
      1          6           0        0.868572   -0.747299   -0.009652
      2          6           0        0.035776    0.387541   -0.029700
      3          6           0       -1.395631    0.295180   -0.011337
      4          8           0        2.082569   -0.626007    0.023334
      5          1           0        0.423890   -1.737827   -0.013077
      6          8           0        0.550145    1.530848   -0.008174
      7          1           0       -1.969200    1.192273    0.199213
      8          8           0       -2.071088   -0.788213   -0.000410
 ---------------------------------------------------------------------

 SCF Done:  E(RB3LYP) =  -341.066257352     A.U. after   13 cycles

 The electronic state is 1-A.
 Alpha  occ. eigenvalues --  -19.18856 -19.18193 -19.17132 -10.31269 -10.31196
 Alpha  occ. eigenvalues --  -10.29896  -1.11713  -1.08137  -1.07080  -0.80019
 Alpha  occ. eigenvalues --   -0.70232  -0.57997  -0.55568  -0.51311  -0.49181
 Alpha  occ. eigenvalues --   -0.47672  -0.46872  -0.42308  -0.39343  -0.34606
 Alpha  occ. eigenvalues --   -0.32594  -0.29177
 Alpha virt. eigenvalues --   -0.17784  -0.08828   0.04896   0.07047   0.07647
 Alpha virt. eigenvalues --    0.13088   0.22729   0.23934   0.27700   0.31772
 Alpha virt. eigenvalues --    0.35962   0.38700   0.42752   0.47674   0.48992

 Mulliken charges:
               1
     1  C    0.297459
     2  C    0.132108
     3  C    0.307541
     4  O   -0.299377
     5  H    0.080356
     6  O   -0.288175
     7  H    0.111036
     8  O   -0.340948
 Sum of Mulliken charges =  -0.00000

 Dipole moment (field-independent basis, Debye):
    X=             -1.9694    Y=             -0.2168    Z=             -0.0099  Tot=              1.9813
 Quadrupole moment (field-independent basis, Debye-Ang):
   XX=            -43.1768   YY=            -35.8875   ZZ=            -31.0054
   XY=             -4.9095   XZ=             -0.2911   YZ=              0.1234

 Normal termination of Gaussian 16 at Fri Sep 22 16:28:31 2023.
