 Gaussian 16, Revision A.03,
 Gaussian 16:  ES64L-G16RevA.03 25-Dec-2016

 ----------------------------------------------------------------------
 #p b3lyp/gen scrf=(cpcm,solvent=toluene) pop=hirshfeld empiricaldisper
 sion=gd3bj
 ----------------------------------------------------------------------

 ---------------------
 tmpdir/M2_ref_161.gjf
 ---------------------
 Symbolic Z-matrix:
 Charge =  0 Multiplicity = 1

                         Standard orientation:
 ---------------------------------------------------------------------
 Center     Atomic      Atomic             Coordinates (Angstroms)
 Number     Number       Type             X           Y           Z
 ---------------------------------------------------------------------
      1          6           0       -1.781878   -0.214111   -0.087788
      2          6           0       -0.452557    0.524019    0.100476
      3          6           0        0.767202   -0.398747    0.096128
      4          1           0       -1.763936   -0.849631   -0.977043
      5          1           0       -2.004188   -0.830305    0.790478
      6          1           0       -2.588944    0.520531   -0.190659
      7          1           0       -0.476597    1.142402    1.042434
      8          1           0       -0.341676    1.350158   -0.731378
      9          1           0        0.679132   -1.370369    0.301617
     10          8           0        1.912451    0.071281   -0.111044
 ---------------------------------------------------------------------

 SCF Done:  E(RB3LYP) =  -193.107358966     A.U. after   11 cycles

 The electronic state is 1-A.
 Alpha  occ. eigenvalues --  -19.12581 -10.26926 -10.19945 -10.18003  -1.03545
 Alpha  occ. eigenvalues --   -0.78784  -0.66386  -0.60278  -0.47691  -0.45588
 Alpha  occ. eigenvalues --   -0.45291  -0.39653  -0.38732  -0.37294  -0.34101
 Alpha  occ. eigenvalues --   -0.26535
 Alpha virt. eigenvalues --   -0.05280   0.04480   0.07518   0.08663   0.10130
 Alpha virt. eigenvalues --    0.11518   0.13751   0.19808   0.20415   0.24474
 Alpha virt. eigenvalues --    0.38447   0.39688   0.42389   0.43618   0.49828

 Mulliken charges:
               1
     1  C   -0.208390
     2  C   -0.295212
     3  C    0.298765
     4  H    0.099800
     5  H    0.097199
     6  H    0.099449
     7  H    0.138505
     8  H    0.131196
     9  H    0.039170
    10  O   -0.400481
 Sum of Mulliken charges =  -0.00000

 Dipole moment (field-independent basis, Debye):
    X=             -3.2538    Y=             -0.7391    Z=              0.5774  Tot=              3.3862
 Quadrupole moment (field-independent basis, Debye-Ang):
   XX=            -32.5859   YY=            -23.9801   ZZ=            -24.5438
   XY=             -1.5393   XZ=              0.6497   YZ=             -0.0057

 Normal termination of Gaussian 16 at Fri Sep 22 16:30:26 2023.
