 Gaussian 16, Revision A.03,
 Gaussian 16:  ES64L-G16RevA.03 25-Dec-2016

 ----------------------------------------------------------------------
 #p b3lyp/gen scrf=(cpcm,solvent=toluene) pop=hirshfeld empiricaldisper
 sion=gd3bj
 ----------------------------------------------------------------------

 ---------------------
 tmpdir/M2_ref_123.gjf
 ---------------------
 Symbolic Z-matrix:
 Charge =  0 Multiplicity = 1

                         Standard orientation:
 ---------------------------------------------------------------------
 Center     Atomic      Atomic             Coordinates (Angstroms)
 Number     Number       Type             X           Y           Z
 ---------------------------------------------------------------------
      1          6           0        1.251975   -0.267493    0.002168
      2          6           0        0.000043    0.623645   -0.001256
      3          6           0       -1.251854   -0.269609   -0.000980
      4          1           0        2.176369    0.323759    0.009739
      5          1           0        1.264275   -0.939592    0.870071
      6          1           0        1.266089   -0.889385   -0.901640
      7          1           0       -0.014355    1.229132    0.955871
      8          1           0        0.005116    1.260473   -0.913878
      9          1           0       -1.299751   -0.883847    0.907945
     10          1           0       -2.171429    0.322837   -0.059997
     11          1           0       -1.227296   -0.942637   -0.867702
 ---------------------------------------------------------------------

 SCF Done:  E(RB3LYP) =  -119.131044049     A.U. after   10 cycles

 The electronic state is 1-A.
 Alpha  occ. eigenvalues --  -10.17572 -10.16311 -10.16296  -0.78099  -0.67822
 Alpha  occ. eigenvalues --   -0.58054  -0.46115  -0.43623  -0.39682  -0.38053
 Alpha  occ. eigenvalues --   -0.33843  -0.33597  -0.33175
 Alpha virt. eigenvalues --    0.04668   0.08690   0.08759   0.08893   0.11562
 Alpha virt. eigenvalues --    0.13465   0.14440   0.15523   0.18729   0.23261
 Alpha virt. eigenvalues --    0.37799   0.38713   0.39804   0.40081   0.41133

 Mulliken charges:
               1
     1  C   -0.214678
     2  C   -0.255400
     3  C   -0.214523
     4  H    0.085723
     5  H    0.082579
     6  H    0.080359
     7  H    0.093535
     8  H    0.093798
     9  H    0.083394
    10  H    0.085236
    11  H    0.079978
 Sum of Mulliken charges =  -0.00000

 Dipole moment (field-independent basis, Debye):
    X=             -0.0018    Y=              0.0150    Z=             -0.0183  Tot=              0.0237
 Quadrupole moment (field-independent basis, Debye-Ang):
   XX=            -22.7601   YY=            -22.4717   ZZ=            -21.5153
   XY=             -0.0239   XZ=             -0.0346   YZ=             -0.1122

 Normal termination of Gaussian 16 at Fri Sep 22 16:30:03 2023.
