 Gaussian 16, Revision A.03,
 Gaussian 16:  ES64L-G16RevA.03 25-Dec-2016

 ----------------------------------------------------------------------
 #p b3lyp/gen scrf=(cpcm,solvent=toluene) pop=hirshfeld empiricaldisper
 sion=gd3bj
 ----------------------------------------------------------------------

 ---------------------
 tmpdir/M2_ref_336.gjf
 ---------------------
 Symbolic Z-matrix:
 Charge =  0 Multiplicity = 1

                         Standard orientation:
 ---------------------------------------------------------------------
 Center     Atomic      Atomic             Coordinates (Angstroms)
 Number     Number       Type             X           Y           Z
 ---------------------------------------------------------------------
      1          6           0        0.687247   -0.006900   -0.001496
      2          6           0       -0.688782   -0.007102   -0.000153
      3          1           0       -1.232889    0.935518    0.006110
      4          1           0        1.211712   -0.889919    0.008636
      5          1           0        1.239657    0.929904   -0.001333
      6          1           0       -1.209271   -0.891490   -0.003522
 ---------------------------------------------------------------------

 SCF Done:  E(RB3LYP) =  -78.5745467717     A.U. after    9 cycles

 The electronic state is 1-A.
 Alpha  occ. eigenvalues --  -10.18033 -10.17968  -0.76123  -0.59440  -0.47945
 Alpha  occ. eigenvalues --   -0.41826  -0.37367  -0.27421
 Alpha virt. eigenvalues --   -0.01170   0.06602   0.09601   0.10001   0.16170
 Alpha virt. eigenvalues --    0.27707   0.35764   0.41911   0.43564   0.51271
 Alpha virt. eigenvalues --    0.51787   0.55105   0.63605   0.65538   0.70642

 Mulliken charges:
               1
     1  C   -0.186928
     2  C   -0.183961
     3  H    0.102921
     4  H    0.082826
     5  H    0.102325
     6  H    0.082817
 Sum of Mulliken charges =  -0.00000

 Dipole moment (field-independent basis, Debye):
    X=              0.0042    Y=             -0.0265    Z=              0.0107  Tot=              0.0289
 Quadrupole moment (field-independent basis, Debye-Ang):
   XX=            -12.3609   YY=            -12.3133   ZZ=            -15.6548
   XY=              0.0054   XZ=              0.0062   YZ=             -0.0001

 Normal termination of Gaussian 16 at Fri Sep 22 16:31:09 2023.
