 Gaussian 16, Revision A.03,
 Gaussian 16:  ES64L-G16RevA.03 25-Dec-2016

 ----------------------------------------------------------------------
 #p b3lyp/gen scrf=(cpcm,solvent=toluene) pop=hirshfeld empiricaldisper
 sion=gd3bj
 ----------------------------------------------------------------------

 ---------------------
 tmpdir/M2_ref_322.gjf
 ---------------------
 Symbolic Z-matrix:
 Charge =  0 Multiplicity = 1

                         Standard orientation:
 ---------------------------------------------------------------------
 Center     Atomic      Atomic             Coordinates (Angstroms)
 Number     Number       Type             X           Y           Z
 ---------------------------------------------------------------------
      1          6           0        1.245899   -0.618975   -0.003313
      2          6           0       -0.001489    0.059696    0.012577
      3          6           0       -1.246110   -0.621497    0.013303
      4          8           0        2.291745   -0.004560   -0.005881
      5          1           0        1.250789   -1.706282   -0.021672
      6          8           0       -0.000879    1.321195    0.004182
      7          8           0       -2.290000   -0.004152   -0.016111
      8          1           0       -1.247514   -1.708933    0.028753
 ---------------------------------------------------------------------

 SCF Done:  E(RB3LYP) =  -341.063834812     A.U. after   12 cycles

 The electronic state is 1-A.
 Alpha  occ. eigenvalues --  -19.17939 -19.17229 -19.17201 -10.30213 -10.30136
 Alpha  occ. eigenvalues --  -10.30111  -1.11907  -1.09955  -1.06512  -0.80935
 Alpha  occ. eigenvalues --   -0.67846  -0.58603  -0.57167  -0.50346  -0.49085
 Alpha  occ. eigenvalues --   -0.47497  -0.47355  -0.43334  -0.38801  -0.33169
 Alpha  occ. eigenvalues --   -0.32440  -0.29136
 Alpha virt. eigenvalues --   -0.17629  -0.06973   0.04544   0.05346   0.09540
 Alpha virt. eigenvalues --    0.12597   0.24195   0.26790   0.27729   0.34923
 Alpha virt. eigenvalues --    0.35378   0.36770   0.43217   0.47679   0.51834

 Mulliken charges:
               1
     1  C    0.283847
     2  C    0.154122
     3  C    0.284468
     4  O   -0.290613
     5  H    0.070390
     6  O   -0.283181
     7  O   -0.290394
     8  H    0.071360
 Sum of Mulliken charges =  -0.00000

 Dipole moment (field-independent basis, Debye):
    X=             -0.0113    Y=             -4.7928    Z=              0.0646  Tot=              4.7932
 Quadrupole moment (field-independent basis, Debye-Ang):
   XX=            -45.5721   YY=            -32.6390   ZZ=            -30.8682
   XY=              0.0115   XZ=             -0.0988   YZ=             -0.0163

 Normal termination of Gaussian 16 at Fri Sep 22 16:31:48 2023.
