 Gaussian 16, Revision A.03,
 Gaussian 16:  ES64L-G16RevA.03 25-Dec-2016

 ----------------------------------------------------------------------
 #p b3lyp/gen scrf=(cpcm,solvent=toluene) pop=hirshfeld empiricaldisper
 sion=gd3bj
 ----------------------------------------------------------------------

 ---------------------
 tmpdir/M2_ref_293.gjf
 ---------------------
 Symbolic Z-matrix:
 Charge =  0 Multiplicity = 1

                         Standard orientation:
 ---------------------------------------------------------------------
 Center     Atomic      Atomic             Coordinates (Angstroms)
 Number     Number       Type             X           Y           Z
 ---------------------------------------------------------------------
      1          6           0       -1.411280   -0.475500    0.000769
      2          6           0       -0.605412    0.646226   -0.008739
      3          6           0        0.807336    0.476834   -0.009549
      4          1           0       -1.020047   -1.420497    0.018897
      5          1           0       -2.489610   -0.361256   -0.022008
      6          1           0       -1.086150    1.597046    0.065207
      7          8           0        1.299815   -0.631568    0.005042
      8          1           0        1.453426    1.351893    0.002684
 ---------------------------------------------------------------------

 SCF Done:  E(RB3LYP) =  -191.882052869     A.U. after   11 cycles

 The electronic state is 1-A.
 Alpha  occ. eigenvalues --  -19.12013 -10.26510 -10.20713 -10.19538  -1.05828
 Alpha  occ. eigenvalues --   -0.80127  -0.67390  -0.55888  -0.52730  -0.45951
 Alpha  occ. eigenvalues --   -0.42607  -0.41303  -0.39998  -0.28880  -0.26958
 Alpha virt. eigenvalues --   -0.08858   0.05194   0.05838   0.08203   0.10818
 Alpha virt. eigenvalues --    0.13381   0.21847   0.25470   0.28800   0.40225
 Alpha virt. eigenvalues --    0.41758   0.45410   0.46166   0.48566   0.51565

 Mulliken charges:
               1
     1  C   -0.016824
     2  C   -0.259377
     3  C    0.306513
     4  H    0.088892
     5  H    0.117773
     6  H    0.081414
     7  O   -0.374271
     8  H    0.055880
 Sum of Mulliken charges =  -0.00000

 Dipole moment (field-independent basis, Debye):
    X=             -2.3660    Y=              1.9724    Z=              0.0443  Tot=              3.0806
 Quadrupole moment (field-independent basis, Debye-Ang):
   XX=            -23.8671   YY=            -22.5452   ZZ=            -24.9783
   XY=              3.3801   XZ=             -0.0774   YZ=              0.0992

 Normal termination of Gaussian 16 at Fri Sep 22 16:31:07 2023.
