 Gaussian 16, Revision A.03,
 Gaussian 16:  ES64L-G16RevA.03 25-Dec-2016

 ----------------------------------------------------------------------
 #p b3lyp/gen scrf=(cpcm,solvent=toluene) pop=hirshfeld empiricaldisper
 sion=gd3bj
 ----------------------------------------------------------------------

 ---------------------
 tmpdir/M2_ref_378.gjf
 ---------------------
 Symbolic Z-matrix:
 Charge =  0 Multiplicity = 1

                         Standard orientation:
 ---------------------------------------------------------------------
 Center     Atomic      Atomic             Coordinates (Angstroms)
 Number     Number       Type             X           Y           Z
 ---------------------------------------------------------------------
      1          6           0       -0.539426   -0.010545   -0.002159
      2          1           0       -1.105306    0.917285    0.004362
      3          1           0       -1.050879   -0.901719    0.004615
      4          8           0        0.674093    0.005963    0.000497
 ---------------------------------------------------------------------

 SCF Done:  E(RB3LYP) =  -114.483916932     A.U. after    9 cycles

 The electronic state is 1-A.
 Alpha  occ. eigenvalues --  -19.13924 -10.27081  -1.06448  -0.65073  -0.51095
 Alpha  occ. eigenvalues --   -0.45528  -0.40332  -0.27457
 Alpha virt. eigenvalues --   -0.05298   0.06553   0.11925   0.18112   0.40316
 Alpha virt. eigenvalues --    0.47981   0.52438   0.60802   0.62448   0.72700
 Alpha virt. eigenvalues --    0.78034   0.87641   0.97936   1.32235   1.50376

 Mulliken charges:
               1
     1  C    0.221620
     2  H    0.076439
     3  H    0.065636
     4  O   -0.363695
 Sum of Mulliken charges =  -0.00000

 Dipole moment (field-independent basis, Debye):
    X=             -2.7532    Y=             -0.0863    Z=              0.0009  Tot=              2.7545
 Quadrupole moment (field-independent basis, Debye-Ang):
   XX=            -12.0403   YY=            -11.5106   ZZ=            -11.5034
   XY=              0.0399   XZ=             -0.0044   YZ=              0.0002

 Normal termination of Gaussian 16 at Fri Sep 22 16:30:55 2023.
