 Gaussian 16, Revision A.03,
 Gaussian 16:  ES64L-G16RevA.03 25-Dec-2016

 ----------------------------------------------------------------------
 #p b3lyp/gen scrf=(cpcm,solvent=toluene) pop=hirshfeld empiricaldisper
 sion=gd3bj
 ----------------------------------------------------------------------

 ---------------------
 tmpdir/M2_ref_340.gjf
 ---------------------
 Symbolic Z-matrix:
 Charge =  0 Multiplicity = 1

                         Standard orientation:
 ---------------------------------------------------------------------
 Center     Atomic      Atomic             Coordinates (Angstroms)
 Number     Number       Type             X           Y           Z
 ---------------------------------------------------------------------
      1          6           0        0.774628    0.003638   -0.018506
      2          6           0       -0.770349    0.009923   -0.000872
      3          1           0       -1.053713   -0.040481    1.055152
      4          1           0        1.171011   -0.769969    0.724749
      5          1           0        1.193652    0.994160    0.280093
      6          1           0        1.146177   -0.269640   -1.006318
      7          1           0       -1.232735    0.924758   -0.439683
      8          1           0       -1.250066   -0.920193   -0.497725
 ---------------------------------------------------------------------

 SCF Done:  E(RB3LYP) =  -79.8164413096     A.U. after    9 cycles

 The electronic state is 1-A.
 Alpha  occ. eigenvalues --  -10.17394 -10.17323  -0.74792  -0.60996  -0.43375
 Alpha  occ. eigenvalues --   -0.42940  -0.36810  -0.34215  -0.34014
 Alpha virt. eigenvalues --    0.04759   0.08521   0.09660   0.10175   0.14007
 Alpha virt. eigenvalues --    0.14192   0.20975   0.37601   0.37825   0.39090
 Alpha virt. eigenvalues --    0.46175   0.50305   0.57444   0.61496   0.61963

 Mulliken charges:
               1
     1  C   -0.268850
     2  C   -0.279779
     3  H    0.085159
     4  H    0.090791
     5  H    0.093936
     6  H    0.089975
     7  H    0.095253
     8  H    0.093514
 Sum of Mulliken charges =   0.00000

 Dipole moment (field-independent basis, Debye):
    X=              0.0107    Y=              0.0224    Z=              0.0532  Tot=              0.0587
 Quadrupole moment (field-independent basis, Debye-Ang):
   XX=            -15.9581   YY=            -15.0523   ZZ=            -15.1975
   XY=              0.0205   XZ=              0.1178   YZ=              0.0030

 Normal termination of Gaussian 16 at Fri Sep 22 16:31:52 2023.
