 Gaussian 16, Revision A.03,
 Gaussian 16:  ES64L-G16RevA.03 25-Dec-2016

 ----------------------------------------------------------------------
 #p b3lyp/gen scrf=(cpcm,solvent=toluene) pop=hirshfeld empiricaldisper
 sion=gd3bj
 ----------------------------------------------------------------------

 ---------------------
 tmpdir/M2_ref_201.gjf
 ---------------------
 Symbolic Z-matrix:
 Charge =  0 Multiplicity = 1

                         Standard orientation:
 ---------------------------------------------------------------------
 Center     Atomic      Atomic             Coordinates (Angstroms)
 Number     Number       Type             X           Y           Z
 ---------------------------------------------------------------------
      1          6           0        0.701731    0.495986   -0.000413
      2          6           0       -0.675547    0.493279   -0.008563
      3          1           0        1.271833    1.443051    0.061920
      4          6           0        1.386985   -0.751946   -0.006955
      5          6           0       -1.419439   -0.715311    0.011068
      6          1           0       -1.234218    1.424895   -0.032746
 ---------------------------------------------------------------------

 SCF Done:  E(RB3LYP) =  -153.280036063     A.U. after   13 cycles

 The electronic state is 1-A.
 Alpha  occ. eigenvalues --  -10.27836 -10.27567 -10.22705 -10.22406  -0.85921
 Alpha  occ. eigenvalues --   -0.72518  -0.61704  -0.50654  -0.49173  -0.37103
 Alpha  occ. eigenvalues --   -0.33490  -0.31190  -0.25049
 Alpha virt. eigenvalues --   -0.14829  -0.11389  -0.08755   0.04460   0.05539
 Alpha virt. eigenvalues --    0.09510   0.19079   0.26148   0.31679   0.36677
 Alpha virt. eigenvalues --    0.39289   0.43192   0.43375   0.45537   0.46392

 Mulliken charges:
               1
     1  C   -0.162463
     2  C   -0.172224
     3  H    0.165990
     4  C    0.005434
     5  C    0.001694
     6  H    0.161569
 Sum of Mulliken charges =   0.00000

 Dipole moment (field-independent basis, Debye):
    X=              0.1719    Y=              3.9831    Z=              0.0379  Tot=              3.9870
 Quadrupole moment (field-independent basis, Debye-Ang):
   XX=            -25.6732   YY=            -24.3752   ZZ=            -26.7294
   XY=             -0.0588   XZ=              0.3342   YZ=              0.0704

 Normal termination of Gaussian 16 at Fri Sep 22 16:29:02 2023.
