 Gaussian 16, Revision A.03,
 Gaussian 16:  ES64L-G16RevA.03 25-Dec-2016

 ----------------------------------------------------------------------
 #p b3lyp/gen scrf=(cpcm,solvent=toluene) pop=hirshfeld empiricaldisper
 sion=gd3bj
 ----------------------------------------------------------------------

 ---------------------
 tmpdir/M2_ref_302.gjf
 ---------------------
 Symbolic Z-matrix:
 Charge =  0 Multiplicity = 1

                         Standard orientation:
 ---------------------------------------------------------------------
 Center     Atomic      Atomic             Coordinates (Angstroms)
 Number     Number       Type             X           Y           Z
 ---------------------------------------------------------------------
      1          6           0       -0.716289    0.504315   -0.009942
      2          6           0        0.706565    0.497999   -0.009687
      3          1           0        1.248070    1.441375    0.001418
      4          1           0       -1.302913    1.393874    0.062128
      5          8           0       -1.308705   -0.559529   -0.000275
      6          8           0        1.322854   -0.546612    0.007053
 ---------------------------------------------------------------------

 SCF Done:  E(RB3LYP) =  -227.777442138     A.U. after   11 cycles

 The electronic state is 1-A.
 Alpha  occ. eigenvalues --  -19.16088 -19.15922 -10.28817 -10.28582  -1.10578
 Alpha  occ. eigenvalues --   -1.06918  -0.74918  -0.58343  -0.56113  -0.48299
 Alpha  occ. eigenvalues --   -0.46236  -0.45701  -0.39192  -0.31649  -0.28520
 Alpha virt. eigenvalues --   -0.13344   0.02642   0.06010   0.09166   0.15182
 Alpha virt. eigenvalues --    0.26401   0.31432   0.38061   0.38529   0.44512
 Alpha virt. eigenvalues --    0.51172   0.56970   0.59207   0.63161   0.66597

 Mulliken charges:
               1
     1  C    0.238028
     2  C    0.239243
     3  H    0.066951
     4  H    0.065860
     5  O   -0.308017
     6  O   -0.302065
 Sum of Mulliken charges =  -0.00000

 Dipole moment (field-independent basis, Debye):
    X=             -0.0929    Y=              4.2065    Z=             -0.0152  Tot=              4.2076
 Quadrupole moment (field-independent basis, Debye-Ang):
   XX=            -26.3889   YY=            -21.7303   ZZ=            -21.1641
   XY=             -0.1675   XZ=             -0.0540   YZ=              0.0213

 Normal termination of Gaussian 16 at Fri Sep 22 16:31:00 2023.
