 Gaussian 16, Revision A.03,
 Gaussian 16:  ES64L-G16RevA.03 25-Dec-2016

 ----------------------------------------------------------------------
 #p b3lyp/gen scrf=(cpcm,solvent=toluene) pop=hirshfeld empiricaldisper
 sion=gd3bj
 ----------------------------------------------------------------------

 ---------------------
 tmpdir/M2_ref_229.gjf
 ---------------------
 Symbolic Z-matrix:
 Charge =  0 Multiplicity = 1

                         Standard orientation:
 ---------------------------------------------------------------------
 Center     Atomic      Atomic             Coordinates (Angstroms)
 Number     Number       Type             X           Y           Z
 ---------------------------------------------------------------------
      1          6           0        1.808579    0.114844    0.009005
      2          6           0        0.496842   -0.432274   -0.015009
      3          6           0       -0.670822    0.374847   -0.015871
      4          1           0        2.608977   -0.475490   -0.002386
      5          1           0        1.931956    1.195795    0.065036
      6          1           0        0.395077   -1.462678   -0.016974
      7          8           0       -1.772950   -0.132129    0.018720
      8          1           0       -0.560000    1.454901   -0.064184
 ---------------------------------------------------------------------

 SCF Done:  E(RB3LYP) =  -191.877094835     A.U. after   11 cycles

 The electronic state is 1-A.
 Alpha  occ. eigenvalues --  -19.12237 -10.26532 -10.21671 -10.20172  -1.05811
 Alpha  occ. eigenvalues --   -0.80410  -0.67182  -0.58862  -0.49225  -0.48610
 Alpha  occ. eigenvalues --   -0.43045  -0.41243  -0.40865  -0.29105  -0.26966
 Alpha virt. eigenvalues --   -0.08822   0.03821   0.06248   0.07297   0.10696
 Alpha virt. eigenvalues --    0.13314   0.20973   0.25419   0.29328   0.39696
 Alpha virt. eigenvalues --    0.41379   0.45441   0.46712   0.49461   0.50835

 Mulliken charges:
               1
     1  C   -0.025013
     2  C   -0.211491
     3  C    0.287398
     4  H    0.087181
     5  H    0.119027
     6  H    0.071237
     7  O   -0.378195
     8  H    0.049856
 Sum of Mulliken charges =  -0.00000

 Dipole moment (field-independent basis, Debye):
    X=              3.8034    Y=              0.8966    Z=             -0.0448  Tot=              3.9079
 Quadrupole moment (field-independent basis, Debye-Ang):
   XX=            -27.1180   YY=            -21.6531   ZZ=            -25.0887
   XY=             -1.0077   XZ=              0.1898   YZ=              0.0659

 Normal termination of Gaussian 16 at Fri Sep 22 16:30:07 2023.
