 Gaussian 16, Revision A.03,
 Gaussian 16:  ES64L-G16RevA.03 25-Dec-2016

 ----------------------------------------------------------------------
 #p b3lyp/gen scrf=(cpcm,solvent=toluene) pop=hirshfeld empiricaldisper
 sion=gd3bj
 ----------------------------------------------------------------------

 ---------------------
 tmpdir/M2_ref_296.gjf
 ---------------------
 Symbolic Z-matrix:
 Charge =  0 Multiplicity = 1

                         Standard orientation:
 ---------------------------------------------------------------------
 Center     Atomic      Atomic             Coordinates (Angstroms)
 Number     Number       Type             X           Y           Z
 ---------------------------------------------------------------------
      1          6           0        1.429817   -0.486007   -0.010576
      2          6           0        0.609030    0.624868   -0.003724
      3          6           0       -0.799432    0.510494    0.005205
      4          1           0        2.481348   -0.320332    0.075866
      5          1           0        0.999677   -1.421823   -0.021238
      6          1           0        1.048514    1.616366   -0.016006
      7          1           0       -1.408806    1.339827   -0.001341
      8          8           0       -1.319653   -0.638771    0.002161
 ---------------------------------------------------------------------

 SCF Done:  E(RB3LYP) =  -191.876643623     A.U. after   11 cycles

 The electronic state is 1-A.
 Alpha  occ. eigenvalues --  -19.11844 -10.26287 -10.20890 -10.19764  -1.03182
 Alpha  occ. eigenvalues --   -0.80251  -0.68372  -0.56396  -0.52656  -0.45459
 Alpha  occ. eigenvalues --   -0.43202  -0.40019  -0.39524  -0.28716  -0.26903
 Alpha virt. eigenvalues --   -0.09584   0.04755   0.05760   0.08380   0.10951
 Alpha virt. eigenvalues --    0.13486   0.21288   0.24768   0.29165   0.40295
 Alpha virt. eigenvalues --    0.41580   0.45990   0.46429   0.47731   0.51788

 Mulliken charges:
               1
     1  C    0.015513
     2  C   -0.285690
     3  C    0.340391
     4  H    0.116432
     5  H    0.094310
     6  H    0.087036
     7  H    0.048446
     8  O   -0.416437
 Sum of Mulliken charges =  -0.00000

 Dipole moment (field-independent basis, Debye):
    X=              2.4798    Y=              2.2111    Z=              0.0345  Tot=              3.3226
 Quadrupole moment (field-independent basis, Debye-Ang):
   XX=            -24.0287   YY=            -22.3412   ZZ=            -25.0041
   XY=             -3.6774   XZ=              0.1468   YZ=             -0.0103

 Normal termination of Gaussian 16 at Fri Sep 22 16:31:35 2023.
