 Gaussian 16, Revision A.03,
 Gaussian 16:  ES64L-G16RevA.03 25-Dec-2016

 ----------------------------------------------------------------------
 #p b3lyp/gen scrf=(cpcm,solvent=toluene) pop=hirshfeld empiricaldisper
 sion=gd3bj
 ----------------------------------------------------------------------

 ---------------------
 tmpdir/M2_ref_247.gjf
 ---------------------
 Symbolic Z-matrix:
 Charge =  0 Multiplicity = 1

                         Standard orientation:
 ---------------------------------------------------------------------
 Center     Atomic      Atomic             Coordinates (Angstroms)
 Number     Number       Type             X           Y           Z
 ---------------------------------------------------------------------
      1          6           0       -0.615272   -0.345536    0.030605
      2          6           0        0.654540    0.379093    0.037548
      3          6           0       -1.909377    0.169998   -0.063418
      4          1           0       -0.698719   -1.360570    0.192222
      5          1           0        0.520649    1.473398    0.150495
      6          6           0        1.899786   -0.222360   -0.061854
 ---------------------------------------------------------------------

 SCF Done:  E(RB3LYP) =  -153.297440843     A.U. after   13 cycles

 The electronic state is 1-A.
 Alpha  occ. eigenvalues --  -10.27802 -10.27715 -10.23262 -10.22753  -0.84592
 Alpha  occ. eigenvalues --   -0.75332  -0.58432  -0.56171  -0.46143  -0.36233
 Alpha  occ. eigenvalues --   -0.33929  -0.31458  -0.26807
 Alpha virt. eigenvalues --   -0.13992  -0.12402  -0.06902   0.02654   0.07088
 Alpha virt. eigenvalues --    0.08735   0.19809   0.24460   0.25049   0.38833
 Alpha virt. eigenvalues --    0.39197   0.41034   0.44116   0.44331   0.47602

 Mulliken charges:
               1
     1  C   -0.157913
     2  C   -0.163531
     3  C   -0.002737
     4  H    0.131512
     5  H    0.170123
     6  C    0.022546
 Sum of Mulliken charges =  -0.00000

 Dipole moment (field-independent basis, Debye):
    X=             -0.0430    Y=              0.2934    Z=              0.4292  Tot=              0.5217
 Quadrupole moment (field-independent basis, Debye-Ang):
   XX=            -34.9118   YY=            -19.7925   ZZ=            -26.6890
   XY=              3.9855   XZ=             -0.0721   YZ=             -0.1492

 Normal termination of Gaussian 16 at Fri Sep 22 16:30:33 2023.
