 Gaussian 16, Revision A.03,
 Gaussian 16:  ES64L-G16RevA.03 25-Dec-2016

 ----------------------------------------------------------------------
 #p b3lyp/gen scrf=(cpcm,solvent=toluene) pop=hirshfeld empiricaldisper
 sion=gd3bj
 ----------------------------------------------------------------------

 --------------------
 tmpdir/M2_ref_18.gjf
 --------------------
 Symbolic Z-matrix:
 Charge =  0 Multiplicity = 1

                         Standard orientation:
 ---------------------------------------------------------------------
 Center     Atomic      Atomic             Coordinates (Angstroms)
 Number     Number       Type             X           Y           Z
 ---------------------------------------------------------------------
      1          6           0       -1.433239   -0.463126    0.000473
      2          6           0       -0.579651    0.635190   -0.002367
      3          6           0        0.811949    0.477481    0.001459
      4          1           0       -1.044597   -1.399385    0.005250
      5          1           0       -2.507195   -0.310203    0.002607
      6          1           0       -1.010039    1.635069   -0.002619
      7          8           0        1.288030   -0.646318   -0.001387
      8          1           0        1.463231    1.347794    0.008473
 ---------------------------------------------------------------------

 SCF Done:  E(RB3LYP) =  -191.879270702     A.U. after   11 cycles

 The electronic state is 1-A.
 Alpha  occ. eigenvalues --  -19.11852 -10.26300 -10.20956 -10.19669  -1.05395
 Alpha  occ. eigenvalues --   -0.80091  -0.67960  -0.55663  -0.52569  -0.45898
 Alpha  occ. eigenvalues --   -0.43016  -0.41146  -0.39703  -0.28717  -0.26901
 Alpha virt. eigenvalues --   -0.09235   0.05460   0.05618   0.08184   0.10832
 Alpha virt. eigenvalues --    0.13379   0.21895   0.24982   0.29422   0.40125
 Alpha virt. eigenvalues --    0.41565   0.45559   0.46182   0.47635   0.51711

 Mulliken charges:
               1
     1  C    0.004132
     2  C   -0.279718
     3  C    0.307074
     4  H    0.084440
     5  H    0.121902
     6  H    0.087392
     7  O   -0.382510
     8  H    0.057288
 Sum of Mulliken charges =   0.00000

 Dipole moment (field-independent basis, Debye):
    X=             -2.3670    Y=              2.0296    Z=              0.0138  Tot=              3.1180
 Quadrupole moment (field-independent basis, Debye-Ang):
   XX=            -23.7291   YY=            -22.6148   ZZ=            -25.0001
   XY=              3.5598   XZ=             -0.0011   YZ=             -0.0072

 Normal termination of Gaussian 16 at Fri Sep 22 16:27:31 2023.
