 Gaussian 16, Revision A.03,
 Gaussian 16:  ES64L-G16RevA.03 25-Dec-2016

 ----------------------------------------------------------------------
 #p b3lyp/gen scrf=(cpcm,solvent=toluene) pop=hirshfeld empiricaldisper
 sion=gd3bj
 ----------------------------------------------------------------------

 --------------------
 tmpdir/M2_ref_43.gjf
 --------------------
 Symbolic Z-matrix:
 Charge =  0 Multiplicity = 1

                         Standard orientation:
 ---------------------------------------------------------------------
 Center     Atomic      Atomic             Coordinates (Angstroms)
 Number     Number       Type             X           Y           Z
 ---------------------------------------------------------------------
      1          6           0       -1.089393   -0.002146   -0.002146
      2         16           0        0.617701   -0.000236    0.000205
      3          1           0       -1.664321    0.896299    0.004736
      4          1           0       -1.682532   -0.879648    0.004856
 ---------------------------------------------------------------------

 SCF Done:  E(RB3LYP) =  -437.458026367     A.U. after   10 cycles

 The electronic state is 1-A.
 Alpha  occ. eigenvalues --  -88.86012 -10.26174  -7.94285  -5.91100  -5.91055
 Alpha  occ. eigenvalues --   -5.90092  -0.78785  -0.62305  -0.47121  -0.40194
 Alpha  occ. eigenvalues --   -0.31727  -0.24578
 Alpha virt. eigenvalues --   -0.11587   0.04154   0.09427   0.10125   0.29532
 Alpha virt. eigenvalues --    0.30596   0.31324   0.33692   0.40320   0.44375
 Alpha virt. eigenvalues --    0.44835   0.61250   0.61609   0.66673   0.67249

 Mulliken charges:
               1
     1  C   -0.167900
     2  S   -0.123172
     3  H    0.146261
     4  H    0.144812
 Sum of Mulliken charges =   0.00000

 Dipole moment (field-independent basis, Debye):
    X=             -2.3243    Y=              0.0091    Z=              0.0104  Tot=              2.3243
 Quadrupole moment (field-independent basis, Debye-Ang):
   XX=            -16.6301   YY=            -20.8893   ZZ=            -20.0900
   XY=              0.0257   XZ=             -0.0085   YZ=              0.0002

 Normal termination of Gaussian 16 at Fri Sep 22 16:28:21 2023.
