 Gaussian 16, Revision A.03,
 Gaussian 16:  ES64L-G16RevA.03 25-Dec-2016

 ----------------------------------------------------------------------
 #p b3lyp/gen scrf=(cpcm,solvent=toluene) pop=hirshfeld empiricaldisper
 sion=gd3bj
 ----------------------------------------------------------------------

 ---------------------
 tmpdir/M2_ref_276.gjf
 ---------------------
 Symbolic Z-matrix:
 Charge =  0 Multiplicity = 1

                         Standard orientation:
 ---------------------------------------------------------------------
 Center     Atomic      Atomic             Coordinates (Angstroms)
 Number     Number       Type             X           Y           Z
 ---------------------------------------------------------------------
      1          8           0       -1.155723   -0.372158   -0.042254
      2          6           0       -0.063165    0.569277   -0.009027
      3          6           0        1.215196   -0.238143    0.014756
      4          1           0       -1.984275   -0.103671    0.275136
      5          1           0       -0.133999    1.205759   -0.900917
      6          1           0       -0.167849    1.214388    0.868882
      7          1           0        2.082672    0.433792    0.001403
      8          1           0        1.263687   -0.858917    0.916316
      9          1           0        1.273365   -0.900882   -0.857159
 ---------------------------------------------------------------------

 SCF Done:  E(RB3LYP) =  -155.018210392     A.U. after   10 cycles

 The electronic state is 1-A.
 Alpha  occ. eigenvalues --  -19.10505 -10.22217 -10.16635  -1.01434  -0.75488
 Alpha  occ. eigenvalues --   -0.61944  -0.52039  -0.46452  -0.40360  -0.38754
 Alpha  occ. eigenvalues --   -0.36706  -0.32435  -0.27200
 Alpha virt. eigenvalues --    0.04705   0.07303   0.09729   0.10246   0.12044
 Alpha virt. eigenvalues --    0.14340   0.18251   0.21286   0.38319   0.39714
 Alpha virt. eigenvalues --    0.44924   0.47023   0.53576   0.57665   0.61789

 Mulliken charges:
               1
     1  O   -0.490112
     2  C    0.082619
     3  C   -0.216332
     4  H    0.203228
     5  H    0.075989
     6  H    0.077751
     7  H    0.084291
     8  H    0.089001
     9  H    0.093565
 Sum of Mulliken charges =   0.00000

 Dipole moment (field-independent basis, Debye):
    X=             -0.1497    Y=              1.5976    Z=              0.6620  Tot=              1.7357
 Quadrupole moment (field-independent basis, Debye-Ang):
   XX=            -17.0881   YY=            -20.7051   ZZ=            -20.0172
   XY=             -1.2822   XZ=             -1.4152   YZ=             -0.0414

 Normal termination of Gaussian 16 at Fri Sep 22 16:30:36 2023.
