 Gaussian 16, Revision A.03,
 Gaussian 16:  ES64L-G16RevA.03 25-Dec-2016

 ----------------------------------------------------------------------
 #p b3lyp/gen scrf=(cpcm,solvent=toluene) pop=hirshfeld empiricaldisper
 sion=gd3bj
 ----------------------------------------------------------------------

 ---------------------
 tmpdir/M2_ref_129.gjf
 ---------------------
 Symbolic Z-matrix:
 Charge =  0 Multiplicity = 1

                         Standard orientation:
 ---------------------------------------------------------------------
 Center     Atomic      Atomic             Coordinates (Angstroms)
 Number     Number       Type             X           Y           Z
 ---------------------------------------------------------------------
      1          6           0        0.773364    0.005685   -0.006177
      2          6           0       -0.763312   -0.002599   -0.000862
      3          1           0       -1.158576   -0.951037    0.385605
      4          1           0        1.136504   -0.853866   -0.648217
      5          1           0        1.133990    0.994907   -0.366518
      6          1           0        1.141233   -0.172310    1.029368
      7          1           0       -1.177914    0.161709   -1.003482
      8          1           0       -1.135543    0.802080    0.645477
 ---------------------------------------------------------------------

 SCF Done:  E(RB3LYP) =  -79.8203357893     A.U. after    9 cycles

 The electronic state is 1-A.
 Alpha  occ. eigenvalues --  -10.17269 -10.16509  -0.75158  -0.60993  -0.43818
 Alpha  occ. eigenvalues --   -0.43306  -0.36371  -0.34698  -0.34101
 Alpha virt. eigenvalues --    0.04834   0.09192   0.10408   0.10522   0.13452
 Alpha virt. eigenvalues --    0.13701   0.21041   0.37327   0.38971   0.39894
 Alpha virt. eigenvalues --    0.46031   0.47036   0.58109   0.62973   0.63794

 Mulliken charges:
               1
     1  C   -0.272522
     2  C   -0.260616
     3  H    0.086187
     4  H    0.092546
     5  H    0.094453
     6  H    0.089254
     7  H    0.086864
     8  H    0.083834
 Sum of Mulliken charges =  -0.00000

 Dipole moment (field-independent basis, Debye):
    X=             -0.0456    Y=              0.0079    Z=              0.0354  Tot=              0.0582
 Quadrupole moment (field-independent basis, Debye-Ang):
   XX=            -16.1554   YY=            -14.9021   ZZ=            -15.0979
   XY=              0.0213   XZ=              0.0782   YZ=             -0.0343

 Normal termination of Gaussian 16 at Fri Sep 22 16:28:45 2023.
