 Gaussian 16, Revision A.03,
 Gaussian 16:  ES64L-G16RevA.03 25-Dec-2016

 ----------------------------------------------------------------------
 #p b3lyp/gen scrf=(cpcm,solvent=toluene) pop=hirshfeld empiricaldisper
 sion=gd3bj
 ----------------------------------------------------------------------

 --------------------
 tmpdir/M2_ref_69.gjf
 --------------------
 Symbolic Z-matrix:
 Charge =  0 Multiplicity = 1

                         Standard orientation:
 ---------------------------------------------------------------------
 Center     Atomic      Atomic             Coordinates (Angstroms)
 Number     Number       Type             X           Y           Z
 ---------------------------------------------------------------------
      1          6           0       -1.284685   -0.271019    0.006100
      2          6           0        0.007372    0.570378   -0.008731
      3          6           0        1.288539   -0.257948    0.000773
      4          1           0       -2.154137    0.439261   -0.212007
      5          1           0       -1.441467   -0.685792    1.002035
      6          1           0       -1.255107   -1.085693   -0.759669
      7          1           0       -0.001717    1.198461   -0.912502
      8          1           0       -0.032676    1.258737    0.845089
      9          1           0        1.299433   -0.945018   -0.865663
     10          1           0        2.158911    0.410981   -0.019654
     11          1           0        1.359402   -0.839404    0.933517
 ---------------------------------------------------------------------

 SCF Done:  E(RB3LYP) =  -119.130206485     A.U. after   10 cycles

 The electronic state is 1-A.
 Alpha  occ. eigenvalues --  -10.16925 -10.16894 -10.16473  -0.78003  -0.67869
 Alpha  occ. eigenvalues --   -0.57971  -0.45905  -0.43291  -0.39909  -0.38538
 Alpha  occ. eigenvalues --   -0.33836  -0.33386  -0.32767
 Alpha virt. eigenvalues --    0.04482   0.08539   0.08834   0.08970   0.11768
 Alpha virt. eigenvalues --    0.13156   0.14256   0.14862   0.19091   0.23692
 Alpha virt. eigenvalues --    0.37204   0.38598   0.40286   0.40932   0.41794

 Mulliken charges:
               1
     1  C   -0.227444
     2  C   -0.259377
     3  C   -0.203744
     4  H    0.089612
     5  H    0.085888
     6  H    0.088617
     7  H    0.084833
     8  H    0.085425
     9  H    0.087508
    10  H    0.086799
    11  H    0.081882
 Sum of Mulliken charges =  -0.00000

 Dipole moment (field-independent basis, Debye):
    X=              0.0401    Y=              0.1149    Z=              0.0446  Tot=              0.1296
 Quadrupole moment (field-independent basis, Debye-Ang):
   XX=            -22.9807   YY=            -22.2418   ZZ=            -21.6239
   XY=             -0.0444   XZ=             -0.0105   YZ=              0.1453

 Normal termination of Gaussian 16 at Fri Sep 22 16:28:23 2023.
