 Gaussian 16, Revision A.03,
 Gaussian 16:  ES64L-G16RevA.03 25-Dec-2016

 ----------------------------------------------------------------------
 #p b3lyp/gen scrf=(cpcm,solvent=toluene) pop=hirshfeld empiricaldisper
 sion=gd3bj
 ----------------------------------------------------------------------

 --------------------
 tmpdir/M2_ref_13.gjf
 --------------------
 Symbolic Z-matrix:
 Charge =  0 Multiplicity = 1

                         Standard orientation:
 ---------------------------------------------------------------------
 Center     Atomic      Atomic             Coordinates (Angstroms)
 Number     Number       Type             X           Y           Z
 ---------------------------------------------------------------------
      1          6           0       -0.793831    0.499761    0.001898
      2          6           0        0.598626    0.648610   -0.002766
      3          6           0        1.410449   -0.480925    0.000856
      4          8           0       -1.292251   -0.650784   -0.001975
      5          1           0       -1.509800    1.332100    0.010959
      6          1           0        1.049251    1.635377   -0.004120
      7          1           0        1.015839   -1.414766    0.006986
      8          1           0        2.491255   -0.351121    0.002043
 ---------------------------------------------------------------------

 SCF Done:  E(RB3LYP) =  -191.877503003     A.U. after   11 cycles

 The electronic state is 1-A.
 Alpha  occ. eigenvalues --  -19.11634 -10.26612 -10.21205 -10.20065  -1.03526
 Alpha  occ. eigenvalues --   -0.80289  -0.67874  -0.55773  -0.52551  -0.45716
 Alpha  occ. eigenvalues --   -0.42586  -0.40245  -0.39734  -0.28679  -0.26705
 Alpha virt. eigenvalues --   -0.09615   0.04916   0.05524   0.08162   0.10475
 Alpha virt. eigenvalues --    0.13300   0.21412   0.25004   0.28711   0.40260
 Alpha virt. eigenvalues --    0.40766   0.45400   0.46190   0.48102   0.51452

 Mulliken charges:
               1
     1  C    0.295298
     2  C   -0.259111
     3  C    0.006540
     4  O   -0.410356
     5  H    0.067663
     6  H    0.090203
     7  H    0.087454
     8  H    0.122309
 Sum of Mulliken charges =  -0.00000

 Dipole moment (field-independent basis, Debye):
    X=              2.5196    Y=              2.1064    Z=              0.0167  Tot=              3.2841
 Quadrupole moment (field-independent basis, Debye-Ang):
   XX=            -23.7873   YY=            -22.4856   ZZ=            -25.0793
   XY=             -3.6871   XZ=             -0.0050   YZ=             -0.0109

 Normal termination of Gaussian 16 at Fri Sep 22 16:28:02 2023.
