 Gaussian 16, Revision A.03,
 Gaussian 16:  ES64L-G16RevA.03 25-Dec-2016

 ----------------------------------------------------------------------
 #p b3lyp/gen scrf=(cpcm,solvent=toluene) pop=hirshfeld empiricaldisper
 sion=gd3bj
 ----------------------------------------------------------------------

 ---------------------
 tmpdir/M2_ref_234.gjf
 ---------------------
 Symbolic Z-matrix:
 Charge =  0 Multiplicity = 1

                         Standard orientation:
 ---------------------------------------------------------------------
 Center     Atomic      Atomic             Coordinates (Angstroms)
 Number     Number       Type             X           Y           Z
 ---------------------------------------------------------------------
      1          6           0        0.732279    0.490084   -0.030837
      2          7           0       -0.343338   -0.374185   -0.125726
      3          6           0       -1.740018    0.056857    0.063585
      4          8           0        1.749873   -0.194589    0.073231
      5          1           0        0.689232    1.550171   -0.153304
      6          1           0       -0.019694   -1.299898   -0.088210
      7          1           0       -2.442792   -0.324479   -0.718505
      8          1           0       -2.044608   -0.176599    1.110486
      9          1           0       -1.731324    1.145168   -0.052721
 ---------------------------------------------------------------------

 SCF Done:  E(RB3LYP) =  -209.156847437     A.U. after   11 cycles

 The electronic state is 1-A.
 Alpha  occ. eigenvalues --  -19.08652 -14.33421 -10.27948 -10.22091  -1.04724
 Alpha  occ. eigenvalues --   -0.90850  -0.70323  -0.63352  -0.51028  -0.48832
 Alpha  occ. eigenvalues --   -0.45579  -0.41937  -0.39755  -0.38950  -0.26308
 Alpha  occ. eigenvalues --   -0.24891
 Alpha virt. eigenvalues --   -0.00173   0.04807   0.06765   0.10079   0.10926
 Alpha virt. eigenvalues --    0.11056   0.16656   0.22654   0.28054   0.36200
 Alpha virt. eigenvalues --    0.37002   0.42601   0.48325   0.52759   0.55361

 Mulliken charges:
               1
     1  C    0.367556
     2  N   -0.443032
     3  C   -0.008714
     4  O   -0.473027
     5  H    0.085889
     6  H    0.167215
     7  H    0.109809
     8  H    0.107098
     9  H    0.087206
 Sum of Mulliken charges =  -0.00000

 Dipole moment (field-independent basis, Debye):
    X=             -4.0438    Y=              1.2285    Z=             -0.0484  Tot=              4.2266
 Quadrupole moment (field-independent basis, Debye-Ang):
   XX=            -30.0772   YY=            -20.9126   ZZ=            -24.9055
   XY=              1.6186   XZ=             -0.5052   YZ=             -0.1227

 Normal termination of Gaussian 16 at Fri Sep 22 16:29:27 2023.
