 Gaussian 16, Revision A.03,
 Gaussian 16:  ES64L-G16RevA.03 25-Dec-2016

 ----------------------------------------------------------------------
 #p b3lyp/gen scrf=(cpcm,solvent=toluene) pop=hirshfeld empiricaldisper
 sion=gd3bj
 ----------------------------------------------------------------------

 ---------------------
 tmpdir/M2_ref_379.gjf
 ---------------------
 Symbolic Z-matrix:
 Charge =  0 Multiplicity = 1

                         Standard orientation:
 ---------------------------------------------------------------------
 Center     Atomic      Atomic             Coordinates (Angstroms)
 Number     Number       Type             X           Y           Z
 ---------------------------------------------------------------------
      1          6           0        0.643258    0.364274    0.017894
      2          6           0       -0.528005   -0.437583    0.010738
      3          6           0       -1.775710    0.143571   -0.012126
      4          1           0        0.546140    1.394928    0.038241
      5          8           0        1.797404   -0.122728   -0.017552
      6          1           0       -0.421799   -1.518791    0.039755
      7          1           0       -2.667797   -0.479492   -0.019440
      8          1           0       -1.873032    1.163604   -0.017178
 ---------------------------------------------------------------------

 SCF Done:  E(RB3LYP) =  -191.883887371     A.U. after   11 cycles

 The electronic state is 1-A.
 Alpha  occ. eigenvalues --  -19.12142 -10.26401 -10.21617 -10.20433  -1.03534
 Alpha  occ. eigenvalues --   -0.81481  -0.66999  -0.59315  -0.49807  -0.47976
 Alpha  occ. eigenvalues --   -0.42029  -0.40987  -0.40161  -0.29695  -0.26889
 Alpha virt. eigenvalues --   -0.08838   0.03600   0.05955   0.06886   0.10941
 Alpha virt. eigenvalues --    0.13169   0.20929   0.25780   0.28790   0.39617
 Alpha virt. eigenvalues --    0.43563   0.44989   0.46788   0.47526   0.50680

 Mulliken charges:
               1
     1  C    0.312787
     2  C   -0.219221
     3  C   -0.035228
     4  H    0.038371
     5  O   -0.412553
     6  H    0.097196
     7  H    0.126878
     8  H    0.091771
 Sum of Mulliken charges =  -0.00000

 Dipole moment (field-independent basis, Debye):
    X=             -4.0762    Y=              0.9434    Z=              0.0861  Tot=              4.1848
 Quadrupole moment (field-independent basis, Debye-Ang):
   XX=            -27.5750   YY=            -21.5225   ZZ=            -25.0690
   XY=              0.9834   XZ=              0.1411   YZ=             -0.0426

 Normal termination of Gaussian 16 at Fri Sep 22 16:31:08 2023.
