 Gaussian 16, Revision A.03,
 Gaussian 16:  ES64L-G16RevA.03 25-Dec-2016

 ----------------------------------------------------------------------
 #p b3lyp/gen scrf=(cpcm,solvent=toluene) pop=hirshfeld empiricaldisper
 sion=gd3bj
 ----------------------------------------------------------------------

 ---------------------
 tmpdir/M2_ref_207.gjf
 ---------------------
 Symbolic Z-matrix:
 Charge =  0 Multiplicity = 1

                         Standard orientation:
 ---------------------------------------------------------------------
 Center     Atomic      Atomic             Coordinates (Angstroms)
 Number     Number       Type             X           Y           Z
 ---------------------------------------------------------------------
      1          6           0       -0.561392   -0.016406   -0.000297
      2          1           0       -1.077858    0.939559    0.000592
      3          1           0       -1.071638   -0.872957    0.000673
      4          8           0        0.689731    0.003979    0.000065
 ---------------------------------------------------------------------

 SCF Done:  E(RB3LYP) =  -114.477035103     A.U. after    9 cycles

 The electronic state is 1-A.
 Alpha  occ. eigenvalues --  -19.13997 -10.27296  -1.04483  -0.65993  -0.51186
 Alpha  occ. eigenvalues --   -0.44868  -0.39175  -0.27598
 Alpha virt. eigenvalues --   -0.06309   0.06631   0.11761   0.17557   0.40516
 Alpha virt. eigenvalues --    0.47458   0.52854   0.57305   0.62779   0.73215
 Alpha virt. eigenvalues --    0.79236   0.87559   0.97862   1.31974   1.49602

 Mulliken charges:
               1
     1  C    0.238970
     2  H    0.086006
     3  H    0.067598
     4  O   -0.392574
 Sum of Mulliken charges =   0.00000

 Dipole moment (field-independent basis, Debye):
    X=             -2.9265    Y=             -0.1054    Z=              0.0002  Tot=              2.9284
 Quadrupole moment (field-independent basis, Debye-Ang):
   XX=            -11.9751   YY=            -11.4228   ZZ=            -11.5704
   XY=              0.1129   XZ=             -0.0006   YZ=              0.0001

 Normal termination of Gaussian 16 at Fri Sep 22 16:29:04 2023.
