 Gaussian 16, Revision A.03,
 Gaussian 16:  ES64L-G16RevA.03 25-Dec-2016

 ----------------------------------------------------------------------
 #p b3lyp/gen scrf=(cpcm,solvent=toluene) pop=hirshfeld empiricaldisper
 sion=gd3bj
 ----------------------------------------------------------------------

 ---------------------
 tmpdir/M2_ref_115.gjf
 ---------------------
 Symbolic Z-matrix:
 Charge =  0 Multiplicity = 1

                         Standard orientation:
 ---------------------------------------------------------------------
 Center     Atomic      Atomic             Coordinates (Angstroms)
 Number     Number       Type             X           Y           Z
 ---------------------------------------------------------------------
      1          8           0        1.181162   -0.272807    0.008425
      2          6           0        0.140519    0.432359   -0.003320
      3          7           0       -1.057375   -0.152482   -0.008085
      4          1           0        0.223538    1.535877   -0.038473
      5          1           0       -1.141807   -1.197593   -0.041161
      6          1           0       -1.972512    0.317393    0.088745
 ---------------------------------------------------------------------

 SCF Done:  E(RB3LYP) =  -169.872785875     A.U. after   11 cycles

 The electronic state is 1-A.
 Alpha  occ. eigenvalues --  -19.08913 -14.35567 -10.28723  -1.02825  -0.91061
 Alpha  occ. eigenvalues --   -0.63595  -0.55582  -0.48827  -0.41385  -0.40535
 Alpha  occ. eigenvalues --   -0.27805  -0.26190
 Alpha virt. eigenvalues --    0.00748   0.03820   0.06110   0.11028   0.20971
 Alpha virt. eigenvalues --    0.29613   0.41326   0.43826   0.47673   0.51342
 Alpha virt. eigenvalues --    0.59100   0.64923   0.66312   0.69942   0.74206

 Mulliken charges:
               1
     1  O   -0.485393
     2  C    0.347149
     3  N   -0.361096
     4  H    0.082646
     5  H    0.210941
     6  H    0.205754
 Sum of Mulliken charges =  -0.00000

 Dipole moment (field-independent basis, Debye):
    X=             -4.6579    Y=              1.1453    Z=              0.0703  Tot=              4.7972
 Quadrupole moment (field-independent basis, Debye-Ang):
   XX=            -17.7352   YY=            -14.9760   ZZ=            -18.8578
   XY=              1.7813   XZ=             -0.3247   YZ=              0.1432

 Normal termination of Gaussian 16 at Fri Sep 22 16:29:33 2023.
