 Gaussian 16, Revision A.03,
 Gaussian 16:  ES64L-G16RevA.03 25-Dec-2016

 ----------------------------------------------------------------------
 #p b3lyp/gen scrf=(cpcm,solvent=toluene) pop=hirshfeld empiricaldisper
 sion=gd3bj
 ----------------------------------------------------------------------

 ---------------------
 tmpdir/M2_ref_382.gjf
 ---------------------
 Symbolic Z-matrix:
 Charge =  0 Multiplicity = 1

                         Standard orientation:
 ---------------------------------------------------------------------
 Center     Atomic      Atomic             Coordinates (Angstroms)
 Number     Number       Type             X           Y           Z
 ---------------------------------------------------------------------
      1          6           0        0.540174   -0.011387   -0.000741
      2          1           0        1.099300    0.922130    0.001496
      3          8           0       -0.673334    0.006064    0.000169
      4          1           0        1.046333   -0.902320    0.001594
 ---------------------------------------------------------------------

 SCF Done:  E(RB3LYP) =  -114.483516430     A.U. after    9 cycles

 The electronic state is 1-A.
 Alpha  occ. eigenvalues --  -19.13883 -10.27051  -1.06434  -0.65043  -0.51188
 Alpha  occ. eigenvalues --   -0.45472  -0.40316  -0.27435
 Alpha virt. eigenvalues --   -0.05282   0.06558   0.11896   0.18138   0.40322
 Alpha virt. eigenvalues --    0.47687   0.52709   0.60876   0.62580   0.72769
 Alpha virt. eigenvalues --    0.78059   0.87664   0.98002   1.32128   1.50535

 Mulliken charges:
               1
     1  C    0.221934
     2  H    0.076991
     3  O   -0.364285
     4  H    0.065361
 Sum of Mulliken charges =  -0.00000

 Dipole moment (field-independent basis, Debye):
    X=              2.7521    Y=             -0.0915    Z=              0.0003  Tot=              2.7536
 Quadrupole moment (field-independent basis, Debye-Ang):
   XX=            -12.0552   YY=            -11.4881   ZZ=            -11.5033
   XY=             -0.0468   XZ=              0.0015   YZ=              0.0001

 Normal termination of Gaussian 16 at Fri Sep 22 16:31:25 2023.
