 Gaussian 16, Revision A.03,
 Gaussian 16:  ES64L-G16RevA.03 25-Dec-2016

 ----------------------------------------------------------------------
 #p b3lyp/gen scrf=(cpcm,solvent=toluene) pop=hirshfeld empiricaldisper
 sion=gd3bj
 ----------------------------------------------------------------------

 ---------------------
 tmpdir/M2_ref_394.gjf
 ---------------------
 Symbolic Z-matrix:
 Charge =  0 Multiplicity = 1

                         Standard orientation:
 ---------------------------------------------------------------------
 Center     Atomic      Atomic             Coordinates (Angstroms)
 Number     Number       Type             X           Y           Z
 ---------------------------------------------------------------------
      1          6           0       -0.707155    0.495388    0.002280
      2          6           0        0.708349    0.495529   -0.004976
      3          1           0        1.246669    1.441560   -0.009312
      4          8           0       -1.321691   -0.551144   -0.002576
      5          1           0       -1.242651    1.442532    0.017821
      6          8           0        1.320293   -0.552555    0.003535
 ---------------------------------------------------------------------

 SCF Done:  E(RB3LYP) =  -227.778799212     A.U. after   10 cycles

 The electronic state is 1-A.
 Alpha  occ. eigenvalues --  -19.16138 -19.16132 -10.28746 -10.28703  -1.10710
 Alpha  occ. eigenvalues --   -1.07083  -0.75284  -0.57908  -0.55980  -0.48450
 Alpha  occ. eigenvalues --   -0.46345  -0.45821  -0.39303  -0.31837  -0.28546
 Alpha virt. eigenvalues --   -0.13445   0.02881   0.05815   0.09274   0.15226
 Alpha virt. eigenvalues --    0.26035   0.32325   0.37938   0.38634   0.44551
 Alpha virt. eigenvalues --    0.50619   0.56892   0.58833   0.63413   0.66108

 Mulliken charges:
               1
     1  C    0.234571
     2  C    0.233833
     3  H    0.068423
     4  O   -0.302361
     5  H    0.067916
     6  O   -0.302381
 Sum of Mulliken charges =  -0.00000

 Dipole moment (field-independent basis, Debye):
    X=              0.0080    Y=              4.1493    Z=             -0.0028  Tot=              4.1493
 Quadrupole moment (field-independent basis, Debye-Ang):
   XX=            -26.5873   YY=            -21.7171   ZZ=            -21.1672
   XY=              0.0105   XZ=             -0.0295   YZ=              0.0024

 Normal termination of Gaussian 16 at Fri Sep 22 16:32:18 2023.
