 Gaussian 16, Revision A.03,
 Gaussian 16:  ES64L-G16RevA.03 25-Dec-2016

 ----------------------------------------------------------------------
 #p b3lyp/gen scrf=(cpcm,solvent=toluene) pop=hirshfeld empiricaldisper
 sion=gd3bj
 ----------------------------------------------------------------------

 --------------------
 tmpdir/M2_ref_12.gjf
 --------------------
 Symbolic Z-matrix:
 Charge =  0 Multiplicity = 1

                         Standard orientation:
 ---------------------------------------------------------------------
 Center     Atomic      Atomic             Coordinates (Angstroms)
 Number     Number       Type             X           Y           Z
 ---------------------------------------------------------------------
      1          6           0       -0.548096   -0.012644   -0.000673
      2          1           0       -1.101549    0.920339    0.001371
      3          1           0       -1.034546   -0.902030    0.001465
      4          8           0        0.678084    0.007194    0.000150
 ---------------------------------------------------------------------

 SCF Done:  E(RB3LYP) =  -114.481530267     A.U. after    9 cycles

 The electronic state is 1-A.
 Alpha  occ. eigenvalues --  -19.13867 -10.27071  -1.05741  -0.65335  -0.51305
 Alpha  occ. eigenvalues --   -0.45208  -0.39896  -0.27477
 Alpha virt. eigenvalues --   -0.05614   0.06617   0.11834   0.17986   0.40402
 Alpha virt. eigenvalues --    0.47404   0.53054   0.60234   0.62373   0.72972
 Alpha virt. eigenvalues --    0.78460   0.87664   0.98021   1.31957   1.50339

 Mulliken charges:
               1
     1  C    0.228992
     2  H    0.081126
     3  H    0.065217
     4  O   -0.375334
 Sum of Mulliken charges =  -0.00000

 Dipole moment (field-independent basis, Debye):
    X=             -2.8150    Y=             -0.0952    Z=              0.0004  Tot=              2.8166
 Quadrupole moment (field-independent basis, Debye-Ang):
   XX=            -12.0377   YY=            -11.4407   ZZ=            -11.5224
   XY=              0.0342   XZ=             -0.0014   YZ=              0.0001

 Normal termination of Gaussian 16 at Fri Sep 22 16:27:49 2023.
