 Gaussian 16, Revision A.03,
 Gaussian 16:  ES64L-G16RevA.03 25-Dec-2016

 ----------------------------------------------------------------------
 #p b3lyp/gen scrf=(cpcm,solvent=toluene) pop=hirshfeld empiricaldisper
 sion=gd3bj
 ----------------------------------------------------------------------

 ---------------------
 tmpdir/M2_ref_392.gjf
 ---------------------
 Symbolic Z-matrix:
 Charge =  0 Multiplicity = 1

                         Standard orientation:
 ---------------------------------------------------------------------
 Center     Atomic      Atomic             Coordinates (Angstroms)
 Number     Number       Type             X           Y           Z
 ---------------------------------------------------------------------
      1          6           0       -0.540352   -0.011431   -0.001193
      2          1           0       -1.099580    0.922397    0.002414
      3          1           0       -1.043923   -0.903824    0.002569
      4          8           0        0.673202    0.006251    0.000272
 ---------------------------------------------------------------------

 SCF Done:  E(RB3LYP) =  -114.483495130     A.U. after    9 cycles

 The electronic state is 1-A.
 Alpha  occ. eigenvalues --  -19.13875 -10.27050  -1.06429  -0.65024  -0.51204
 Alpha  occ. eigenvalues --   -0.45458  -0.40311  -0.27430
 Alpha virt. eigenvalues --   -0.05280   0.06554   0.11886   0.18143   0.40323
 Alpha virt. eigenvalues --    0.47599   0.52773   0.60912   0.62559   0.72774
 Alpha virt. eigenvalues --    0.78063   0.87668   0.98017   1.32104   1.50571

 Mulliken charges:
               1
     1  C    0.221682
     2  H    0.077312
     3  H    0.065399
     4  O   -0.364393
 Sum of Mulliken charges =  -0.00000

 Dipole moment (field-independent basis, Debye):
    X=             -2.7518    Y=             -0.0917    Z=              0.0005  Tot=              2.7533
 Quadrupole moment (field-independent basis, Debye-Ang):
   XX=            -12.0591   YY=            -11.4831   ZZ=            -11.5042
   XY=              0.0440   XZ=             -0.0024   YZ=              0.0001

 Normal termination of Gaussian 16 at Fri Sep 22 16:31:59 2023.
