 Gaussian 16, Revision A.03,
 Gaussian 16:  ES64L-G16RevA.03 25-Dec-2016

 ----------------------------------------------------------------------
 #p b3lyp/gen scrf=(cpcm,solvent=toluene) pop=hirshfeld empiricaldisper
 sion=gd3bj
 ----------------------------------------------------------------------

 --------------------
 tmpdir/M2_ref_10.gjf
 --------------------
 Symbolic Z-matrix:
 Charge =  0 Multiplicity = 1

                         Standard orientation:
 ---------------------------------------------------------------------
 Center     Atomic      Atomic             Coordinates (Angstroms)
 Number     Number       Type             X           Y           Z
 ---------------------------------------------------------------------
      1          6           0        0.795853   -0.629915    0.002114
      2          6           0       -0.415305    0.073082   -0.000128
      3          8           0       -1.624527   -0.497661   -0.009288
      4          8           0        1.855053   -0.011867   -0.002671
      5          1           0        0.805584   -1.714663    0.002988
      6          8           0       -0.401984    1.326874    0.004258
      7          1           0       -1.717210   -1.483104    0.046701
 ---------------------------------------------------------------------

 SCF Done:  E(RB3LYP) =  -303.007552800     A.U. after   12 cycles

 The electronic state is 1-A.
 Alpha  occ. eigenvalues --  -19.20500 -19.16953 -19.13759 -10.33835 -10.30366
 Alpha  occ. eigenvalues --   -1.13949  -1.09133  -1.03066  -0.76067  -0.65643
 Alpha  occ. eigenvalues --   -0.57778  -0.49862  -0.49324  -0.46113  -0.42483
 Alpha  occ. eigenvalues --   -0.41577  -0.34137  -0.31284  -0.30405
 Alpha virt. eigenvalues --   -0.13087   0.00922   0.04598   0.07584   0.17204
 Alpha virt. eigenvalues --    0.21428   0.28724   0.30761   0.37556   0.43492
 Alpha virt. eigenvalues --    0.45538   0.46655   0.51135   0.55775   0.59333

 Mulliken charges:
               1
     1  C    0.247935
     2  C    0.421479
     3  O   -0.347162
     4  O   -0.294454
     5  H    0.075133
     6  O   -0.375269
     7  H    0.272337
 Sum of Mulliken charges =  -0.00000

 Dipole moment (field-independent basis, Debye):
    X=             -1.6212    Y=             -5.9121    Z=              0.1125  Tot=              6.1314
 Quadrupole moment (field-independent basis, Debye-Ang):
   XX=            -33.0943   YY=            -25.8827   ZZ=            -26.6126
   XY=              3.3489   XZ=             -0.1873   YZ=             -0.1876

 Normal termination of Gaussian 16 at Fri Sep 22 16:27:40 2023.
