 Gaussian 16, Revision A.03,
 Gaussian 16:  ES64L-G16RevA.03 25-Dec-2016

 ----------------------------------------------------------------------
 #p b3lyp/gen scrf=(cpcm,solvent=toluene) pop=hirshfeld empiricaldisper
 sion=gd3bj
 ----------------------------------------------------------------------

 ---------------------
 tmpdir/M2_ref_294.gjf
 ---------------------
 Symbolic Z-matrix:
 Charge =  0 Multiplicity = 1

                         Standard orientation:
 ---------------------------------------------------------------------
 Center     Atomic      Atomic             Coordinates (Angstroms)
 Number     Number       Type             X           Y           Z
 ---------------------------------------------------------------------
      1          6           0       -0.713191    0.469044   -0.001394
      2          6           0        0.699352    0.509637   -0.003423
      3          6           0       -1.407385   -0.725054    0.000323
      4          1           0       -1.258686    1.406423    0.009641
      5          1           0        1.214181    1.400713    0.006941
      6          6           0        1.428641   -0.721483    0.001730
 ---------------------------------------------------------------------

 SCF Done:  E(RB3LYP) =  -153.285389847     A.U. after   12 cycles

 The electronic state is 1-A.
 Alpha  occ. eigenvalues --  -10.27989 -10.27087 -10.22522 -10.22281  -0.85712
 Alpha  occ. eigenvalues --   -0.73415  -0.61734  -0.51187  -0.49892  -0.36913
 Alpha  occ. eigenvalues --   -0.33353  -0.31391  -0.25544
 Alpha virt. eigenvalues --   -0.14461  -0.11721  -0.08289   0.04310   0.06028
 Alpha virt. eigenvalues --    0.09979   0.19533   0.26348   0.30806   0.36621
 Alpha virt. eigenvalues --    0.39229   0.43037   0.44641   0.45607   0.46209

 Mulliken charges:
               1
     1  C   -0.168335
     2  C   -0.129682
     3  C    0.000327
     4  H    0.164194
     5  H    0.124928
     6  C    0.008568
 Sum of Mulliken charges =  -0.00000

 Dipole moment (field-independent basis, Debye):
    X=              0.0401    Y=              3.9782    Z=              0.0209  Tot=              3.9785
 Quadrupole moment (field-independent basis, Debye-Ang):
   XX=            -25.7774   YY=            -24.3774   ZZ=            -26.6388
   XY=             -0.2184   XZ=             -0.0106   YZ=              0.0439

 Normal termination of Gaussian 16 at Fri Sep 22 16:31:17 2023.
