 Gaussian 16, Revision A.03,
 Gaussian 16:  ES64L-G16RevA.03 25-Dec-2016

 ----------------------------------------------------------------------
 #p b3lyp/gen scrf=(cpcm,solvent=toluene) pop=hirshfeld empiricaldisper
 sion=gd3bj
 ----------------------------------------------------------------------

 ---------------------
 tmpdir/M2_ref_114.gjf
 ---------------------
 Symbolic Z-matrix:
 Charge =  0 Multiplicity = 1

                         Standard orientation:
 ---------------------------------------------------------------------
 Center     Atomic      Atomic             Coordinates (Angstroms)
 Number     Number       Type             X           Y           Z
 ---------------------------------------------------------------------
      1          6           0        1.389611   -0.341817    0.008571
      2          6           0       -0.072381    0.107335   -0.007493
      3          7           0       -1.053418   -0.795074    0.007935
      4          1           0        1.971802    0.253229   -0.762634
      5          1           0        1.453067   -1.391996   -0.280320
      6          1           0        1.851971   -0.245660    1.038081
      7          8           0       -0.349792    1.333447   -0.002505
      8          1           0       -2.056548   -0.493169    0.063267
      9          1           0       -0.951417   -1.817571   -0.100366
 ---------------------------------------------------------------------

 SCF Done:  E(RB3LYP) =  -209.191614465     A.U. after   11 cycles

 The electronic state is 1-A.
 Alpha  occ. eigenvalues --  -19.07958 -14.35096 -10.28570 -10.19248  -1.02549
 Alpha  occ. eigenvalues --   -0.90830  -0.73720  -0.60483  -0.53132  -0.47285
 Alpha  occ. eigenvalues --   -0.44662  -0.40351  -0.39486  -0.37165  -0.27358
 Alpha  occ. eigenvalues --   -0.25357
 Alpha virt. eigenvalues --    0.01373   0.02943   0.07155   0.07857   0.12055
 Alpha virt. eigenvalues --    0.12512   0.19071   0.24825   0.34791   0.41557
 Alpha virt. eigenvalues --    0.44113   0.45470   0.46580   0.49609   0.50853

 Mulliken charges:
               1
     1  C   -0.200069
     2  C    0.277337
     3  N   -0.366728
     4  H    0.130326
     5  H    0.085953
     6  H    0.141083
     7  O   -0.478418
     8  H    0.208690
     9  H    0.201826
 Sum of Mulliken charges =  -0.00000

 Dipole moment (field-independent basis, Debye):
    X=             -0.1513    Y=             -4.8269    Z=             -0.0564  Tot=              4.8296
 Quadrupole moment (field-independent basis, Debye-Ang):
   XX=            -19.7208   YY=            -26.6995   ZZ=            -24.9940
   XY=              2.9624   XZ=              0.0284   YZ=              0.2374

 Normal termination of Gaussian 16 at Fri Sep 22 16:29:25 2023.
