 Gaussian 16, Revision A.03,
 Gaussian 16:  ES64L-G16RevA.03 25-Dec-2016

 ----------------------------------------------------------------------
 #p b3lyp/gen scrf=(cpcm,solvent=toluene) pop=hirshfeld empiricaldisper
 sion=gd3bj
 ----------------------------------------------------------------------

 ---------------------
 tmpdir/M2_ref_106.gjf
 ---------------------
 Symbolic Z-matrix:
 Charge =  0 Multiplicity = 1

                         Standard orientation:
 ---------------------------------------------------------------------
 Center     Atomic      Atomic             Coordinates (Angstroms)
 Number     Number       Type             X           Y           Z
 ---------------------------------------------------------------------
      1          7           0       -1.367045   -0.498349   -0.122909
      2          6           0       -0.595116    0.674931    0.211694
      3          6           0        0.862880    0.450657   -0.192490
      4          1           0       -1.728654   -0.677123   -0.983242
      5          1           0       -1.493928   -1.225549    0.588797
      6          1           0       -1.009622    1.506644   -0.359970
      7          1           0       -0.696109    0.935337    1.309375
      8          8           0        1.437270   -0.625610    0.110920
      9          1           0        1.392890    1.200488   -0.697173
 ---------------------------------------------------------------------

 SCF Done:  E(RB3LYP) =  -209.129941117     A.U. after   11 cycles

 The electronic state is 1-A.
 Alpha  occ. eigenvalues --  -19.12374 -14.28939 -10.26461 -10.21996  -1.03147
 Alpha  occ. eigenvalues --   -0.88463  -0.71542  -0.59551  -0.51686  -0.48509
 Alpha  occ. eigenvalues --   -0.46164  -0.43396  -0.39452  -0.36109  -0.27111
 Alpha  occ. eigenvalues --   -0.22461
 Alpha virt. eigenvalues --   -0.05049   0.05236   0.07317   0.08058   0.10564
 Alpha virt. eigenvalues --    0.15049   0.19384   0.23520   0.24258   0.41929
 Alpha virt. eigenvalues --    0.44223   0.46247   0.47575   0.53616   0.56256

 Mulliken charges:
               1
     1  N   -0.463258
     2  C    0.006991
     3  C    0.250674
     4  H    0.143423
     5  H    0.178197
     6  H    0.094592
     7  H    0.135189
     8  O   -0.396048
     9  H    0.050240
 Sum of Mulliken charges =   0.00000

 Dipole moment (field-independent basis, Debye):
    X=             -2.0605    Y=              2.1815    Z=             -0.5108  Tot=              3.0440
 Quadrupole moment (field-independent basis, Debye-Ang):
   XX=            -28.0201   YY=            -23.3414   ZZ=            -21.9397
   XY=              4.4166   XZ=             -0.0660   YZ=             -0.3112

 Normal termination of Gaussian 16 at Fri Sep 22 16:28:20 2023.
