 Gaussian 16, Revision A.03,
 Gaussian 16:  ES64L-G16RevA.03 25-Dec-2016

 ----------------------------------------------------------------------
 #p b3lyp/gen scrf=(cpcm,solvent=toluene) pop=hirshfeld empiricaldisper
 sion=gd3bj
 ----------------------------------------------------------------------

 --------------------
 tmpdir/M2_ref_53.gjf
 --------------------
 Symbolic Z-matrix:
 Charge =  0 Multiplicity = 1

                         Standard orientation:
 ---------------------------------------------------------------------
 Center     Atomic      Atomic             Coordinates (Angstroms)
 Number     Number       Type             X           Y           Z
 ---------------------------------------------------------------------
      1          7           0       -0.728899    0.017536    0.047823
      2          6           0        0.725099    0.004244   -0.005848
      3          1           0       -1.300926    0.749982   -0.115177
      4          1           0       -1.162022   -0.903743   -0.091227
      5          1           0        1.017794   -0.610423   -0.890378
      6          1           0        1.057864    1.032763   -0.146985
      7          1           0        1.138989   -0.416793    0.944097
 ---------------------------------------------------------------------

 SCF Done:  E(RB3LYP) =  -95.8323850904     A.U. after    9 cycles

 The electronic state is 1-A.
 Alpha  occ. eigenvalues --  -14.27236 -10.19596  -0.86379  -0.65918  -0.49862
 Alpha  occ. eigenvalues --   -0.42857  -0.41506  -0.37283  -0.21016
 Alpha virt. eigenvalues --    0.05085   0.08479   0.09748   0.12210   0.15480
 Alpha virt. eigenvalues --    0.20446   0.40456   0.44475   0.45709   0.56224
 Alpha virt. eigenvalues --    0.61147   0.62768   0.64962   0.69951   0.71684

 Mulliken charges:
               1
     1  N   -0.511545
     2  C   -0.031399
     3  H    0.133060
     4  H    0.162259
     5  H    0.076628
     6  H    0.085864
     7  H    0.085132
 Sum of Mulliken charges =  -0.00000

 Dipole moment (field-independent basis, Debye):
    X=             -0.1168    Y=             -0.0340    Z=             -0.6441  Tot=              0.6555
 Quadrupole moment (field-independent basis, Debye-Ang):
   XX=            -13.1393   YY=            -12.3609   ZZ=            -15.5636
   XY=              0.1236   XZ=              0.8216   YZ=             -0.0637

 Normal termination of Gaussian 16 at Fri Sep 22 16:28:24 2023.
