 Gaussian 16, Revision A.03,
 Gaussian 16:  ES64L-G16RevA.03 25-Dec-2016

 ----------------------------------------------------------------------
 #p b3lyp/gen scrf=(cpcm,solvent=toluene) pop=hirshfeld empiricaldisper
 sion=gd3bj
 ----------------------------------------------------------------------

 ---------------------
 tmpdir/M2_ref_398.gjf
 ---------------------
 Symbolic Z-matrix:
 Charge = -1 Multiplicity = 1

                         Standard orientation:
 ---------------------------------------------------------------------
 Center     Atomic      Atomic             Coordinates (Angstroms)
 Number     Number       Type             X           Y           Z
 ---------------------------------------------------------------------
      1         17           0       -0.000000    0.273025   -0.000000
      2          1           0        0.086775   -1.974701    0.000000
      3          1           0       -0.086775   -2.666726    0.000000
 ---------------------------------------------------------------------

 SCF Done:  E(RB3LYP) =  -461.508377655     A.U. after    9 cycles

 The electronic state is 1-A'.
 Alpha  occ. eigenvalues -- -101.30723  -9.24208  -7.00473  -7.00463  -7.00457
 Alpha  occ. eigenvalues --   -0.59347  -0.34342  -0.14479  -0.14469  -0.13995
 Alpha virt. eigenvalues --    0.17917   0.38618   0.50436   0.50499   0.52079
 Alpha virt. eigenvalues --    0.71761   0.85353   0.92195   0.92346   0.92389
 Alpha virt. eigenvalues --    0.92398   0.97568   1.60273   1.61352   2.29159

 Mulliken charges:
               1
     1  Cl  -0.949003
     2  H    0.076908
     3  H   -0.127905
 Sum of Mulliken charges =  -1.00000

 Dipole moment (field-independent basis, Debye):
    X=              0.0500    Y=             -0.5426    Z=              0.0000  Tot=              0.5449
 Quadrupole moment (field-independent basis, Debye-Ang):
   XX=            -18.1618   YY=            -21.0957   ZZ=            -18.1864
   XY=             -0.0838   XZ=              0.0000   YZ=              0.0000

 Normal termination of Gaussian 16 at Fri Sep 22 16:31:33 2023.
