 Gaussian 16, Revision A.03,
 Gaussian 16:  ES64L-G16RevA.03 25-Dec-2016

 ----------------------------------------------------------------------
 #p b3lyp/gen scrf=(cpcm,solvent=toluene) pop=hirshfeld empiricaldisper
 sion=gd3bj
 ----------------------------------------------------------------------

 ---------------------
 tmpdir/M2_ref_226.gjf
 ---------------------
 Symbolic Z-matrix:
 Charge =  0 Multiplicity = 1

                         Standard orientation:
 ---------------------------------------------------------------------
 Center     Atomic      Atomic             Coordinates (Angstroms)
 Number     Number       Type             X           Y           Z
 ---------------------------------------------------------------------
      1          6           0       -0.576214   -0.388777    0.016154
      2          6           0        0.605434    0.397696    0.009127
      3          1           0       -0.492564   -1.420675    0.032949
      4          6           0       -1.878072    0.180841   -0.019490
      5          6           0        1.845370   -0.199665   -0.018262
      6          1           0        0.513460    1.480101    0.041878
 ---------------------------------------------------------------------

 SCF Done:  E(RB3LYP) =  -153.296763586     A.U. after   13 cycles

 The electronic state is 1-A.
 Alpha  occ. eigenvalues --  -10.28165 -10.27412 -10.22757 -10.22556  -0.85541
 Alpha  occ. eigenvalues --   -0.74512  -0.57851  -0.57553  -0.46561  -0.36925
 Alpha  occ. eigenvalues --   -0.33890  -0.31516  -0.26208
 Alpha virt. eigenvalues --   -0.13827  -0.12648  -0.07089   0.02871   0.06888
 Alpha virt. eigenvalues --    0.09076   0.19655   0.24555   0.25869   0.39172
 Alpha virt. eigenvalues --    0.41151   0.42638   0.44116   0.44174   0.46732

 Mulliken charges:
               1
     1  C   -0.142719
     2  C   -0.150005
     3  H    0.124384
     4  C    0.011109
     5  C    0.003830
     6  H    0.153400
 Sum of Mulliken charges =  -0.00000

 Dipole moment (field-independent basis, Debye):
    X=             -0.0279    Y=              0.1662    Z=              0.0989  Tot=              0.1954
 Quadrupole moment (field-independent basis, Debye-Ang):
   XX=            -34.4185   YY=            -19.7947   ZZ=            -26.7015
   XY=              4.1596   XZ=              0.0167   YZ=              0.0175

 Normal termination of Gaussian 16 at Fri Sep 22 16:29:24 2023.
