 Gaussian 16, Revision A.03,
 Gaussian 16:  ES64L-G16RevA.03 25-Dec-2016

 ----------------------------------------------------------------------
 #p b3lyp/gen scrf=(cpcm,solvent=toluene) pop=hirshfeld empiricaldisper
 sion=gd3bj
 ----------------------------------------------------------------------

 --------------------
 tmpdir/M2_ref_64.gjf
 --------------------
 Symbolic Z-matrix:
 Charge =  0 Multiplicity = 1

                         Standard orientation:
 ---------------------------------------------------------------------
 Center     Atomic      Atomic             Coordinates (Angstroms)
 Number     Number       Type             X           Y           Z
 ---------------------------------------------------------------------
      1          6           0       -1.275967   -0.276519   -0.005507
      2          6           0       -0.005411    0.596681   -0.033601
      3          6           0        1.277766   -0.263304    0.000835
      4          1           0       -1.265246   -1.109826   -0.730196
      5          1           0       -1.386495   -0.690184    1.008415
      6          1           0       -2.138249    0.383509   -0.164516
      7          1           0       -0.043190    1.279541    0.883073
      8          1           0       -0.017021    1.233681   -0.918247
      9          1           0        1.248515   -1.161739   -0.658890
     10          1           0        2.247133    0.329167   -0.225908
     11          1           0        1.376226   -0.605298    1.035905
 ---------------------------------------------------------------------

 SCF Done:  E(RB3LYP) =  -119.126082037     A.U. after   10 cycles

 The electronic state is 1-A.
 Alpha  occ. eigenvalues --  -10.17560 -10.17128 -10.16560  -0.77756  -0.67672
 Alpha  occ. eigenvalues --   -0.58028  -0.45618  -0.43278  -0.39809  -0.38051
 Alpha  occ. eigenvalues --   -0.34188  -0.33315  -0.32585
 Alpha virt. eigenvalues --    0.04416   0.08114   0.08596   0.08760   0.11517
 Alpha virt. eigenvalues --    0.13689   0.14050   0.14905   0.19049   0.23389
 Alpha virt. eigenvalues --    0.36617   0.38362   0.39770   0.41162   0.42615

 Mulliken charges:
               1
     1  C   -0.213267
     2  C   -0.259275
     3  C   -0.234684
     4  H    0.090976
     5  H    0.082138
     6  H    0.086042
     7  H    0.093049
     8  H    0.088648
     9  H    0.090989
    10  H    0.093319
    11  H    0.082064
 Sum of Mulliken charges =  -0.00000

 Dipole moment (field-independent basis, Debye):
    X=             -0.0704    Y=              0.0461    Z=              0.0583  Tot=              0.1024
 Quadrupole moment (field-independent basis, Debye-Ang):
   XX=            -22.8675   YY=            -22.2276   ZZ=            -21.7874
   XY=             -0.1395   XZ=             -0.0659   YZ=              0.2297

 Normal termination of Gaussian 16 at Fri Sep 22 16:27:43 2023.
