 Gaussian 16, Revision A.03,
 Gaussian 16:  ES64L-G16RevA.03 25-Dec-2016

 ----------------------------------------------------------------------
 #p b3lyp/gen scrf=(cpcm,solvent=toluene) pop=hirshfeld empiricaldisper
 sion=gd3bj
 ----------------------------------------------------------------------

 ---------------------
 tmpdir/M2_ref_211.gjf
 ---------------------
 Symbolic Z-matrix:
 Charge =  0 Multiplicity = 1

                         Standard orientation:
 ---------------------------------------------------------------------
 Center     Atomic      Atomic             Coordinates (Angstroms)
 Number     Number       Type             X           Y           Z
 ---------------------------------------------------------------------
      1          6           0        0.685410    0.490865   -0.000640
      2          6           0       -0.688555    0.488228   -0.009368
      3          6           0        1.424431   -0.726014   -0.002975
      4          1           0        1.207164    1.443904    0.038329
      5          6           0       -1.416924   -0.732333    0.007365
      6          1           0       -1.233341    1.431626   -0.004621
 ---------------------------------------------------------------------

 SCF Done:  E(RB3LYP) =  -153.279814524     A.U. after   13 cycles

 The electronic state is 1-A.
 Alpha  occ. eigenvalues --  -10.27770 -10.27717 -10.22471 -10.22408  -0.85917
 Alpha  occ. eigenvalues --   -0.72528  -0.62002  -0.50615  -0.49266  -0.37101
 Alpha  occ. eigenvalues --   -0.33464  -0.31247  -0.25054
 Alpha virt. eigenvalues --   -0.14727  -0.11613  -0.08797   0.04567   0.05553
 Alpha virt. eigenvalues --    0.09821   0.19304   0.26046   0.31940   0.36927
 Alpha virt. eigenvalues --    0.39242   0.42844   0.43754   0.45746   0.46405

 Mulliken charges:
               1
     1  C   -0.165579
     2  C   -0.167780
     3  C    0.008525
     4  H    0.158583
     5  C    0.006796
     6  H    0.159455
 Sum of Mulliken charges =   0.00000

 Dipole moment (field-independent basis, Debye):
    X=             -0.0291    Y=              3.9599    Z=              0.0413  Tot=              3.9602
 Quadrupole moment (field-independent basis, Debye-Ang):
   XX=            -25.9920   YY=            -24.2357   ZZ=            -26.7197
   XY=             -0.0269   XZ=              0.1558   YZ=              0.0911

 Normal termination of Gaussian 16 at Fri Sep 22 16:29:43 2023.
