 Gaussian 16, Revision A.03,
 Gaussian 16:  ES64L-G16RevA.03 25-Dec-2016

 ----------------------------------------------------------------------
 #p b3lyp/gen scrf=(cpcm,solvent=toluene) pop=hirshfeld empiricaldisper
 sion=gd3bj
 ----------------------------------------------------------------------

 ---------------------
 tmpdir/M2_ref_249.gjf
 ---------------------
 Symbolic Z-matrix:
 Charge =  0 Multiplicity = 1

                         Standard orientation:
 ---------------------------------------------------------------------
 Center     Atomic      Atomic             Coordinates (Angstroms)
 Number     Number       Type             X           Y           Z
 ---------------------------------------------------------------------
      1          6           0       -1.838713    0.138696   -0.029315
      2          6           0       -0.540440   -0.372335    0.022244
      3          6           0        0.724517    0.359600    0.063623
      4          1           0       -2.524479   -0.699549    0.065003
      5          1           0       -2.116885    1.146535   -0.247299
      6          1           0       -0.615727   -1.395976    0.121580
      7          1           0        0.584288    1.443868    0.244967
      8          8           0        1.825077   -0.156331   -0.065445
 ---------------------------------------------------------------------

 SCF Done:  E(RB3LYP) =  -191.876457676     A.U. after   11 cycles

 The electronic state is 1-A.
 Alpha  occ. eigenvalues --  -19.13102 -10.27677 -10.21813 -10.20031  -1.05656
 Alpha  occ. eigenvalues --   -0.80538  -0.66654  -0.58263  -0.49847  -0.47351
 Alpha  occ. eigenvalues --   -0.42597  -0.41127  -0.40068  -0.29483  -0.27325
 Alpha virt. eigenvalues --   -0.08784   0.03188   0.05494   0.07152   0.10306
 Alpha virt. eigenvalues --    0.13969   0.20142   0.24355   0.29456   0.39903
 Alpha virt. eigenvalues --    0.41550   0.42856   0.46347   0.50873   0.51038

 Mulliken charges:
               1
     1  C   -0.074094
     2  C   -0.227011
     3  C    0.298383
     4  H    0.123034
     5  H    0.109811
     6  H    0.076396
     7  H    0.061932
     8  O   -0.368451
 Sum of Mulliken charges =  -0.00000

 Dipole moment (field-independent basis, Debye):
    X=             -3.7417    Y=              0.8870    Z=              0.2511  Tot=              3.8536
 Quadrupole moment (field-independent basis, Debye-Ang):
   XX=            -27.5805   YY=            -21.7555   ZZ=            -25.1473
   XY=              1.2744   XZ=              0.5419   YZ=             -0.4226

 Normal termination of Gaussian 16 at Fri Sep 22 16:30:58 2023.
