 Gaussian 16, Revision A.03,
 Gaussian 16:  ES64L-G16RevA.03 25-Dec-2016

 ----------------------------------------------------------------------
 #p b3lyp/gen scrf=(cpcm,solvent=toluene) pop=hirshfeld empiricaldisper
 sion=gd3bj
 ----------------------------------------------------------------------

 ---------------------
 tmpdir/M2_ref_153.gjf
 ---------------------
 Symbolic Z-matrix:
 Charge =  0 Multiplicity = 1

                         Standard orientation:
 ---------------------------------------------------------------------
 Center     Atomic      Atomic             Coordinates (Angstroms)
 Number     Number       Type             X           Y           Z
 ---------------------------------------------------------------------
      1          6           0        0.742955   -0.009714   -0.001345
      2          7           0       -0.755167   -0.023992    0.008075
      3          1           0        0.966009    1.094193   -0.044903
      4          1           0        1.122256   -0.443613    0.946238
      5          1           0        1.125386   -0.518826   -0.907096
      6          1           0       -1.223276   -0.830937   -0.022237
      7          1           0       -1.161936    0.925408   -0.020455
 ---------------------------------------------------------------------

 SCF Done:  E(RB3LYP) =  -95.8261686379     A.U. after    9 cycles

 The electronic state is 1-A.
 Alpha  occ. eigenvalues --  -14.27268 -10.19828  -0.85414  -0.65400  -0.50931
 Alpha  occ. eigenvalues --   -0.41703  -0.40692  -0.37451  -0.21033
 Alpha virt. eigenvalues --    0.04585   0.08247   0.10011   0.12289   0.15612
 Alpha virt. eigenvalues --    0.19361   0.40884   0.44187   0.45364   0.53238
 Alpha virt. eigenvalues --    0.59946   0.61865   0.63568   0.71408   0.71742

 Mulliken charges:
               1
     1  C   -0.051331
     2  N   -0.520579
     3  H    0.084316
     4  H    0.086517
     5  H    0.086587
     6  H    0.134246
     7  H    0.180244
 Sum of Mulliken charges =   0.00000

 Dipole moment (field-independent basis, Debye):
    X=              0.0008    Y=              0.1968    Z=             -0.1303  Tot=              0.2361
 Quadrupole moment (field-independent basis, Debye-Ang):
   XX=            -13.5713   YY=            -11.9969   ZZ=            -15.6052
   XY=             -0.0361   XZ=              0.1343   YZ=              0.0082

 Normal termination of Gaussian 16 at Fri Sep 22 16:28:36 2023.
