 Gaussian 16, Revision A.03,
 Gaussian 16:  ES64L-G16RevA.03 25-Dec-2016

 ----------------------------------------------------------------------
 #p b3lyp/gen scrf=(cpcm,solvent=toluene) pop=hirshfeld empiricaldisper
 sion=gd3bj
 ----------------------------------------------------------------------

 ---------------------
 tmpdir/M2_ref_303.gjf
 ---------------------
 Symbolic Z-matrix:
 Charge =  0 Multiplicity = 1

                         Standard orientation:
 ---------------------------------------------------------------------
 Center     Atomic      Atomic             Coordinates (Angstroms)
 Number     Number       Type             X           Y           Z
 ---------------------------------------------------------------------
      1          6           0        0.687182   -0.007845    0.001478
      2          6           0       -0.688660   -0.007128   -0.003618
      3          1           0       -1.225411    0.938732    0.020015
      4          1           0        1.216415   -0.889119    0.011820
      5          1           0        1.234238    0.931885   -0.013877
      6          1           0       -1.216375   -0.891662   -0.005123
 ---------------------------------------------------------------------

 SCF Done:  E(RB3LYP) =  -78.5749450334     A.U. after    9 cycles

 The electronic state is 1-A.
 Alpha  occ. eigenvalues --  -10.18054 -10.17982  -0.76111  -0.59401  -0.47939
 Alpha  occ. eigenvalues --   -0.41805  -0.37349  -0.27420
 Alpha virt. eigenvalues --   -0.01170   0.06584   0.09587   0.09994   0.16160
 Alpha virt. eigenvalues --    0.27685   0.35757   0.41966   0.43561   0.51269
 Alpha virt. eigenvalues --    0.51677   0.55111   0.63550   0.65461   0.70573

 Mulliken charges:
               1
     1  C   -0.186983
     2  C   -0.185475
     3  H    0.102592
     4  H    0.083282
     5  H    0.102170
     6  H    0.084414
 Sum of Mulliken charges =   0.00000

 Dipole moment (field-independent basis, Debye):
    X=              0.0050    Y=             -0.0232    Z=              0.0139  Tot=              0.0274
 Quadrupole moment (field-independent basis, Debye-Ang):
   XX=            -12.3708   YY=            -12.3105   ZZ=            -15.6585
   XY=              0.0070   XZ=             -0.0227   YZ=              0.0001

 Normal termination of Gaussian 16 at Fri Sep 22 16:31:05 2023.
