 Gaussian 16, Revision A.03,
 Gaussian 16:  ES64L-G16RevA.03 25-Dec-2016

 ----------------------------------------------------------------------
 #p b3lyp/gen scrf=(cpcm,solvent=toluene) pop=hirshfeld empiricaldisper
 sion=gd3bj
 ----------------------------------------------------------------------

 --------------------
 tmpdir/M2_ref_49.gjf
 --------------------
 Symbolic Z-matrix:
 Charge =  0 Multiplicity = 1

                         Standard orientation:
 ---------------------------------------------------------------------
 Center     Atomic      Atomic             Coordinates (Angstroms)
 Number     Number       Type             X           Y           Z
 ---------------------------------------------------------------------
      1          6           0       -0.126533    0.421628    0.006173
      2          7           0        1.088032   -0.183579   -0.007969
      3          1           0        1.907439    0.431823   -0.043999
      4          1           0       -0.068021    1.478534    0.043565
      5          8           0       -1.240984   -0.246743   -0.006505
      6          1           0        1.231425   -1.181120    0.071212
 ---------------------------------------------------------------------

 SCF Done:  E(RB3LYP) =  -169.869032393     A.U. after   11 cycles

 The electronic state is 1-A.
 Alpha  occ. eigenvalues --  -19.09485 -14.35804 -10.29052  -1.00896  -0.91462
 Alpha  occ. eigenvalues --   -0.64775  -0.55577  -0.49868  -0.41210  -0.39924
 Alpha  occ. eigenvalues --   -0.27891  -0.26319
 Alpha virt. eigenvalues --   -0.00612   0.03710   0.06733   0.11892   0.20035
 Alpha virt. eigenvalues --    0.29846   0.41752   0.43904   0.48032   0.50172
 Alpha virt. eigenvalues --    0.54588   0.66143   0.67617   0.69219   0.73881

 Mulliken charges:
               1
     1  C    0.370988
     2  N   -0.343063
     3  H    0.206083
     4  H    0.073016
     5  O   -0.507113
     6  H    0.200090
 Sum of Mulliken charges =  -0.00000

 Dipole moment (field-independent basis, Debye):
    X=              4.9240    Y=              1.2245    Z=              0.1242  Tot=              5.0755
 Quadrupole moment (field-independent basis, Debye-Ang):
   XX=            -18.3210   YY=            -14.7944   ZZ=            -18.8919
   XY=             -1.2835   XZ=              0.0195   YZ=             -0.2009

 Normal termination of Gaussian 16 at Fri Sep 22 16:27:52 2023.
