 Gaussian 16, Revision A.03,
 Gaussian 16:  ES64L-G16RevA.03 25-Dec-2016

 ----------------------------------------------------------------------
 #p b3lyp/gen scrf=(cpcm,solvent=toluene) pop=hirshfeld empiricaldisper
 sion=gd3bj
 ----------------------------------------------------------------------

 ---------------------
 tmpdir/M2_ref_205.gjf
 ---------------------
 Symbolic Z-matrix:
 Charge =  0 Multiplicity = 1

                         Standard orientation:
 ---------------------------------------------------------------------
 Center     Atomic      Atomic             Coordinates (Angstroms)
 Number     Number       Type             X           Y           Z
 ---------------------------------------------------------------------
      1          6           0        0.783435    0.488557    0.010134
      2          6           0       -0.582709    0.662994   -0.003676
      3          6           0       -1.418256   -0.489743   -0.000529
      4          8           0        1.301337   -0.650422   -0.004970
      5          1           0        1.453815    1.343234    0.037045
      6          1           0       -1.029997    1.673756   -0.067913
      7          1           0       -1.031758   -1.405589   -0.033788
      8          1           0       -2.497573   -0.378875    0.068835
 ---------------------------------------------------------------------

 SCF Done:  E(RB3LYP) =  -191.869289313     A.U. after   11 cycles

 The electronic state is 1-A.
 Alpha  occ. eigenvalues --  -19.11519 -10.26181 -10.21729 -10.20474  -1.03508
 Alpha  occ. eigenvalues --   -0.80230  -0.68530  -0.55797  -0.52372  -0.45781
 Alpha  occ. eigenvalues --   -0.42522  -0.40509  -0.39777  -0.28380  -0.26677
 Alpha virt. eigenvalues --   -0.10115   0.04862   0.05529   0.08146   0.10651
 Alpha virt. eigenvalues --    0.13227   0.21356   0.24573   0.29051   0.40250
 Alpha virt. eigenvalues --    0.42232   0.44312   0.46215   0.47361   0.51155

 Mulliken charges:
               1
     1  C    0.306861
     2  C   -0.276888
     3  C    0.013935
     4  O   -0.411943
     5  H    0.059474
     6  H    0.103030
     7  H    0.080399
     8  H    0.125131
 Sum of Mulliken charges =  -0.00000

 Dipole moment (field-independent basis, Debye):
    X=             -2.7267    Y=              2.0433    Z=              0.0048  Tot=              3.4074
 Quadrupole moment (field-independent basis, Debye-Ang):
   XX=            -23.9049   YY=            -22.3954   ZZ=            -25.0815
   XY=              3.7056   XZ=             -0.0078   YZ=             -0.0826

 Normal termination of Gaussian 16 at Fri Sep 22 16:29:53 2023.
