 Gaussian 16, Revision A.03,
 Gaussian 16:  ES64L-G16RevA.03 25-Dec-2016

 ----------------------------------------------------------------------
 #p b3lyp/gen scrf=(cpcm,solvent=toluene) pop=hirshfeld empiricaldisper
 sion=gd3bj
 ----------------------------------------------------------------------

 ---------------------
 tmpdir/M2_ref_307.gjf
 ---------------------
 Symbolic Z-matrix:
 Charge =  0 Multiplicity = 1

                         Standard orientation:
 ---------------------------------------------------------------------
 Center     Atomic      Atomic             Coordinates (Angstroms)
 Number     Number       Type             X           Y           Z
 ---------------------------------------------------------------------
      1          6           0       -0.809388    0.470486   -0.000672
      2          6           0        0.590273    0.665086   -0.003607
      3          6           0        1.449638   -0.479044   -0.001141
      4          8           0       -1.302785   -0.642786   -0.000601
      5          1           0       -1.453970    1.342673    0.012402
      6          1           0        1.004730    1.607032    0.007980
      7          1           0        1.022157   -1.413871    0.012879
      8          1           0        2.466226   -0.332713    0.004061
 ---------------------------------------------------------------------

 SCF Done:  E(RB3LYP) =  -191.872602017     A.U. after   11 cycles

 The electronic state is 1-A.
 Alpha  occ. eigenvalues --  -19.11853 -10.26273 -10.21124 -10.19694  -1.05386
 Alpha  occ. eigenvalues --   -0.79783  -0.68093  -0.56061  -0.52997  -0.45792
 Alpha  occ. eigenvalues --   -0.43138  -0.40981  -0.40646  -0.28362  -0.26844
 Alpha virt. eigenvalues --   -0.09493   0.04962   0.06319   0.08285   0.11086
 Alpha virt. eigenvalues --    0.13530   0.21786   0.24366   0.29062   0.40405
 Alpha virt. eigenvalues --    0.42285   0.46317   0.46515   0.48119   0.51414

 Mulliken charges:
               1
     1  C    0.302261
     2  C   -0.253291
     3  C    0.016918
     4  O   -0.380947
     5  H    0.053472
     6  H    0.061737
     7  H    0.097329
     8  H    0.102521
 Sum of Mulliken charges =  -0.00000

 Dipole moment (field-independent basis, Debye):
    X=              2.4845    Y=              2.0045    Z=              0.0290  Tot=              3.1925
 Quadrupole moment (field-independent basis, Debye-Ang):
   XX=            -23.8192   YY=            -22.5109   ZZ=            -25.0109
   XY=             -3.4304   XZ=              0.0263   YZ=              0.0019

 Normal termination of Gaussian 16 at Fri Sep 22 16:30:53 2023.
