 Gaussian 16, Revision A.03,
 Gaussian 16:  ES64L-G16RevA.03 25-Dec-2016

 ----------------------------------------------------------------------
 #p b3lyp/gen scrf=(cpcm,solvent=toluene) pop=hirshfeld empiricaldisper
 sion=gd3bj
 ----------------------------------------------------------------------

 ---------------------
 tmpdir/M2_ref_248.gjf
 ---------------------
 Symbolic Z-matrix:
 Charge =  0 Multiplicity = 1

                         Standard orientation:
 ---------------------------------------------------------------------
 Center     Atomic      Atomic             Coordinates (Angstroms)
 Number     Number       Type             X           Y           Z
 ---------------------------------------------------------------------
      1          6           0        1.229819   -0.469130   -0.010895
      2          6           0        0.564657    0.758356    0.001827
      3          6           0       -0.833348    0.485117    0.016822
      4          1           0        0.474340   -1.250800   -0.019230
      5          1           0        2.281255   -0.623427    0.095457
      6          1           0        0.974877    1.730648   -0.078611
      7          8           0       -0.984112   -0.715992   -0.008863
      8          1           0       -1.624341    1.225458    0.026758
 ---------------------------------------------------------------------

 SCF Done:  E(RB3LYP) =  -191.828739397     A.U. after   12 cycles

 The electronic state is 1-A.
 Alpha  occ. eigenvalues --  -19.11040 -10.26861 -10.18839 -10.18470  -1.07562
 Alpha  occ. eigenvalues --   -0.78592  -0.66994  -0.55349  -0.52640  -0.47981
 Alpha  occ. eigenvalues --   -0.42263  -0.41769  -0.36933  -0.27053  -0.25826
 Alpha virt. eigenvalues --   -0.08881   0.04779   0.06758   0.08685   0.10742
 Alpha virt. eigenvalues --    0.14155   0.21450   0.25922   0.27854   0.40399
 Alpha virt. eigenvalues --    0.40659   0.45005   0.46546   0.49581   0.51124

 Mulliken charges:
               1
     1  C   -0.023457
     2  C   -0.289558
     3  C    0.330196
     4  H    0.153088
     5  H    0.086779
     6  H    0.061764
     7  O   -0.400901
     8  H    0.082089
 Sum of Mulliken charges =  -0.00000

 Dipole moment (field-independent basis, Debye):
    X=              0.7956    Y=              2.1197    Z=              0.0325  Tot=              2.2643
 Quadrupole moment (field-independent basis, Debye-Ang):
   XX=            -23.4903   YY=            -22.7642   ZZ=            -24.9871
   XY=             -3.6058   XZ=              0.0191   YZ=             -0.1636

 Normal termination of Gaussian 16 at Fri Sep 22 16:30:46 2023.
