 Gaussian 16, Revision A.03,
 Gaussian 16:  ES64L-G16RevA.03 25-Dec-2016

 ----------------------------------------------------------------------
 #p b3lyp/gen scrf=(cpcm,solvent=toluene) pop=hirshfeld empiricaldisper
 sion=gd3bj
 ----------------------------------------------------------------------

 ---------------------
 tmpdir/M2_ref_263.gjf
 ---------------------
 Symbolic Z-matrix:
 Charge =  0 Multiplicity = 1

                         Standard orientation:
 ---------------------------------------------------------------------
 Center     Atomic      Atomic             Coordinates (Angstroms)
 Number     Number       Type             X           Y           Z
 ---------------------------------------------------------------------
      1          1           0        0.774758   -0.591300   -0.503135
      2          6           0       -0.005287    0.000399   -0.010257
      3          1           0        0.363154    1.028012    0.101193
      4          1           0       -0.953841   -0.022336   -0.528197
      5          1           0       -0.152349   -0.416771    0.991682
 ---------------------------------------------------------------------

 SCF Done:  E(RB3LYP) =  -40.5135817621     A.U. after    7 cycles

 The electronic state is 1-A.
 Alpha  occ. eigenvalues --  -10.16118  -0.69494  -0.40192  -0.39072  -0.38770
 Alpha virt. eigenvalues --    0.05755   0.12550   0.12597   0.12781   0.36948
 Alpha virt. eigenvalues --    0.37463   0.38604   0.63686   0.63764   0.64789
 Alpha virt. eigenvalues --    0.68292   0.96220   1.28410   1.29380   1.83955

 Mulliken charges:
               1
     1  H    0.088106
     2  C   -0.346918
     3  H    0.086424
     4  H    0.090063
     5  H    0.082324
 Sum of Mulliken charges =  -0.00000

 Dipole moment (field-independent basis, Debye):
    X=              0.0085    Y=             -0.0043    Z=              0.0377  Tot=              0.0388
 Quadrupole moment (field-independent basis, Debye-Ang):
   XX=             -8.2910   YY=             -8.4763   ZZ=             -8.5522
   XY=             -0.0034   XZ=              0.0271   YZ=              0.0076

 Normal termination of Gaussian 16 at Fri Sep 22 16:29:51 2023.
