 Gaussian 16, Revision A.03,
 Gaussian 16:  ES64L-G16RevA.03 25-Dec-2016

 ----------------------------------------------------------------------
 #p b3lyp/gen scrf=(cpcm,solvent=toluene) pop=hirshfeld empiricaldisper
 sion=gd3bj
 ----------------------------------------------------------------------

 ---------------------
 tmpdir/M2_ref_225.gjf
 ---------------------
 Symbolic Z-matrix:
 Charge =  0 Multiplicity = 1

                         Standard orientation:
 ---------------------------------------------------------------------
 Center     Atomic      Atomic             Coordinates (Angstroms)
 Number     Number       Type             X           Y           Z
 ---------------------------------------------------------------------
      1          6           0       -0.710473    0.007845   -0.001835
      2          6           0        0.710822   -0.014203   -0.003306
      3          1           0        1.256390    0.928347    0.024448
      4          1           0       -1.215068   -0.895959    0.022995
      5          1           0       -1.252139    0.880976   -0.009575
      6          1           0        1.208724   -0.875215   -0.007022
 ---------------------------------------------------------------------

 SCF Done:  E(RB3LYP) =  -78.5626912622     A.U. after    9 cycles

 The electronic state is 1-A.
 Alpha  occ. eigenvalues --  -10.18346 -10.18143  -0.75534  -0.60514  -0.47984
 Alpha  occ. eigenvalues --   -0.41724  -0.38218  -0.26786
 Alpha virt. eigenvalues --   -0.02123   0.06832   0.09826   0.10384   0.16094
 Alpha virt. eigenvalues --    0.26572   0.36533   0.41601   0.44065   0.50849
 Alpha virt. eigenvalues --    0.52899   0.54172   0.64759   0.65955   0.70360

 Mulliken charges:
               1
     1  C   -0.175264
     2  C   -0.179102
     3  H    0.106144
     4  H    0.089003
     5  H    0.086892
     6  H    0.072327
 Sum of Mulliken charges =  -0.00000

 Dipole moment (field-independent basis, Debye):
    X=             -0.0157    Y=             -0.0207    Z=              0.0331  Tot=              0.0421
 Quadrupole moment (field-independent basis, Debye-Ang):
   XX=            -12.2124   YY=            -12.3405   ZZ=            -15.7033
   XY=             -0.0820   XZ=              0.0068   YZ=             -0.0003

 Normal termination of Gaussian 16 at Fri Sep 22 16:29:14 2023.
