 Gaussian 16, Revision A.03,
 Gaussian 16:  ES64L-G16RevA.03 25-Dec-2016

 ----------------------------------------------------------------------
 #p b3lyp/gen scrf=(cpcm,solvent=toluene) pop=hirshfeld empiricaldisper
 sion=gd3bj
 ----------------------------------------------------------------------

 ---------------------
 tmpdir/M2_ref_155.gjf
 ---------------------
 Symbolic Z-matrix:
 Charge =  0 Multiplicity = 1

                         Standard orientation:
 ---------------------------------------------------------------------
 Center     Atomic      Atomic             Coordinates (Angstroms)
 Number     Number       Type             X           Y           Z
 ---------------------------------------------------------------------
      1          6           0        1.177510   -0.122132    0.000879
      2          6           0       -0.237173    0.459166   -0.008685
      3          1           0        1.430485   -0.528816    1.021110
      4          1           0        1.224644   -1.090957   -0.666908
      5          1           0        1.955063    0.594708   -0.333191
      6          1           0       -0.389996    1.443833    0.024595
      7          8           0       -1.232778   -0.305121    0.000154
 ---------------------------------------------------------------------

 SCF Done:  E(RB3LYP) =  -153.796980692     A.U. after   10 cycles

 The electronic state is 1-A.
 Alpha  occ. eigenvalues --  -19.12694 -10.27313 -10.19912  -1.03678  -0.74600
 Alpha  occ. eigenvalues --   -0.61144  -0.48291  -0.43943  -0.43233  -0.39804
 Alpha  occ. eigenvalues --   -0.35654  -0.26852
 Alpha virt. eigenvalues --   -0.05263   0.05214   0.08043   0.10849   0.11594
 Alpha virt. eigenvalues --    0.19922   0.21610   0.40080   0.41762   0.44865
 Alpha virt. eigenvalues --    0.45812   0.54788   0.57771   0.59105   0.60730

 Mulliken charges:
               1
     1  C   -0.277011
     2  C    0.245277
     3  H    0.140600
     4  H    0.132433
     5  H    0.113759
     6  H    0.044782
     7  O   -0.399840
 Sum of Mulliken charges =  -0.00000

 Dipole moment (field-independent basis, Debye):
    X=              2.8261    Y=              1.5354    Z=              0.1057  Tot=              3.2180
 Quadrupole moment (field-independent basis, Debye-Ang):
   XX=            -21.5403   YY=            -17.5563   ZZ=            -18.1070
   XY=             -1.5032   XZ=              0.1145   YZ=             -0.1145

 Normal termination of Gaussian 16 at Fri Sep 22 16:28:52 2023.
