 Gaussian 16, Revision A.03,
 Gaussian 16:  ES64L-G16RevA.03 25-Dec-2016

 ----------------------------------------------------------------------
 #p b3lyp/gen scrf=(cpcm,solvent=toluene) pop=hirshfeld empiricaldisper
 sion=gd3bj
 ----------------------------------------------------------------------

 ---------------------
 tmpdir/M2_ref_321.gjf
 ---------------------
 Symbolic Z-matrix:
 Charge =  0 Multiplicity = 1

                         Standard orientation:
 ---------------------------------------------------------------------
 Center     Atomic      Atomic             Coordinates (Angstroms)
 Number     Number       Type             X           Y           Z
 ---------------------------------------------------------------------
      1          6           0        1.443412   -0.473843   -0.004325
      2          6           0        0.585068    0.671046    0.000579
      3          6           0       -0.819464    0.470194   -0.006606
      4          1           0        2.456671   -0.333974    0.008123
      5          1           0        1.028036   -1.415456   -0.004796
      6          1           0        1.013231    1.605300    0.026707
      7          8           0       -1.284947   -0.650014    0.005397
      8          1           0       -1.472462    1.339868   -0.011101
 ---------------------------------------------------------------------

 SCF Done:  E(RB3LYP) =  -191.871989620     A.U. after   11 cycles

 The electronic state is 1-A.
 Alpha  occ. eigenvalues --  -19.11885 -10.26365 -10.20951 -10.19646  -1.05694
 Alpha  occ. eigenvalues --   -0.79602  -0.67937  -0.56147  -0.52961  -0.45820
 Alpha  occ. eigenvalues --   -0.43045  -0.41126  -0.40618  -0.28281  -0.26887
 Alpha virt. eigenvalues --   -0.09369   0.04903   0.06409   0.08285   0.11030
 Alpha virt. eigenvalues --    0.13588   0.21685   0.24560   0.28952   0.40433
 Alpha virt. eigenvalues --    0.42102   0.46323   0.46641   0.48176   0.51418

 Mulliken charges:
               1
     1  C    0.013285
     2  C   -0.253024
     3  C    0.303884
     4  H    0.099259
     5  H    0.097322
     6  H    0.060219
     7  O   -0.376411
     8  H    0.055467
 Sum of Mulliken charges =  -0.00000

 Dipole moment (field-independent basis, Debye):
    X=              2.3765    Y=              2.0099    Z=              0.0044  Tot=              3.1125
 Quadrupole moment (field-independent basis, Debye-Ang):
   XX=            -23.7046   YY=            -22.5311   ZZ=            -25.0115
   XY=             -3.4574   XZ=              0.0718   YZ=              0.0475

 Normal termination of Gaussian 16 at Fri Sep 22 16:31:32 2023.
