 Gaussian 16, Revision A.03,
 Gaussian 16:  ES64L-G16RevA.03 25-Dec-2016

 ----------------------------------------------------------------------
 #p b3lyp/gen scrf=(cpcm,solvent=toluene) pop=hirshfeld empiricaldisper
 sion=gd3bj
 ----------------------------------------------------------------------

 ---------------------
 tmpdir/M2_ref_267.gjf
 ---------------------
 Symbolic Z-matrix:
 Charge =  0 Multiplicity = 1

                         Standard orientation:
 ---------------------------------------------------------------------
 Center     Atomic      Atomic             Coordinates (Angstroms)
 Number     Number       Type             X           Y           Z
 ---------------------------------------------------------------------
      1          6           0       -0.621936   -0.334258    0.032795
      2          6           0        0.660005    0.368691    0.039859
      3          8           0        1.748649   -0.180087   -0.048289
      4          8           0       -1.754970    0.139608   -0.049615
      5          1           0       -0.722584   -1.347813    0.193887
      6          1           0        0.544747    1.465052    0.153419
 ---------------------------------------------------------------------

 SCF Done:  E(RB3LYP) =  -227.776467775     A.U. after   11 cycles

 The electronic state is 1-A.
 Alpha  occ. eigenvalues --  -19.17505 -19.16515 -10.30439 -10.28931  -1.09786
 Alpha  occ. eigenvalues --   -1.08106  -0.74295  -0.61584  -0.52184  -0.50369
 Alpha  occ. eigenvalues --   -0.46724  -0.45230  -0.40195  -0.33215  -0.28301
 Alpha virt. eigenvalues --   -0.13568   0.00974   0.06941   0.08716   0.14777
 Alpha virt. eigenvalues --    0.25322   0.28138   0.38206   0.41303   0.44409
 Alpha virt. eigenvalues --    0.47951   0.57232   0.59538   0.60193   0.68040

 Mulliken charges:
               1
     1  C    0.234414
     2  C    0.248491
     3  O   -0.309205
     4  O   -0.328221
     5  H    0.063548
     6  H    0.090974
 Sum of Mulliken charges =  -0.00000

 Dipole moment (field-independent basis, Debye):
    X=              0.1135    Y=              0.1085    Z=              0.4069  Tot=              0.4361
 Quadrupole moment (field-independent basis, Debye-Ang):
   XX=            -32.3272   YY=            -20.9672   ZZ=            -21.2635
   XY=              2.4599   XZ=             -0.0691   YZ=              0.0033

 Normal termination of Gaussian 16 at Fri Sep 22 16:30:23 2023.
