 Gaussian 16, Revision A.03,
 Gaussian 16:  ES64L-G16RevA.03 25-Dec-2016

 ----------------------------------------------------------------------
 #p b3lyp/gen scrf=(cpcm,solvent=toluene) pop=hirshfeld empiricaldisper
 sion=gd3bj
 ----------------------------------------------------------------------

 ---------------------
 tmpdir/M2_ref_217.gjf
 ---------------------
 Symbolic Z-matrix:
 Charge =  0 Multiplicity = 1

                         Standard orientation:
 ---------------------------------------------------------------------
 Center     Atomic      Atomic             Coordinates (Angstroms)
 Number     Number       Type             X           Y           Z
 ---------------------------------------------------------------------
      1          6           0       -0.577961   -0.395957    0.002874
      2          6           0        0.602106    0.396106    0.002603
      3          6           0       -1.872406    0.186120   -0.004136
      4          1           0       -0.488796   -1.427515    0.008469
      5          6           0        1.845274   -0.195225   -0.004157
      6          1           0        0.506722    1.481256    0.008426
 ---------------------------------------------------------------------

 SCF Done:  E(RB3LYP) =  -153.297242193     A.U. after   12 cycles

 The electronic state is 1-A.
 Alpha  occ. eigenvalues --  -10.28147 -10.27397 -10.22762 -10.22594  -0.85548
 Alpha  occ. eigenvalues --   -0.74522  -0.57916  -0.57445  -0.46560  -0.36939
 Alpha  occ. eigenvalues --   -0.33876  -0.31534  -0.26222
 Alpha virt. eigenvalues --   -0.13836  -0.12630  -0.07044   0.02843   0.06844
 Alpha virt. eigenvalues --    0.09086   0.19587   0.24564   0.25895   0.39172
 Alpha virt. eigenvalues --    0.41188   0.42729   0.44079   0.44157   0.46721

 Mulliken charges:
               1
     1  C   -0.138325
     2  C   -0.154222
     3  C    0.010644
     4  H    0.123855
     5  C    0.003183
     6  H    0.154865
 Sum of Mulliken charges =  -0.00000

 Dipole moment (field-independent basis, Debye):
    X=             -0.0464    Y=              0.1300    Z=              0.0224  Tot=              0.1398
 Quadrupole moment (field-independent basis, Debye-Ang):
   XX=            -34.3883   YY=            -19.7932   ZZ=            -26.7037
   XY=              4.1849   XZ=              0.0016   YZ=             -0.0008

 Normal termination of Gaussian 16 at Fri Sep 22 16:29:25 2023.
