 Gaussian 16, Revision A.03,
 Gaussian 16:  ES64L-G16RevA.03 25-Dec-2016

 ----------------------------------------------------------------------
 #p b3lyp/gen scrf=(cpcm,solvent=toluene) pop=hirshfeld empiricaldisper
 sion=gd3bj
 ----------------------------------------------------------------------

 ---------------------
 tmpdir/M2_ref_243.gjf
 ---------------------
 Symbolic Z-matrix:
 Charge =  0 Multiplicity = 1

                         Standard orientation:
 ---------------------------------------------------------------------
 Center     Atomic      Atomic             Coordinates (Angstroms)
 Number     Number       Type             X           Y           Z
 ---------------------------------------------------------------------
      1          7           0        1.083299   -0.206249   -0.028127
      2          6           0       -0.071738    0.587322   -0.004049
      3          6           0       -1.154902   -0.256965    0.008015
      4          1           0        0.829553   -1.140809   -0.021255
      5          1           0        2.041279    0.118392    0.176592
      6          1           0       -0.091944    1.667890   -0.026357
      7          1           0       -0.806577   -1.227540    0.013454
      8          1           0       -2.195564    0.043670    0.030662
 ---------------------------------------------------------------------

 SCF Done:  E(RB3LYP) =  -133.904159112     A.U. after   10 cycles

 The electronic state is 1-A.
 Alpha  occ. eigenvalues --  -14.31159 -10.21485 -10.14298  -0.91294  -0.72058
 Alpha  occ. eigenvalues --   -0.59736  -0.53008  -0.46332  -0.40092  -0.39261
 Alpha  occ. eigenvalues --   -0.34208  -0.19583
 Alpha virt. eigenvalues --    0.01932   0.05500   0.07300   0.09401   0.12295
 Alpha virt. eigenvalues --    0.17675   0.24217   0.26566   0.41017   0.43275
 Alpha virt. eigenvalues --    0.44562   0.51139   0.51798   0.52893   0.56272

 Mulliken charges:
               1
     1  N   -0.365477
     2  C    0.001245
     3  C   -0.204176
     4  H    0.155800
     5  H    0.189989
     6  H    0.092194
     7  H    0.044170
     8  H    0.086255
 Sum of Mulliken charges =  -0.00000

 Dipole moment (field-independent basis, Debye):
    X=              1.6613    Y=              0.2555    Z=              0.3944  Tot=              1.7265
 Quadrupole moment (field-independent basis, Debye-Ang):
   XX=            -17.1688   YY=            -16.3258   ZZ=            -22.9042
   XY=             -0.3800   XZ=              0.7998   YZ=              0.0195

 Normal termination of Gaussian 16 at Fri Sep 22 16:29:44 2023.
