 Gaussian 16, Revision A.03,
 Gaussian 16:  ES64L-G16RevA.03 25-Dec-2016

 ----------------------------------------------------------------------
 #p b3lyp/gen scrf=(cpcm,solvent=toluene) pop=hirshfeld empiricaldisper
 sion=gd3bj
 ----------------------------------------------------------------------

 --------------------
 tmpdir/M2_ref_11.gjf
 --------------------
 Symbolic Z-matrix:
 Charge =  0 Multiplicity = 1

                         Standard orientation:
 ---------------------------------------------------------------------
 Center     Atomic      Atomic             Coordinates (Angstroms)
 Number     Number       Type             X           Y           Z
 ---------------------------------------------------------------------
      1          6           0       -0.696400   -0.009491   -0.000609
      2          6           0        0.694614   -0.009054   -0.000601
      3          1           0       -1.196895   -0.891048    0.001824
      4          1           0       -1.234983    0.932154    0.001833
      5          1           0        1.222900   -0.874341    0.001955
      6          1           0        1.219694    0.944507    0.001650
 ---------------------------------------------------------------------

 SCF Done:  E(RB3LYP) =  -78.5700645479     A.U. after    9 cycles

 The electronic state is 1-A.
 Alpha  occ. eigenvalues --  -10.18078 -10.18018  -0.75955  -0.59717  -0.48162
 Alpha  occ. eigenvalues --   -0.41505  -0.37779  -0.27204
 Alpha virt. eigenvalues --   -0.01467   0.06590   0.09784   0.10120   0.16132
 Alpha virt. eigenvalues --    0.27229   0.35882   0.42269   0.43743   0.51139
 Alpha virt. eigenvalues --    0.51995   0.54818   0.64106   0.65523   0.70404

 Mulliken charges:
               1
     1  C   -0.179539
     2  C   -0.184594
     3  H    0.078754
     4  H    0.103681
     5  H    0.078863
     6  H    0.102835
 Sum of Mulliken charges =  -0.00000

 Dipole moment (field-independent basis, Debye):
    X=              0.0016    Y=             -0.0240    Z=              0.0079  Tot=              0.0253
 Quadrupole moment (field-independent basis, Debye-Ang):
   XX=            -12.3916   YY=            -12.2697   ZZ=            -15.6731
   XY=             -0.0498   XZ=             -0.0001   YZ=             -0.0001

 Normal termination of Gaussian 16 at Fri Sep 22 16:27:45 2023.
