 Gaussian 16, Revision A.03,
 Gaussian 16:  ES64L-G16RevA.03 25-Dec-2016

 ----------------------------------------------------------------------
 #p b3lyp/gen scrf=(cpcm,solvent=toluene) pop=hirshfeld empiricaldisper
 sion=gd3bj
 ----------------------------------------------------------------------

 ---------------------
 tmpdir/M2_ref_339.gjf
 ---------------------
 Symbolic Z-matrix:
 Charge =  0 Multiplicity = 1

                         Standard orientation:
 ---------------------------------------------------------------------
 Center     Atomic      Atomic             Coordinates (Angstroms)
 Number     Number       Type             X           Y           Z
 ---------------------------------------------------------------------
      1          6           0        1.283495   -0.259106    0.022137
      2          6           0       -0.025335    0.557273   -0.066143
      3          7           0       -1.247963   -0.260199    0.030148
      4          1           0        1.445240   -0.623940    1.093935
      5          1           0        2.172156    0.356692   -0.255264
      6          1           0        1.231335   -1.138731   -0.619768
      7          1           0       -0.103296    1.207302   -0.968730
      8          1           0       -0.031169    1.202227    0.818178
      9          1           0       -1.996906   -0.025523    0.597464
     10          1           0       -1.530578   -0.945636   -0.612816
 ---------------------------------------------------------------------

 SCF Done:  E(RB3LYP) =  -135.145940873     A.U. after   10 cycles

 The electronic state is 1-A.
 Alpha  occ. eigenvalues --  -14.27303 -10.20310 -10.16896  -0.86600  -0.72784
 Alpha  occ. eigenvalues --   -0.60828  -0.49232  -0.45372  -0.42661  -0.38331
 Alpha  occ. eigenvalues --   -0.36429  -0.33860  -0.21428
 Alpha virt. eigenvalues --    0.04886   0.08016   0.08900   0.09265   0.12016
 Alpha virt. eigenvalues --    0.13517   0.15825   0.20340   0.22694   0.38667
 Alpha virt. eigenvalues --    0.41193   0.43849   0.46578   0.51204   0.57151

 Mulliken charges:
               1
     1  C   -0.220594
     2  C    0.004050
     3  N   -0.489630
     4  H    0.085397
     5  H    0.083363
     6  H    0.084128
     7  H    0.082209
     8  H    0.086905
     9  H    0.140197
    10  H    0.143975
 Sum of Mulliken charges =  -0.00000

 Dipole moment (field-independent basis, Debye):
    X=             -0.4428    Y=              0.2195    Z=             -0.1489  Tot=              0.5162
 Quadrupole moment (field-independent basis, Debye-Ang):
   XX=            -19.3055   YY=            -21.0623   ZZ=            -20.5939
   XY=              0.8280   XZ=             -0.2515   YZ=              1.5188

 Normal termination of Gaussian 16 at Fri Sep 22 16:31:44 2023.
