 Gaussian 16, Revision A.03,
 Gaussian 16:  ES64L-G16RevA.03 25-Dec-2016

 ----------------------------------------------------------------------
 #p b3lyp/gen scrf=(cpcm,solvent=toluene) pop=hirshfeld empiricaldisper
 sion=gd3bj
 ----------------------------------------------------------------------

 ---------------------
 tmpdir/M2_ref_306.gjf
 ---------------------
 Symbolic Z-matrix:
 Charge =  0 Multiplicity = 1

                         Standard orientation:
 ---------------------------------------------------------------------
 Center     Atomic      Atomic             Coordinates (Angstroms)
 Number     Number       Type             X           Y           Z
 ---------------------------------------------------------------------
      1          6           0        1.233831   -0.613434   -0.002182
      2          6           0       -0.001793    0.072190   -0.011192
      3          6           0       -1.241479   -0.623829   -0.007254
      4          8           0        2.297185   -0.020150    0.008224
      5          1           0        1.224807   -1.697968    0.006145
      6          8           0       -0.001212    1.333694   -0.003569
      7          8           0       -2.287887   -0.013553    0.011563
      8          1           0       -1.232857   -1.711515   -0.012125
 ---------------------------------------------------------------------

 SCF Done:  E(RB3LYP) =  -341.063529740     A.U. after   12 cycles

 The electronic state is 1-A.
 Alpha  occ. eigenvalues --  -19.18032 -19.17273 -19.17248 -10.30248 -10.30171
 Alpha  occ. eigenvalues --  -10.30068  -1.11873  -1.09888  -1.06555  -0.81213
 Alpha  occ. eigenvalues --   -0.67798  -0.58706  -0.57163  -0.50385  -0.49115
 Alpha  occ. eigenvalues --   -0.47508  -0.47398  -0.43304  -0.38838  -0.33303
 Alpha  occ. eigenvalues --   -0.32478  -0.29128
 Alpha virt. eigenvalues --   -0.17742  -0.06985   0.04501   0.05313   0.09635
 Alpha virt. eigenvalues --    0.12634   0.24307   0.26717   0.27799   0.35057
 Alpha virt. eigenvalues --    0.35287   0.37105   0.43265   0.47563   0.51556

 Mulliken charges:
               1
     1  C    0.283558
     2  C    0.159334
     3  C    0.280561
     4  O   -0.293972
     5  H    0.069361
     6  O   -0.282658
     7  O   -0.289110
     8  H    0.072928
 Sum of Mulliken charges =  -0.00000

 Dipole moment (field-independent basis, Debye):
    X=             -0.0658    Y=             -4.7458    Z=             -0.0588  Tot=              4.7466
 Quadrupole moment (field-independent basis, Debye-Ang):
   XX=            -45.6836   YY=            -32.6824   ZZ=            -30.8677
   XY=              0.0925   XZ=              0.0329   YZ=              0.0144

 Normal termination of Gaussian 16 at Fri Sep 22 16:30:41 2023.
