 Gaussian 16, Revision A.03,
 Gaussian 16:  ES64L-G16RevA.03 25-Dec-2016

 ----------------------------------------------------------------------
 #p b3lyp/gen scrf=(cpcm,solvent=toluene) pop=hirshfeld empiricaldisper
 sion=gd3bj
 ----------------------------------------------------------------------

 ---------------------
 tmpdir/M2_ref_331.gjf
 ---------------------
 Symbolic Z-matrix:
 Charge =  0 Multiplicity = 1

                         Standard orientation:
 ---------------------------------------------------------------------
 Center     Atomic      Atomic             Coordinates (Angstroms)
 Number     Number       Type             X           Y           Z
 ---------------------------------------------------------------------
      1          6           0        0.697664    0.531684    0.001332
      2          6           0       -0.720632    0.493216   -0.006576
      3          1           0       -1.269594    1.432034   -0.011065
      4          8           0        1.333663   -0.557783   -0.002997
      5          1           0        1.230120    1.410671    0.027991
      6          8           0       -1.311503   -0.566230    0.004814
 ---------------------------------------------------------------------

 SCF Done:  E(RB3LYP) =  -227.771975279     A.U. after   11 cycles

 The electronic state is 1-A.
 Alpha  occ. eigenvalues --  -19.16172 -19.16164 -10.28955 -10.28727  -1.09893
 Alpha  occ. eigenvalues --   -1.05441  -0.75638  -0.59047  -0.56044  -0.48156
 Alpha  occ. eigenvalues --   -0.45743  -0.45453  -0.38478  -0.31525  -0.28862
 Alpha virt. eigenvalues --   -0.14021   0.02069   0.06000   0.09474   0.14607
 Alpha virt. eigenvalues --    0.25925   0.31562   0.38113   0.39244   0.44764
 Alpha virt. eigenvalues --    0.49675   0.56694   0.57595   0.62164   0.67059

 Mulliken charges:
               1
     1  C    0.268914
     2  C    0.237661
     3  H    0.069319
     4  O   -0.336898
     5  H    0.060514
     6  O   -0.299511
 Sum of Mulliken charges =  -0.00000

 Dipole moment (field-independent basis, Debye):
    X=             -0.0840    Y=              4.3765    Z=             -0.0016  Tot=              4.3773
 Quadrupole moment (field-independent basis, Debye-Ang):
   XX=            -26.5675   YY=            -21.5081   ZZ=            -21.2224
   XY=              0.1968   XZ=              0.0441   YZ=              0.0090

 Normal termination of Gaussian 16 at Fri Sep 22 16:31:33 2023.
