 Gaussian 16, Revision A.03,
 Gaussian 16:  ES64L-G16RevA.03 25-Dec-2016

 ----------------------------------------------------------------------
 #p b3lyp/gen scrf=(cpcm,solvent=toluene) pop=hirshfeld empiricaldisper
 sion=gd3bj
 ----------------------------------------------------------------------

 ---------------------
 tmpdir/M2_ref_371.gjf
 ---------------------
 Symbolic Z-matrix:
 Charge =  0 Multiplicity = 1

                         Standard orientation:
 ---------------------------------------------------------------------
 Center     Atomic      Atomic             Coordinates (Angstroms)
 Number     Number       Type             X           Y           Z
 ---------------------------------------------------------------------
      1          6           0       -0.254552    0.424215    0.000552
      2          6           0        1.139275   -0.143988    0.000319
      3          1           0        1.702017    0.195914    0.882065
      4          8           0       -1.192751   -0.294418    0.000012
      5          1           0       -0.299427    1.512456   -0.000078
      6          1           0        1.134152   -1.239421   -0.005634
      7          1           0        1.696936    0.205035   -0.881676
 ---------------------------------------------------------------------

 SCF Done:  E(RB3LYP) =  -153.812178760     A.U. after   10 cycles

 The electronic state is 1-A.
 Alpha  occ. eigenvalues --  -19.12858 -10.27050 -10.18032  -1.07769  -0.75187
 Alpha  occ. eigenvalues --   -0.59154  -0.48899  -0.44950  -0.44864  -0.39843
 Alpha  occ. eigenvalues --   -0.37780  -0.26595
 Alpha virt. eigenvalues --   -0.02705   0.05726   0.08230   0.10913   0.11837
 Alpha virt. eigenvalues --    0.20174   0.23573   0.41382   0.42097   0.44197
 Alpha virt. eigenvalues --    0.46074   0.54793   0.58462   0.61143   0.64615

 Mulliken charges:
               1
     1  C    0.185245
     2  C   -0.243713
     3  H    0.116690
     4  O   -0.332601
     5  H    0.054315
     6  H    0.103950
     7  H    0.116115
 Sum of Mulliken charges =  -0.00000

 Dipole moment (field-independent basis, Debye):
    X=              2.5507    Y=              1.4605    Z=              0.0004  Tot=              2.9392
 Quadrupole moment (field-independent basis, Debye-Ang):
   XX=            -21.2165   YY=            -17.9839   ZZ=            -17.9003
   XY=             -0.9923   XZ=              0.0048   YZ=             -0.0004

 Normal termination of Gaussian 16 at Fri Sep 22 16:31:06 2023.
