 Gaussian 16, Revision A.03,
 Gaussian 16:  ES64L-G16RevA.03 25-Dec-2016

 ----------------------------------------------------------------------
 #p b3lyp/gen scrf=(cpcm,solvent=toluene) pop=hirshfeld empiricaldisper
 sion=gd3bj
 ----------------------------------------------------------------------

 ---------------------
 tmpdir/M2_ref_206.gjf
 ---------------------
 Symbolic Z-matrix:
 Charge =  0 Multiplicity = 1

                         Standard orientation:
 ---------------------------------------------------------------------
 Center     Atomic      Atomic             Coordinates (Angstroms)
 Number     Number       Type             X           Y           Z
 ---------------------------------------------------------------------
      1          6           0       -0.710973   -0.015289   -0.000102
      2          6           0        0.708200    0.004604    0.000031
      3          1           0       -1.223169   -0.870608    0.010720
      4          1           0       -1.225261    0.941797   -0.010202
      5          1           0        1.225227   -0.892426   -0.010695
      6          1           0        1.239843    0.885345    0.010603
 ---------------------------------------------------------------------

 SCF Done:  E(RB3LYP) =  -78.5634889239     A.U. after    9 cycles

 The electronic state is 1-A.
 Alpha  occ. eigenvalues --  -10.18309 -10.18102  -0.75570  -0.60441  -0.48084
 Alpha  occ. eigenvalues --   -0.41670  -0.38191  -0.26816
 Alpha virt. eigenvalues --   -0.02065   0.06801   0.09888   0.10366   0.16095
 Alpha virt. eigenvalues --    0.26562   0.36447   0.41890   0.44047   0.50881
 Alpha virt. eigenvalues --    0.52768   0.54319   0.64728   0.65936   0.70247

 Mulliken charges:
               1
     1  C   -0.177299
     2  C   -0.176818
     3  H    0.073584
     4  H    0.104887
     5  H    0.088852
     6  H    0.086794
 Sum of Mulliken charges =   0.00000

 Dipole moment (field-independent basis, Debye):
    X=              0.0205    Y=             -0.0106    Z=              0.0007  Tot=              0.0231
 Quadrupole moment (field-independent basis, Debye-Ang):
   XX=            -12.2566   YY=            -12.3150   ZZ=            -15.6998
   XY=              0.0998   XZ=             -0.0008   YZ=             -0.0003

 Normal termination of Gaussian 16 at Fri Sep 22 16:29:58 2023.
