 Gaussian 16, Revision A.03,
 Gaussian 16:  ES64L-G16RevA.03 25-Dec-2016

 ----------------------------------------------------------------------
 #p b3lyp/gen scrf=(cpcm,solvent=toluene) pop=hirshfeld empiricaldisper
 sion=gd3bj
 ----------------------------------------------------------------------

 ---------------------
 tmpdir/M2_ref_218.gjf
 ---------------------
 Symbolic Z-matrix:
 Charge =  0 Multiplicity = 1

                         Standard orientation:
 ---------------------------------------------------------------------
 Center     Atomic      Atomic             Coordinates (Angstroms)
 Number     Number       Type             X           Y           Z
 ---------------------------------------------------------------------
      1          6           0       -1.426539   -0.484738   -0.006385
      2          6           0       -0.595963    0.666054    0.010096
      3          6           0        0.824583    0.500518   -0.014100
      4          1           0       -1.045539   -1.406053   -0.013419
      5          1           0       -2.501514   -0.326531   -0.008815
      6          1           0       -0.985668    1.617762    0.039099
      7          8           0        1.287117   -0.663937    0.010147
      8          1           0        1.423297    1.335321   -0.035705
 ---------------------------------------------------------------------

 SCF Done:  E(RB3LYP) =  -191.867378301     A.U. after   11 cycles

 The electronic state is 1-A.
 Alpha  occ. eigenvalues --  -19.11839 -10.26295 -10.21171 -10.19721  -1.03527
 Alpha  occ. eigenvalues --   -0.79551  -0.68339  -0.57090  -0.52442  -0.45879
 Alpha  occ. eigenvalues --   -0.42374  -0.40584  -0.39970  -0.28220  -0.26874
 Alpha virt. eigenvalues --   -0.09652   0.04153   0.06192   0.08340   0.11254
 Alpha virt. eigenvalues --    0.13460   0.21221   0.24635   0.28163   0.40638
 Alpha virt. eigenvalues --    0.42635   0.46357   0.46530   0.48048   0.51513

 Mulliken charges:
               1
     1  C    0.010800
     2  C   -0.252003
     3  C    0.338948
     4  H    0.079666
     5  H    0.122369
     6  H    0.061542
     7  O   -0.410087
     8  H    0.048765
 Sum of Mulliken charges =  -0.00000

 Dipole moment (field-independent basis, Debye):
    X=             -2.3434    Y=              2.2471    Z=             -0.0463  Tot=              3.2470
 Quadrupole moment (field-independent basis, Debye-Ang):
   XX=            -23.8839   YY=            -22.2156   ZZ=            -25.0523
   XY=              3.8511   XZ=             -0.0623   YZ=              0.0636

 Normal termination of Gaussian 16 at Fri Sep 22 16:29:37 2023.
