 Gaussian 16, Revision A.03,
 Gaussian 16:  ES64L-G16RevA.03 25-Dec-2016

 ----------------------------------------------------------------------
 #p b3lyp/gen scrf=(cpcm,solvent=toluene) pop=hirshfeld empiricaldisper
 sion=gd3bj
 ----------------------------------------------------------------------

 ---------------------
 tmpdir/M2_ref_308.gjf
 ---------------------
 Symbolic Z-matrix:
 Charge =  0 Multiplicity = 1

                         Standard orientation:
 ---------------------------------------------------------------------
 Center     Atomic      Atomic             Coordinates (Angstroms)
 Number     Number       Type             X           Y           Z
 ---------------------------------------------------------------------
      1          6           0        0.823985    0.468831   -0.003306
      2          6           0       -0.583886    0.666762   -0.002572
      3          6           0       -1.451790   -0.470906   -0.003156
      4          8           0        1.286305   -0.650977    0.003835
      5          1           0        1.476463    1.339133   -0.001092
      6          1           0       -0.994385    1.603584    0.013767
      7          1           0       -2.467344   -0.313432    0.023098
      8          1           0       -1.035036   -1.409588   -0.012252
 ---------------------------------------------------------------------

 SCF Done:  E(RB3LYP) =  -191.871958487     A.U. after   11 cycles

 The electronic state is 1-A.
 Alpha  occ. eigenvalues --  -19.11914 -10.26369 -10.20972 -10.19577  -1.05798
 Alpha  occ. eigenvalues --   -0.79555  -0.67906  -0.56119  -0.52951  -0.45860
 Alpha  occ. eigenvalues --   -0.43093  -0.41153  -0.40653  -0.28275  -0.26890
 Alpha virt. eigenvalues --   -0.09337   0.04903   0.06404   0.08280   0.11071
 Alpha virt. eigenvalues --    0.13570   0.21777   0.24407   0.28951   0.40424
 Alpha virt. eigenvalues --    0.41940   0.46321   0.46761   0.48253   0.51490

 Mulliken charges:
               1
     1  C    0.301345
     2  C   -0.251948
     3  C    0.014375
     4  O   -0.374418
     5  H    0.055590
     6  H    0.056742
     7  H    0.102336
     8  H    0.095977
 Sum of Mulliken charges =  -0.00000

 Dipole moment (field-independent basis, Debye):
    X=             -2.3427    Y=              2.0225    Z=              0.0120  Tot=              3.0949
 Quadrupole moment (field-independent basis, Debye-Ang):
   XX=            -23.6869   YY=            -22.5611   ZZ=            -25.0152
   XY=              3.4569   XZ=             -0.0770   YZ=              0.0372

 Normal termination of Gaussian 16 at Fri Sep 22 16:31:07 2023.
