 Gaussian 16, Revision A.03,
 Gaussian 16:  ES64L-G16RevA.03 25-Dec-2016

 ----------------------------------------------------------------------
 #p b3lyp/gen scrf=(cpcm,solvent=toluene) pop=hirshfeld empiricaldisper
 sion=gd3bj
 ----------------------------------------------------------------------

 ---------------------
 tmpdir/M2_ref_259.gjf
 ---------------------
 Symbolic Z-matrix:
 Charge =  0 Multiplicity = 1

                         Standard orientation:
 ---------------------------------------------------------------------
 Center     Atomic      Atomic             Coordinates (Angstroms)
 Number     Number       Type             X           Y           Z
 ---------------------------------------------------------------------
      1          6           0       -0.223568    0.385703   -0.008486
      2          6           0        1.182919   -0.115978    0.000826
      3          1           0        1.804167    0.313530   -0.793581
      4          1           0       -0.525443    1.445038    0.009985
      5          8           0       -1.233241   -0.282509    0.001800
      6          1           0        1.160328   -1.200813   -0.148052
      7          1           0        1.670771    0.083968    0.963209
 ---------------------------------------------------------------------

 SCF Done:  E(RB3LYP) =  -153.808126160     A.U. after   10 cycles

 The electronic state is 1-A.
 Alpha  occ. eigenvalues --  -19.12378 -10.27160 -10.19053  -1.05970  -0.75936
 Alpha  occ. eigenvalues --   -0.58472  -0.49043  -0.45149  -0.44549  -0.39832
 Alpha  occ. eigenvalues --   -0.37401  -0.26118
 Alpha virt. eigenvalues --   -0.03319   0.05580   0.07730   0.10873   0.11484
 Alpha virt. eigenvalues --    0.21633   0.21880   0.40002   0.41743   0.45076
 Alpha virt. eigenvalues --    0.45573   0.56611   0.57989   0.60738   0.62992

 Mulliken charges:
               1
     1  C    0.150778
     2  C   -0.205834
     3  H    0.125581
     4  H    0.051511
     5  O   -0.360367
     6  H    0.105414
     7  H    0.132917
 Sum of Mulliken charges =  -0.00000

 Dipole moment (field-independent basis, Debye):
    X=              2.9183    Y=              1.2771    Z=              0.0315  Tot=              3.1856
 Quadrupole moment (field-independent basis, Debye-Ang):
   XX=            -20.8531   YY=            -18.3927   ZZ=            -17.8468
   XY=             -1.2669   XZ=              0.0516   YZ=              0.0016

 Normal termination of Gaussian 16 at Fri Sep 22 16:30:32 2023.
