 Gaussian 16, Revision A.03,
 Gaussian 16:  ES64L-G16RevA.03 25-Dec-2016

 ----------------------------------------------------------------------
 #p b3lyp/gen scrf=(cpcm,solvent=toluene) pop=hirshfeld empiricaldisper
 sion=gd3bj
 ----------------------------------------------------------------------

 --------------------
 tmpdir/M2_ref_45.gjf
 --------------------
 Symbolic Z-matrix:
 Charge =  0 Multiplicity = 1

                         Standard orientation:
 ---------------------------------------------------------------------
 Center     Atomic      Atomic             Coordinates (Angstroms)
 Number     Number       Type             X           Y           Z
 ---------------------------------------------------------------------
      1          7           0        1.549423   -0.271865   -0.008431
      2          6           0        0.449065    0.522256    0.006719
      3         16           0       -1.137855   -0.106847   -0.002911
      4          1           0        2.457623    0.202461   -0.048840
      5          1           0        1.529483   -1.279202    0.073977
      6          1           0        0.678231    1.555812    0.040137
 ---------------------------------------------------------------------

 SCF Done:  E(RB3LYP) =  -492.847655544     A.U. after   11 cycles

 The electronic state is 1-A.
 Alpha  occ. eigenvalues --  -88.81301 -14.37771 -10.28209  -7.89785  -5.86708
 Alpha  occ. eigenvalues --   -5.86249  -5.85753  -0.95999  -0.74714  -0.63091
 Alpha  occ. eigenvalues --   -0.55962  -0.49729  -0.39005  -0.37642  -0.24795
 Alpha  occ. eigenvalues --   -0.22758
 Alpha virt. eigenvalues --   -0.05768   0.02820   0.06311   0.06893   0.13280
 Alpha virt. eigenvalues --    0.22184   0.31505   0.32744   0.33862   0.37191
 Alpha virt. eigenvalues --    0.44004   0.44716   0.44965   0.49088   0.60295

 Mulliken charges:
               1
     1  N   -0.281636
     2  C    0.052895
     3  S   -0.315113
     4  H    0.208536
     5  H    0.210698
     6  H    0.124620
 Sum of Mulliken charges =   0.00000

 Dipole moment (field-independent basis, Debye):
    X=              5.6479    Y=              0.3871    Z=              0.0967  Tot=              5.6619
 Quadrupole moment (field-independent basis, Debye-Ang):
   XX=            -21.3660   YY=            -23.7075   ZZ=            -27.9712
   XY=              0.2953   XZ=              0.0729   YZ=             -0.1985

 Normal termination of Gaussian 16 at Fri Sep 22 16:27:27 2023.
