 Gaussian 16, Revision A.03,
 Gaussian 16:  ES64L-G16RevA.03 25-Dec-2016

 ----------------------------------------------------------------------
 #p b3lyp/gen scrf=(cpcm,solvent=toluene) pop=hirshfeld empiricaldisper
 sion=gd3bj
 ----------------------------------------------------------------------

 ---------------------
 tmpdir/M2_ref_297.gjf
 ---------------------
 Symbolic Z-matrix:
 Charge =  0 Multiplicity = 1

                         Standard orientation:
 ---------------------------------------------------------------------
 Center     Atomic      Atomic             Coordinates (Angstroms)
 Number     Number       Type             X           Y           Z
 ---------------------------------------------------------------------
      1          6           0        0.696020   -0.003929   -0.010834
      2          6           0       -0.685125   -0.010652    0.002360
      3          1           0       -1.226229    0.928833   -0.028269
      4          1           0        1.183229    0.944362    0.052483
      5          1           0        1.197586   -0.903523   -0.003859
      6          1           0       -1.219961   -0.882186    0.030490
 ---------------------------------------------------------------------

 SCF Done:  E(RB3LYP) =  -78.5725809532     A.U. after    9 cycles

 The electronic state is 1-A.
 Alpha  occ. eigenvalues --  -10.17929 -10.17867  -0.76150  -0.59439  -0.48349
 Alpha  occ. eigenvalues --   -0.41405  -0.37726  -0.27307
 Alpha virt. eigenvalues --   -0.01280   0.06600   0.09684   0.10228   0.16178
 Alpha virt. eigenvalues --    0.27228   0.35626   0.43035   0.43660   0.51247
 Alpha virt. eigenvalues --    0.51708   0.55534   0.63866   0.65659   0.70314

 Mulliken charges:
               1
     1  C   -0.170825
     2  C   -0.194577
     3  H    0.100204
     4  H    0.098752
     5  H    0.085525
     6  H    0.080921
 Sum of Mulliken charges =  -0.00000

 Dipole moment (field-independent basis, Debye):
    X=             -0.0267    Y=             -0.0158    Z=              0.0560  Tot=              0.0640
 Quadrupole moment (field-independent basis, Debye-Ang):
   XX=            -12.5008   YY=            -12.2249   ZZ=            -15.6411
   XY=              0.0053   XZ=              0.0595   YZ=              0.0029

 Normal termination of Gaussian 16 at Fri Sep 22 16:30:20 2023.
