 Gaussian 16, Revision A.03,
 Gaussian 16:  ES64L-G16RevA.03 25-Dec-2016

 ----------------------------------------------------------------------
 #p b3lyp/gen scrf=(cpcm,solvent=toluene) pop=hirshfeld empiricaldisper
 sion=gd3bj
 ----------------------------------------------------------------------

 ---------------------
 tmpdir/M2_ref_329.gjf
 ---------------------
 Symbolic Z-matrix:
 Charge =  0 Multiplicity = 1

                         Standard orientation:
 ---------------------------------------------------------------------
 Center     Atomic      Atomic             Coordinates (Angstroms)
 Number     Number       Type             X           Y           Z
 ---------------------------------------------------------------------
      1          6           0        0.539161   -0.010787   -0.001605
      2          1           0        1.104588    0.918205    0.003237
      3          1           0        1.051261   -0.901078    0.003434
      4          8           0       -0.673852    0.005950    0.000370
 ---------------------------------------------------------------------

 SCF Done:  E(RB3LYP) =  -114.483890002     A.U. after    9 cycles

 The electronic state is 1-A.
 Alpha  occ. eigenvalues --  -19.13922 -10.27077  -1.06475  -0.65066  -0.51097
 Alpha  occ. eigenvalues --   -0.45535  -0.40348  -0.27454
 Alpha virt. eigenvalues --   -0.05284   0.06551   0.11926   0.18119   0.40313
 Alpha virt. eigenvalues --    0.47973   0.52442   0.60786   0.62524   0.72708
 Alpha virt. eigenvalues --    0.78021   0.87642   0.97941   1.32237   1.50396

 Mulliken charges:
               1
     1  C    0.221516
     2  H    0.076303
     3  H    0.065478
     4  O   -0.363297
 Sum of Mulliken charges =  -0.00000

 Dipole moment (field-independent basis, Debye):
    X=              2.7505    Y=             -0.0882    Z=              0.0006  Tot=              2.7519
 Quadrupole moment (field-independent basis, Debye-Ang):
   XX=            -12.0420   YY=            -11.5111   ZZ=            -11.5025
   XY=             -0.0433   XZ=              0.0033   YZ=              0.0002

 Normal termination of Gaussian 16 at Fri Sep 22 16:31:12 2023.
