 Gaussian 16, Revision A.03,
 Gaussian 16:  ES64L-G16RevA.03 25-Dec-2016

 ----------------------------------------------------------------------
 #p b3lyp/gen scrf=(cpcm,solvent=toluene) pop=hirshfeld empiricaldisper
 sion=gd3bj
 ----------------------------------------------------------------------

 -------------------
 tmpdir/M2_ref_4.gjf
 -------------------
 Symbolic Z-matrix:
 Charge =  0 Multiplicity = 1

                         Standard orientation:
 ---------------------------------------------------------------------
 Center     Atomic      Atomic             Coordinates (Angstroms)
 Number     Number       Type             X           Y           Z
 ---------------------------------------------------------------------
      1          6           0        1.807016    0.160932   -0.003365
      2          6           0        0.542434   -0.489914   -0.004584
      3          6           0       -0.634383    0.330155   -0.024086
      4          1           0        2.654272   -0.393757    0.042706
      5          1           0        1.781604    1.257504   -0.052002
      6          1           0        0.501599   -1.506573    0.052235
      7          1           0       -0.524223    1.397025    0.142475
      8          8           0       -1.837958   -0.095154    0.000850
 ---------------------------------------------------------------------

 SCF Done:  E(RB3LYP) =  -191.872341609     A.U. after   11 cycles

 The electronic state is 1-A.
 Alpha  occ. eigenvalues --  -19.12253 -10.27181 -10.22476 -10.20900  -1.02271
 Alpha  occ. eigenvalues --   -0.81149  -0.67017  -0.59242  -0.49588  -0.47732
 Alpha  occ. eigenvalues --   -0.42457  -0.41396  -0.39293  -0.29356  -0.26753
 Alpha virt. eigenvalues --   -0.09606   0.02360   0.05909   0.07081   0.10583
 Alpha virt. eigenvalues --    0.13167   0.21108   0.23862   0.27745   0.39841
 Alpha virt. eigenvalues --    0.43270   0.43996   0.46833   0.47872   0.50049

 Mulliken charges:
               1
     1  C   -0.040404
     2  C   -0.171846
     3  C    0.276691
     4  H    0.098910
     5  H    0.127236
     6  H    0.068732
     7  H    0.064294
     8  O   -0.423613
 Sum of Mulliken charges =  -0.00000

 Dipole moment (field-independent basis, Debye):
    X=              4.3370    Y=              0.7473    Z=              0.0818  Tot=              4.4017
 Quadrupole moment (field-independent basis, Debye-Ang):
   XX=            -27.8726   YY=            -21.5343   ZZ=            -25.2373
   XY=             -0.9586   XZ=              0.0521   YZ=             -0.0974

 Normal termination of Gaussian 16 at Fri Sep 22 16:28:11 2023.
