 Gaussian 16, Revision A.03,
 Gaussian 16:  ES64L-G16RevA.03 25-Dec-2016

 ----------------------------------------------------------------------
 #p b3lyp/gen scrf=(cpcm,solvent=toluene) pop=hirshfeld empiricaldisper
 sion=gd3bj
 ----------------------------------------------------------------------

 ---------------------
 tmpdir/M2_ref_215.gjf
 ---------------------
 Symbolic Z-matrix:
 Charge =  0 Multiplicity = 1

                         Standard orientation:
 ---------------------------------------------------------------------
 Center     Atomic      Atomic             Coordinates (Angstroms)
 Number     Number       Type             X           Y           Z
 ---------------------------------------------------------------------
      1          6           0       -0.688459    0.508851   -0.009439
      2          6           0        0.685508    0.510788   -0.000780
      3          1           0        1.207752    1.463580    0.037662
      4          8           0       -1.331151   -0.566878    0.005911
      5          1           0       -1.232761    1.452531   -0.005160
      6          8           0        1.336491   -0.562366   -0.002309
 ---------------------------------------------------------------------

 SCF Done:  E(RB3LYP) =  -227.768503608     A.U. after   11 cycles

 The electronic state is 1-A.
 Alpha  occ. eigenvalues --  -19.16583 -19.16524 -10.29193 -10.29119  -1.09000
 Alpha  occ. eigenvalues --   -1.05166  -0.77172  -0.58074  -0.55920  -0.48259
 Alpha  occ. eigenvalues --   -0.45753  -0.45080  -0.38114  -0.31469  -0.29394
 Alpha virt. eigenvalues --   -0.15063   0.02266   0.05343   0.09359   0.14261
 Alpha virt. eigenvalues --    0.25492   0.33644   0.37687   0.38099   0.45074
 Alpha virt. eigenvalues --    0.47127   0.56146   0.58518   0.60109   0.65672

 Mulliken charges:
               1
     1  C    0.239805
     2  C    0.245891
     3  H    0.079919
     4  O   -0.322614
     5  H    0.080643
     6  O   -0.323644
 Sum of Mulliken charges =  -0.00000

 Dipole moment (field-independent basis, Debye):
    X=             -0.0271    Y=              4.3450    Z=             -0.0081  Tot=              4.3451
 Quadrupole moment (field-independent basis, Debye-Ang):
   XX=            -26.8609   YY=            -21.4678   ZZ=            -21.3145
   XY=             -0.0308   XZ=              0.0448   YZ=              0.0121

 Normal termination of Gaussian 16 at Fri Sep 22 16:30:15 2023.
