 Gaussian 16, Revision A.03,
 Gaussian 16:  ES64L-G16RevA.03 25-Dec-2016

 ----------------------------------------------------------------------
 #p b3lyp/gen scrf=(cpcm,solvent=toluene) pop=hirshfeld empiricaldisper
 sion=gd3bj
 ----------------------------------------------------------------------

 --------------------
 tmpdir/M2_ref_94.gjf
 --------------------
 Symbolic Z-matrix:
 Charge =  0 Multiplicity = 1

                         Standard orientation:
 ---------------------------------------------------------------------
 Center     Atomic      Atomic             Coordinates (Angstroms)
 Number     Number       Type             X           Y           Z
 ---------------------------------------------------------------------
      1          6           0       -0.004302    0.001176   -0.002004
      2          1           0        0.710591   -0.038020   -0.834423
      3          1           0       -0.280794    1.051617    0.198417
      4          1           0       -0.909945   -0.592375   -0.226509
      5          1           0        0.505963   -0.428280    0.874541
 ---------------------------------------------------------------------

 SCF Done:  E(RB3LYP) =  -40.5138625383     A.U. after    7 cycles

 The electronic state is 1-A.
 Alpha  occ. eigenvalues --  -10.16515  -0.69186  -0.39560  -0.39263  -0.38731
 Alpha virt. eigenvalues --    0.05603   0.12397   0.12475   0.12520   0.37046
 Alpha virt. eigenvalues --    0.37819   0.38172   0.63290   0.63470   0.63656
 Alpha virt. eigenvalues --    0.66996   0.95962   1.28588   1.29455   1.85050

 Mulliken charges:
               1
     1  C   -0.357616
     2  H    0.087905
     3  H    0.090838
     4  H    0.091925
     5  H    0.086949
 Sum of Mulliken charges =   0.00000

 Dipole moment (field-independent basis, Debye):
    X=              0.0252    Y=             -0.0060    Z=              0.0061  Tot=              0.0266
 Quadrupole moment (field-independent basis, Debye-Ang):
   XX=             -8.3937   YY=             -8.4374   ZZ=             -8.5758
   XY=              0.0014   XZ=             -0.0065   YZ=              0.0028

 Normal termination of Gaussian 16 at Fri Sep 22 16:27:49 2023.
