 Gaussian 16, Revision A.03,
 Gaussian 16:  ES64L-G16RevA.03 25-Dec-2016

 ----------------------------------------------------------------------
 #p b3lyp/gen scrf=(cpcm,solvent=toluene) pop=hirshfeld empiricaldisper
 sion=gd3bj
 ----------------------------------------------------------------------

 ---------------------
 tmpdir/M2_ref_203.gjf
 ---------------------
 Symbolic Z-matrix:
 Charge =  0 Multiplicity = 1

                         Standard orientation:
 ---------------------------------------------------------------------
 Center     Atomic      Atomic             Coordinates (Angstroms)
 Number     Number       Type             X           Y           Z
 ---------------------------------------------------------------------
      1          6           0       -1.735733   -0.535505    0.017408
      2          6           0       -0.354257    0.119398   -0.026820
      3          6           0        0.794376   -0.640600   -0.023345
      4          1           0       -2.175864   -0.459530    1.052189
      5          1           0       -2.503437    0.088798   -0.621073
      6          1           0       -1.739434   -1.589484   -0.327793
      7          8           0       -0.248623    1.369969   -0.008013
      8          8           0        1.929576   -0.116774    0.028157
      9          1           0        0.744795   -1.725109   -0.067930
 ---------------------------------------------------------------------

 SCF Done:  E(RB3LYP) =  -267.087789104     A.U. after   12 cycles

 The electronic state is 1-A.
 Alpha  occ. eigenvalues --  -19.15954 -19.14904 -10.29095 -10.28698 -10.21160
 Alpha  occ. eigenvalues --   -1.08481  -1.04450  -0.79302  -0.70509  -0.56729
 Alpha  occ. eigenvalues --   -0.51298  -0.48355  -0.47069  -0.43534  -0.42120
 Alpha  occ. eigenvalues --   -0.40465  -0.36275  -0.30522  -0.28553
 Alpha virt. eigenvalues --   -0.14057   0.02517   0.03945   0.07351   0.10190
 Alpha virt. eigenvalues --    0.11646   0.17375   0.17765   0.27732   0.33863
 Alpha virt. eigenvalues --    0.36751   0.39449   0.44401   0.44864   0.48740

 Mulliken charges:
               1
     1  C   -0.218356
     2  C    0.112634
     3  C    0.277214
     4  H    0.151953
     5  H    0.145560
     6  H    0.122127
     7  O   -0.334082
     8  O   -0.325396
     9  H    0.068346
 Sum of Mulliken charges =  -0.00000

 Dipole moment (field-independent basis, Debye):
    X=             -3.2846    Y=             -3.8233    Z=             -0.0119  Tot=              5.0405
 Quadrupole moment (field-independent basis, Debye-Ang):
   XX=            -32.3065   YY=            -31.1360   ZZ=            -27.7416
   XY=              0.2058   XZ=             -0.4158   YZ=              0.0875

 Normal termination of Gaussian 16 at Fri Sep 22 16:29:27 2023.
