 Gaussian 16, Revision A.03,
 Gaussian 16:  ES64L-G16RevA.03 25-Dec-2016

 ----------------------------------------------------------------------
 #p b3lyp/gen scrf=(cpcm,solvent=toluene) pop=hirshfeld empiricaldisper
 sion=gd3bj
 ----------------------------------------------------------------------

 ---------------------
 tmpdir/M2_ref_349.gjf
 ---------------------
 Symbolic Z-matrix:
 Charge =  0 Multiplicity = 1

                         Standard orientation:
 ---------------------------------------------------------------------
 Center     Atomic      Atomic             Coordinates (Angstroms)
 Number     Number       Type             X           Y           Z
 ---------------------------------------------------------------------
      1          6           0       -0.517165   -0.005463   -0.002982
      2          1           0       -1.041677    0.951647    0.005634
      3          1           0       -1.172361   -0.862860    0.006279
      4          8           0        0.664628   -0.007001    0.000748
 ---------------------------------------------------------------------

 SCF Done:  E(RB3LYP) =  -114.485854944     A.U. after    9 cycles

 The electronic state is 1-A.
 Alpha  occ. eigenvalues --  -19.14169 -10.27281  -1.08374  -0.64244  -0.50537
 Alpha  occ. eigenvalues --   -0.46374  -0.41542  -0.27309
 Alpha virt. eigenvalues --   -0.04505   0.06240   0.12025   0.18304   0.40054
 Alpha virt. eigenvalues --    0.49182   0.50786   0.58234   0.65594   0.72681
 Alpha virt. eigenvalues --    0.77065   0.87498   0.97605   1.33090   1.50578

 Mulliken charges:
               1
     1  C    0.197527
     2  H    0.059947
     3  H    0.072569
     4  O   -0.330043
 Sum of Mulliken charges =  -0.00000

 Dipole moment (field-independent basis, Debye):
    X=             -2.5714    Y=             -0.0412    Z=              0.0001  Tot=              2.5718
 Quadrupole moment (field-independent basis, Debye-Ang):
   XX=            -12.0563   YY=            -11.7331   ZZ=            -11.4765
   XY=              0.1652   XZ=             -0.0063   YZ=              0.0009

 Normal termination of Gaussian 16 at Fri Sep 22 16:31:29 2023.
