 Gaussian 16, Revision A.03,
 Gaussian 16:  ES64L-G16RevA.03 25-Dec-2016

 ----------------------------------------------------------------------
 #p b3lyp/gen scrf=(cpcm,solvent=toluene) pop=hirshfeld empiricaldisper
 sion=gd3bj
 ----------------------------------------------------------------------

 ---------------------
 tmpdir/M2_ref_250.gjf
 ---------------------
 Symbolic Z-matrix:
 Charge =  0 Multiplicity = 1

                         Standard orientation:
 ---------------------------------------------------------------------
 Center     Atomic      Atomic             Coordinates (Angstroms)
 Number     Number       Type             X           Y           Z
 ---------------------------------------------------------------------
      1          6           0       -0.805716   -0.844550    0.014646
      2          6           0       -0.024568    0.345973   -0.027357
      3          6           0        1.433331    0.368309    0.080298
      4          8           0       -1.974728   -0.529440    0.027667
      5          1           0       -0.419073   -1.856002    0.051306
      6          8           0       -0.804991    1.297302   -0.059238
      7          1           0        1.827260    1.373407    0.330870
      8          8           0        2.151410   -0.609838   -0.066891
 ---------------------------------------------------------------------

 SCF Done:  E(RB3LYP) =  -341.047210457     A.U. after   14 cycles

 The electronic state is 1-A.
 Alpha  occ. eigenvalues --  -19.18410 -19.17044 -19.15207 -10.31277 -10.29839
 Alpha  occ. eigenvalues --  -10.28682  -1.13182  -1.10302  -1.05921  -0.77887
 Alpha  occ. eigenvalues --   -0.68772  -0.57897  -0.54963  -0.51437  -0.49336
 Alpha  occ. eigenvalues --   -0.47683  -0.46315  -0.43337  -0.38468  -0.34709
 Alpha  occ. eigenvalues --   -0.29527  -0.28844
 Alpha virt. eigenvalues --   -0.16225  -0.07361   0.05038   0.07302   0.07664
 Alpha virt. eigenvalues --    0.13797   0.21400   0.23452   0.26964   0.32574
 Alpha virt. eigenvalues --    0.36214   0.38061   0.42732   0.48167   0.51032

 Mulliken charges:
               1
     1  C    0.268882
     2  C    0.096971
     3  C    0.320080
     4  O   -0.293723
     5  H    0.082057
     6  O   -0.268652
     7  H    0.100798
     8  O   -0.306414
 Sum of Mulliken charges =  -0.00000

 Dipole moment (field-independent basis, Debye):
    X=              2.2925    Y=             -0.5145    Z=              0.3910  Tot=              2.3818
 Quadrupole moment (field-independent basis, Debye-Ang):
   XX=            -43.8699   YY=            -33.8253   ZZ=            -30.8840
   XY=              4.6691   XZ=              0.5874   YZ=              0.1626

 Normal termination of Gaussian 16 at Fri Sep 22 16:31:20 2023.
