 Gaussian 16, Revision A.03,
 Gaussian 16:  ES64L-G16RevA.03 25-Dec-2016

 ----------------------------------------------------------------------
 #p b3lyp/gen scrf=(cpcm,solvent=toluene) pop=hirshfeld empiricaldisper
 sion=gd3bj
 ----------------------------------------------------------------------

 -------------------
 tmpdir/M2_ref_2.gjf
 -------------------
 Symbolic Z-matrix:
 Charge =  0 Multiplicity = 1

                         Standard orientation:
 ---------------------------------------------------------------------
 Center     Atomic      Atomic             Coordinates (Angstroms)
 Number     Number       Type             X           Y           Z
 ---------------------------------------------------------------------
      1          6           0       -0.617890    0.438551    0.000403
      2          6           0        0.575121   -0.357429   -0.030172
      3          6           0       -1.869156   -0.237521   -0.005039
      4          1           0       -0.597392    1.455063    0.069496
      5          1           0        0.486591   -1.428232    0.123558
      6          6           0        1.930391    0.151927    0.002633
 ---------------------------------------------------------------------

 SCF Done:  E(RB3LYP) =  -153.283734959     A.U. after   13 cycles

 The electronic state is 1-A.
 Alpha  occ. eigenvalues --  -10.28507 -10.28281 -10.23416 -10.22682  -0.84562
 Alpha  occ. eigenvalues --   -0.73621  -0.57780  -0.57064  -0.46686  -0.36187
 Alpha  occ. eigenvalues --   -0.34118  -0.31402  -0.25844
 Alpha virt. eigenvalues --   -0.13881  -0.12861  -0.07839   0.01800   0.07182
 Alpha virt. eigenvalues --    0.08916   0.19178   0.23844   0.24822   0.39550
 Alpha virt. eigenvalues --    0.40801   0.42143   0.44006   0.45332   0.45889

 Mulliken charges:
               1
     1  C   -0.103368
     2  C   -0.190631
     3  C    0.008125
     4  H    0.113333
     5  H    0.155904
     6  C    0.016637
 Sum of Mulliken charges =  -0.00000

 Dipole moment (field-independent basis, Debye):
    X=             -0.1988    Y=              0.2998    Z=              0.2226  Tot=              0.4231
 Quadrupole moment (field-independent basis, Debye-Ang):
   XX=            -34.2447   YY=            -19.9706   ZZ=            -26.8854
   XY=             -4.0957   XZ=              0.0155   YZ=             -0.1434

 Normal termination of Gaussian 16 at Fri Sep 22 16:27:45 2023.
