 Gaussian 16, Revision A.03,
 Gaussian 16:  ES64L-G16RevA.03 25-Dec-2016

 ----------------------------------------------------------------------
 #p b3lyp/gen scrf=(cpcm,solvent=toluene) pop=hirshfeld empiricaldisper
 sion=gd3bj
 ----------------------------------------------------------------------

 --------------------
 tmpdir/M2_ref_27.gjf
 --------------------
 Symbolic Z-matrix:
 Charge =  0 Multiplicity = 1

                         Standard orientation:
 ---------------------------------------------------------------------
 Center     Atomic      Atomic             Coordinates (Angstroms)
 Number     Number       Type             X           Y           Z
 ---------------------------------------------------------------------
      1          6           0       -0.791217    0.479854   -0.002149
      2          6           0        0.600005    0.640878    0.000636
      3          6           0        1.414244   -0.478720   -0.002084
      4          8           0       -1.305329   -0.633512    0.001707
      5          1           0       -1.436537    1.356527   -0.002794
      6          1           0        1.037645    1.635915    0.006455
      7          1           0        1.009595   -1.414001   -0.001126
      8          1           0        2.493742   -0.362416    0.005390
 ---------------------------------------------------------------------

 SCF Done:  E(RB3LYP) =  -191.881262174     A.U. after   11 cycles

 The electronic state is 1-A.
 Alpha  occ. eigenvalues --  -19.11824 -10.26295 -10.21028 -10.19741  -1.04991
 Alpha  occ. eigenvalues --   -0.80406  -0.67907  -0.55607  -0.52603  -0.45943
 Alpha  occ. eigenvalues --   -0.42711  -0.40959  -0.39926  -0.28890  -0.26850
 Alpha virt. eigenvalues --   -0.09236   0.05428   0.05571   0.08149   0.10834
 Alpha virt. eigenvalues --    0.13317   0.21993   0.25168   0.29037   0.40150
 Alpha virt. eigenvalues --    0.42062   0.44981   0.46175   0.48134   0.51523

 Mulliken charges:
               1
     1  C    0.302173
     2  C   -0.269910
     3  C   -0.000365
     4  O   -0.388050
     5  H    0.055909
     6  H    0.090282
     7  H    0.088931
     8  H    0.121031
 Sum of Mulliken charges =  -0.00000

 Dipole moment (field-independent basis, Debye):
    X=              2.5113    Y=              1.9955    Z=              0.0014  Tot=              3.2076
 Quadrupole moment (field-independent basis, Debye-Ang):
   XX=            -24.0002   YY=            -22.4653   ZZ=            -24.9931
   XY=             -3.4767   XZ=              0.0256   YZ=              0.0100

 Normal termination of Gaussian 16 at Fri Sep 22 16:27:31 2023.
