 Gaussian 16, Revision A.03,
 Gaussian 16:  ES64L-G16RevA.03 25-Dec-2016

 ----------------------------------------------------------------------
 #p b3lyp/gen scrf=(cpcm,solvent=toluene) pop=hirshfeld empiricaldisper
 sion=gd3bj
 ----------------------------------------------------------------------

 --------------------
 tmpdir/M2_ref_97.gjf
 --------------------
 Symbolic Z-matrix:
 Charge =  0 Multiplicity = 1

                         Standard orientation:
 ---------------------------------------------------------------------
 Center     Atomic      Atomic             Coordinates (Angstroms)
 Number     Number       Type             X           Y           Z
 ---------------------------------------------------------------------
      1          6           0        0.759182    0.003845    0.001071
      2          6           0       -0.766684    0.004455   -0.001933
      3          1           0       -1.133560   -0.952073   -0.396884
      4          1           0        1.156395   -0.804288    0.629313
      5          1           0        1.115100   -0.199406   -1.016130
      6          1           0        1.196527    0.964092    0.361536
      7          1           0       -1.143674    0.853764   -0.601472
      8          1           0       -1.145777    0.088114    1.028807
 ---------------------------------------------------------------------

 SCF Done:  E(RB3LYP) =  -79.8213196179     A.U. after    9 cycles

 The electronic state is 1-A.
 Alpha  occ. eigenvalues --  -10.16670 -10.16608  -0.75420  -0.61188  -0.43789
 Alpha  occ. eigenvalues --   -0.43545  -0.36709  -0.34579  -0.34153
 Alpha virt. eigenvalues --    0.04975   0.09243   0.10418   0.10633   0.13690
 Alpha virt. eigenvalues --    0.13828   0.21549   0.37177   0.39279   0.39447
 Alpha virt. eigenvalues --    0.45767   0.47605   0.58943   0.63935   0.64180

 Mulliken charges:
               1
     1  C   -0.266361
     2  C   -0.255943
     3  H    0.087122
     4  H    0.083856
     5  H    0.084157
     6  H    0.090453
     7  H    0.091218
     8  H    0.085497
 Sum of Mulliken charges =   0.00000

 Dipole moment (field-independent basis, Debye):
    X=              0.0034    Y=             -0.0495    Z=              0.0014  Tot=              0.0496
 Quadrupole moment (field-independent basis, Debye-Ang):
   XX=            -16.0316   YY=            -14.9068   ZZ=            -15.0844
   XY=              0.0214   XZ=              0.0327   YZ=             -0.0044

 Normal termination of Gaussian 16 at Fri Sep 22 16:28:17 2023.
