 Gaussian 16, Revision A.03,
 Gaussian 16:  ES64L-G16RevA.03 25-Dec-2016

 ----------------------------------------------------------------------
 #p b3lyp/gen scrf=(cpcm,solvent=toluene) pop=hirshfeld empiricaldisper
 sion=gd3bj
 ----------------------------------------------------------------------

 --------------------
 tmpdir/M2_ref_25.gjf
 --------------------
 Symbolic Z-matrix:
 Charge =  0 Multiplicity = 1

                         Standard orientation:
 ---------------------------------------------------------------------
 Center     Atomic      Atomic             Coordinates (Angstroms)
 Number     Number       Type             X           Y           Z
 ---------------------------------------------------------------------
      1          6           0       -0.693039   -0.008715   -0.000105
      2          6           0        0.691332   -0.006324   -0.001366
      3          1           0        1.230557    0.936076    0.002896
      4          1           0       -1.189571   -0.892609    0.000901
      5          1           0       -1.241993    0.929533    0.001365
      6          1           0        1.211248   -0.882768    0.003662
 ---------------------------------------------------------------------

 SCF Done:  E(RB3LYP) =  -78.5714434151     A.U. after    9 cycles

 The electronic state is 1-A.
 Alpha  occ. eigenvalues --  -10.18012 -10.17947  -0.76066  -0.59623  -0.48132
 Alpha  occ. eigenvalues --   -0.41614  -0.37669  -0.27296
 Alpha virt. eigenvalues --   -0.01331   0.06619   0.09719   0.10112   0.16165
 Alpha virt. eigenvalues --    0.27436   0.35792   0.42202   0.43672   0.51207
 Alpha virt. eigenvalues --    0.52019   0.55014   0.63981   0.65661   0.70580

 Mulliken charges:
               1
     1  C   -0.179372
     2  C   -0.185046
     3  H    0.102151
     4  H    0.078100
     5  H    0.103810
     6  H    0.080357
 Sum of Mulliken charges =  -0.00000

 Dipole moment (field-independent basis, Debye):
    X=              0.0026    Y=             -0.0285    Z=              0.0096  Tot=              0.0302
 Quadrupole moment (field-independent basis, Debye-Ang):
   XX=            -12.3886   YY=            -12.2780   ZZ=            -15.6559
   XY=             -0.0306   XZ=              0.0057   YZ=             -0.0001

 Normal termination of Gaussian 16 at Fri Sep 22 16:28:21 2023.
