 Gaussian 16, Revision A.03,
 Gaussian 16:  ES64L-G16RevA.03 25-Dec-2016

 ----------------------------------------------------------------------
 #p b3lyp/gen scrf=(cpcm,solvent=toluene) pop=hirshfeld empiricaldisper
 sion=gd3bj
 ----------------------------------------------------------------------

 ---------------------
 tmpdir/M2_ref_316.gjf
 ---------------------
 Symbolic Z-matrix:
 Charge =  0 Multiplicity = 1

                         Standard orientation:
 ---------------------------------------------------------------------
 Center     Atomic      Atomic             Coordinates (Angstroms)
 Number     Number       Type             X           Y           Z
 ---------------------------------------------------------------------
      1          6           0       -0.798207    0.510608   -0.000350
      2          6           0        0.618129    0.634117   -0.004477
      3          6           0        1.414567   -0.485735    0.000957
      4          1           0       -1.408687    1.331211    0.018008
      5          8           0       -1.318405   -0.638672   -0.000324
      6          1           0        1.058350    1.628783   -0.002706
      7          1           0        0.992848   -1.421253   -0.003566
      8          1           0        2.497796   -0.383314    0.014076
 ---------------------------------------------------------------------

 SCF Done:  E(RB3LYP) =  -191.877775943     A.U. after   11 cycles

 The electronic state is 1-A.
 Alpha  occ. eigenvalues --  -19.11854 -10.26326 -10.20914 -10.19871  -1.03176
 Alpha  occ. eigenvalues --   -0.80230  -0.68189  -0.56604  -0.52421  -0.45584
 Alpha  occ. eigenvalues --   -0.42987  -0.39978  -0.39476  -0.28819  -0.26910
 Alpha virt. eigenvalues --   -0.09434   0.04678   0.05706   0.08328   0.10945
 Alpha virt. eigenvalues --    0.13318   0.21275   0.25395   0.28508   0.40338
 Alpha virt. eigenvalues --    0.41878   0.45390   0.46285   0.47993   0.51691

 Mulliken charges:
               1
     1  C    0.343142
     2  C   -0.276771
     3  C    0.000721
     4  H    0.046067
     5  O   -0.416277
     6  H    0.089707
     7  H    0.092004
     8  H    0.121407
 Sum of Mulliken charges =  -0.00000

 Dipole moment (field-independent basis, Debye):
    X=              2.4655    Y=              2.1939    Z=              0.0177  Tot=              3.3004
 Quadrupole moment (field-independent basis, Debye-Ang):
   XX=            -24.0330   YY=            -22.2639   ZZ=            -25.0197
   XY=             -3.7868   XZ=              0.0188   YZ=              0.0068

 Normal termination of Gaussian 16 at Fri Sep 22 16:30:42 2023.
