 Gaussian 16, Revision A.03,
 Gaussian 16:  ES64L-G16RevA.03 25-Dec-2016

 ----------------------------------------------------------------------
 #p b3lyp/gen scrf=(cpcm,solvent=toluene) pop=hirshfeld empiricaldisper
 sion=gd3bj
 ----------------------------------------------------------------------

 ---------------------
 tmpdir/M2_ref_222.gjf
 ---------------------
 Symbolic Z-matrix:
 Charge =  0 Multiplicity = 1

                         Standard orientation:
 ---------------------------------------------------------------------
 Center     Atomic      Atomic             Coordinates (Angstroms)
 Number     Number       Type             X           Y           Z
 ---------------------------------------------------------------------
      1          6           0        0.561236   -0.016950   -0.003222
      2          1           0        1.110351    0.923897    0.006457
      3          1           0        1.055941   -0.879748    0.007200
      4          8           0       -0.691714    0.007194    0.000709
 ---------------------------------------------------------------------

 SCF Done:  E(RB3LYP) =  -114.476778337     A.U. after    9 cycles

 The electronic state is 1-A.
 Alpha  occ. eigenvalues --  -19.14062 -10.27343  -1.04411  -0.66091  -0.51046
 Alpha  occ. eigenvalues --   -0.44921  -0.39143  -0.27658
 Alpha virt. eigenvalues --   -0.06381   0.06617   0.11796   0.17493   0.40516
 Alpha virt. eigenvalues --    0.47713   0.52471   0.57281   0.62500   0.73278
 Alpha virt. eigenvalues --    0.79232   0.87519   0.97765   1.32151   1.49355

 Mulliken charges:
               1
     1  C    0.240030
     2  H    0.087432
     3  H    0.065676
     4  O   -0.393138
 Sum of Mulliken charges =   0.00000

 Dipole moment (field-independent basis, Debye):
    X=              2.9360    Y=             -0.1147    Z=              0.0023  Tot=              2.9383
 Quadrupole moment (field-independent basis, Debye-Ang):
   XX=            -11.9493   YY=            -11.4498   ZZ=            -11.5732
   XY=             -0.0695   XZ=              0.0068   YZ=              0.0009

 Normal termination of Gaussian 16 at Fri Sep 22 16:30:18 2023.
