 Gaussian 16, Revision A.03,
 Gaussian 16:  ES64L-G16RevA.03 25-Dec-2016

 ----------------------------------------------------------------------
 #p b3lyp/gen scrf=(cpcm,solvent=toluene) pop=hirshfeld empiricaldisper
 sion=gd3bj
 ----------------------------------------------------------------------

 ---------------------
 tmpdir/M2_ref_383.gjf
 ---------------------
 Symbolic Z-matrix:
 Charge =  0 Multiplicity = 1

                         Standard orientation:
 ---------------------------------------------------------------------
 Center     Atomic      Atomic             Coordinates (Angstroms)
 Number     Number       Type             X           Y           Z
 ---------------------------------------------------------------------
      1          6           0       -0.707126    0.475479    0.002350
      2          6           0        0.708378    0.475454   -0.004991
      3          6           0       -1.404322   -0.711500   -0.003283
      4          1           0       -1.242510    1.422684    0.018058
      5          6           0        1.402354   -0.713450    0.004452
      6          1           0        1.246809    1.421422   -0.009227
 ---------------------------------------------------------------------

 SCF Done:  E(RB3LYP) =  -153.297090103     A.U. after   13 cycles

 The electronic state is 1-A.
 Alpha  occ. eigenvalues --  -10.27022 -10.27015 -10.22413 -10.22371  -0.86177
 Alpha  occ. eigenvalues --   -0.73962  -0.61723  -0.50583  -0.49613  -0.37303
 Alpha  occ. eigenvalues --   -0.33232  -0.31355  -0.25930
 Alpha virt. eigenvalues --   -0.14241  -0.11610  -0.07607   0.04923   0.05691
 Alpha virt. eigenvalues --    0.09573   0.20445   0.26673   0.30992   0.36083
 Alpha virt. eigenvalues --    0.39039   0.42976   0.44187   0.44295   0.46001

 Mulliken charges:
               1
     1  C   -0.162913
     2  C   -0.162350
     3  C   -0.001290
     4  H    0.164007
     5  C   -0.001332
     6  H    0.163879
 Sum of Mulliken charges =   0.00000

 Dipole moment (field-independent basis, Debye):
    X=              0.0101    Y=              4.1460    Z=              0.0110  Tot=              4.1460
 Quadrupole moment (field-independent basis, Debye-Ang):
   XX=            -25.8197   YY=            -24.2241   ZZ=            -26.5445
   XY=             -0.0001   XZ=             -0.0974   YZ=              0.0244

 Normal termination of Gaussian 16 at Fri Sep 22 16:31:36 2023.
