 Gaussian 16, Revision A.03,
 Gaussian 16:  ES64L-G16RevA.03 25-Dec-2016

 ----------------------------------------------------------------------
 #p b3lyp/gen scrf=(cpcm,solvent=toluene) pop=hirshfeld empiricaldisper
 sion=gd3bj
 ----------------------------------------------------------------------

 ---------------------
 tmpdir/M2_ref_178.gjf
 ---------------------
 Symbolic Z-matrix:
 Charge =  0 Multiplicity = 1

                         Standard orientation:
 ---------------------------------------------------------------------
 Center     Atomic      Atomic             Coordinates (Angstroms)
 Number     Number       Type             X           Y           Z
 ---------------------------------------------------------------------
      1          6           0       -0.766310   -0.006118   -0.002705
      2          6           0        0.761554   -0.013813    0.006328
      3          1           0        1.139628   -0.234031   -1.000650
      4          1           0       -1.013045    1.001080   -0.381718
      5          1           0       -1.190728   -0.794912   -0.632853
      6          1           0       -1.167831   -0.135348    1.009011
      7          1           0        1.069416    1.032162    0.291664
      8          1           0        1.191099   -0.749364    0.692810
 ---------------------------------------------------------------------

 SCF Done:  E(RB3LYP) =  -79.8171264165     A.U. after    9 cycles

 The electronic state is 1-A.
 Alpha  occ. eigenvalues --  -10.16661 -10.16475  -0.75529  -0.60915  -0.44433
 Alpha  occ. eigenvalues --   -0.43573  -0.36121  -0.34380  -0.34236
 Alpha virt. eigenvalues --    0.04814   0.09372   0.09685   0.10072   0.14758
 Alpha virt. eigenvalues --    0.14873   0.21252   0.36898   0.38735   0.40557
 Alpha virt. eigenvalues --    0.46955   0.48135   0.58804   0.62530   0.64201

 Mulliken charges:
               1
     1  C   -0.255900
     2  C   -0.269386
     3  H    0.086171
     4  H    0.087118
     5  H    0.088755
     6  H    0.086671
     7  H    0.088166
     8  H    0.088405
 Sum of Mulliken charges =  -0.00000

 Dipole moment (field-independent basis, Debye):
    X=             -0.0073    Y=             -0.0079    Z=             -0.0124  Tot=              0.0164
 Quadrupole moment (field-independent basis, Debye-Ang):
   XX=            -16.2914   YY=            -14.8136   ZZ=            -15.0442
   XY=              0.0403   XZ=             -0.0909   YZ=             -0.0166

 Normal termination of Gaussian 16 at Fri Sep 22 16:29:36 2023.
