 Gaussian 16, Revision A.03,
 Gaussian 16:  ES64L-G16RevA.03 25-Dec-2016

 ----------------------------------------------------------------------
 #p b3lyp/gen scrf=(cpcm,solvent=toluene) pop=hirshfeld empiricaldisper
 sion=gd3bj
 ----------------------------------------------------------------------

 --------------------
 tmpdir/M2_ref_26.gjf
 --------------------
 Symbolic Z-matrix:
 Charge =  0 Multiplicity = 1

                         Standard orientation:
 ---------------------------------------------------------------------
 Center     Atomic      Atomic             Coordinates (Angstroms)
 Number     Number       Type             X           Y           Z
 ---------------------------------------------------------------------
      1          6           0       -0.544764   -0.012946   -0.000208
      2          1           0       -1.108280    0.916630    0.000424
      3          1           0       -1.027456   -0.904474    0.000451
      4          8           0        0.675540    0.008190    0.000047
 ---------------------------------------------------------------------

 SCF Done:  E(RB3LYP) =  -114.481795513     A.U. after    9 cycles

 The electronic state is 1-A.
 Alpha  occ. eigenvalues --  -19.13853 -10.27015  -1.06051  -0.65244  -0.51315
 Alpha  occ. eigenvalues --   -0.45309  -0.40078  -0.27451
 Alpha virt. eigenvalues --   -0.05456   0.06616   0.11862   0.18072   0.40372
 Alpha virt. eigenvalues --    0.47495   0.52979   0.60824   0.62426   0.73018
 Alpha virt. eigenvalues --    0.78284   0.87677   0.98025   1.32013   1.50479

 Mulliken charges:
               1
     1  C    0.227717
     2  H    0.079870
     3  H    0.063334
     4  O   -0.370921
 Sum of Mulliken charges =   0.00000

 Dipole moment (field-independent basis, Debye):
    X=             -2.7874    Y=             -0.1006    Z=              0.0001  Tot=              2.7892
 Quadrupole moment (field-independent basis, Debye-Ang):
   XX=            -12.0466   YY=            -11.4538   ZZ=            -11.5090
   XY=              0.0258   XZ=             -0.0004   YZ=              0.0000

 Normal termination of Gaussian 16 at Fri Sep 22 16:28:25 2023.
