 Gaussian 16, Revision A.03,
 Gaussian 16:  ES64L-G16RevA.03 25-Dec-2016

 ----------------------------------------------------------------------
 #p b3lyp/gen scrf=(cpcm,solvent=toluene) pop=hirshfeld empiricaldisper
 sion=gd3bj
 ----------------------------------------------------------------------

 --------------------
 tmpdir/M2_ref_37.gjf
 --------------------
 Symbolic Z-matrix:
 Charge =  0 Multiplicity = 1

                         Standard orientation:
 ---------------------------------------------------------------------
 Center     Atomic      Atomic             Coordinates (Angstroms)
 Number     Number       Type             X           Y           Z
 ---------------------------------------------------------------------
      1          8           0       -1.546567   -0.402272   -0.173532
      2          6           0       -0.524276    0.570531    0.129983
      3          6           0        0.742249   -0.198322    0.294478
      4          1           0       -2.414891   -0.138583   -0.314658
      5          1           0       -0.808599    1.081858    1.061198
      6          1           0       -0.474370    1.309722   -0.676557
      7          1           0        0.675682   -1.009155    1.022054
      8          8           0        1.760859   -0.032365   -0.281319
 ---------------------------------------------------------------------

 SCF Done:  E(RB3LYP) =  -228.998398482     A.U. after   11 cycles

 The electronic state is 1-A.
 Alpha  occ. eigenvalues --  -19.13954 -19.12575 -10.27420 -10.24156  -1.08690
 Alpha  occ. eigenvalues --   -1.03592  -0.75498  -0.59644  -0.54159  -0.50410
 Alpha  occ. eigenvalues --   -0.47103  -0.44386  -0.40633  -0.35535  -0.29457
 Alpha  occ. eigenvalues --   -0.27284
 Alpha virt. eigenvalues --   -0.04490   0.05125   0.07409   0.08854   0.11588
 Alpha virt. eigenvalues --    0.16242   0.22927   0.23511   0.41978   0.42457
 Alpha virt. eigenvalues --    0.46280   0.48731   0.54711   0.58442   0.59669

 Mulliken charges:
               1
     1  O   -0.486130
     2  C    0.123431
     3  C    0.214450
     4  H    0.212244
     5  H    0.109301
     6  H    0.094228
     7  H    0.051486
     8  O   -0.319010
 Sum of Mulliken charges =  -0.00000

 Dipole moment (field-independent basis, Debye):
    X=             -2.9652    Y=              1.5319    Z=              1.2876  Tot=              3.5773
 Quadrupole moment (field-independent basis, Debye-Ang):
   XX=            -24.5669   YY=            -23.5809   ZZ=            -23.1714
   XY=             -2.3657   XZ=              2.1170   YZ=             -0.0921

 Normal termination of Gaussian 16 at Fri Sep 22 16:27:37 2023.
