 Gaussian 16, Revision A.03,
 Gaussian 16:  ES64L-G16RevA.03 25-Dec-2016

 ----------------------------------------------------------------------
 #p b3lyp/gen scrf=(cpcm,solvent=toluene) pop=hirshfeld empiricaldisper
 sion=gd3bj
 ----------------------------------------------------------------------

 ---------------------
 tmpdir/M2_ref_268.gjf
 ---------------------
 Symbolic Z-matrix:
 Charge =  0 Multiplicity = 1

                         Standard orientation:
 ---------------------------------------------------------------------
 Center     Atomic      Atomic             Coordinates (Angstroms)
 Number     Number       Type             X           Y           Z
 ---------------------------------------------------------------------
      1          8           0       -1.111816   -0.079957   -0.005911
      2          6           0        0.141974    0.419647    0.005646
      3          8           0        1.139536   -0.286666   -0.002491
      4          1           0       -1.232507   -1.062756    0.028730
      5          1           0        0.158897    1.477861    0.004617
 ---------------------------------------------------------------------

 SCF Done:  E(RB3LYP) =  -189.734063835     A.U. after   10 cycles

 The electronic state is 1-A.
 Alpha  occ. eigenvalues --  -19.18210 -19.12807 -10.32439  -1.11442  -1.02863
 Alpha  occ. eigenvalues --   -0.68425  -0.54502  -0.49017  -0.45322  -0.40260
 Alpha  occ. eigenvalues --   -0.33686  -0.29785
 Alpha virt. eigenvalues --   -0.01773   0.03568   0.08295   0.21107   0.23313
 Alpha virt. eigenvalues --    0.39298   0.43092   0.49782   0.57916   0.61181
 Alpha virt. eigenvalues --    0.67810   0.76823   0.81783   0.85968   0.89972

 Mulliken charges:
               1
     1  O   -0.384888
     2  C    0.436356
     3  O   -0.412411
     4  H    0.264619
     5  H    0.096323
 Sum of Mulliken charges =   0.00000

 Dipole moment (field-independent basis, Debye):
    X=             -1.9895    Y=              0.2959    Z=              0.0868  Tot=              2.0133
 Quadrupole moment (field-independent basis, Debye-Ang):
   XX=            -20.9968   YY=            -13.3647   ZZ=            -16.9815
   XY=              3.6582   XZ=             -0.0875   YZ=             -0.0739

 Normal termination of Gaussian 16 at Fri Sep 22 16:30:28 2023.
