 Gaussian 16, Revision A.03,
 Gaussian 16:  ES64L-G16RevA.03 25-Dec-2016

 ----------------------------------------------------------------------
 #p b3lyp/gen scrf=(cpcm,solvent=toluene) pop=hirshfeld empiricaldisper
 sion=gd3bj
 ----------------------------------------------------------------------

 --------------------
 tmpdir/M2_ref_17.gjf
 --------------------
 Symbolic Z-matrix:
 Charge =  0 Multiplicity = 1

                         Standard orientation:
 ---------------------------------------------------------------------
 Center     Atomic      Atomic             Coordinates (Angstroms)
 Number     Number       Type             X           Y           Z
 ---------------------------------------------------------------------
      1          6           0        0.547189   -0.013705   -0.000663
      2          1           0        1.086810    0.931703    0.001324
      3          8           0       -0.679013    0.004689    0.000149
      4          1           0        1.062164   -0.886981    0.001459
 ---------------------------------------------------------------------

 SCF Done:  E(RB3LYP) =  -114.481736514     A.U. after    9 cycles

 The electronic state is 1-A.
 Alpha  occ. eigenvalues --  -19.13928 -10.27135  -1.05762  -0.65397  -0.51154
 Alpha  occ. eigenvalues --   -0.45279  -0.39922  -0.27499
 Alpha virt. eigenvalues --   -0.05639   0.06587   0.11857   0.17951   0.40388
 Alpha virt. eigenvalues --    0.47713   0.52712   0.59774   0.62506   0.72852
 Alpha virt. eigenvalues --    0.78456   0.87629   0.97937   1.32107   1.50147

 Mulliken charges:
               1
     1  C    0.228268
     2  H    0.079417
     3  O   -0.374193
     4  H    0.066507
 Sum of Mulliken charges =  -0.00000

 Dipole moment (field-independent basis, Debye):
    X=              2.8137    Y=             -0.1017    Z=              0.0003  Tot=              2.8155
 Quadrupole moment (field-independent basis, Debye-Ang):
   XX=            -12.0237   YY=            -11.4699   ZZ=            -11.5254
   XY=             -0.0884   XZ=              0.0014   YZ=              0.0002

 Normal termination of Gaussian 16 at Fri Sep 22 16:28:30 2023.
