 Gaussian 16, Revision A.03,
 Gaussian 16:  ES64L-G16RevA.03 25-Dec-2016

 ----------------------------------------------------------------------
 #p b3lyp/gen scrf=(cpcm,solvent=toluene) pop=hirshfeld empiricaldisper
 sion=gd3bj
 ----------------------------------------------------------------------

 --------------------
 tmpdir/M2_ref_68.gjf
 --------------------
 Symbolic Z-matrix:
 Charge =  0 Multiplicity = 1

                         Standard orientation:
 ---------------------------------------------------------------------
 Center     Atomic      Atomic             Coordinates (Angstroms)
 Number     Number       Type             X           Y           Z
 ---------------------------------------------------------------------
      1          6           0       -0.006569   -0.009384   -0.005279
      2          1           0        0.259559    0.746605   -0.755017
      3          1           0        0.825894   -0.751637    0.038797
      4          1           0       -0.995687   -0.454553   -0.213027
      5          1           0       -0.050355    0.515892    0.960921
 ---------------------------------------------------------------------

 SCF Done:  E(RB3LYP) =  -40.5131469878     A.U. after    7 cycles

 The electronic state is 1-A.
 Alpha  occ. eigenvalues --  -10.16603  -0.69144  -0.39923  -0.38834  -0.38667
 Alpha virt. eigenvalues --    0.05555   0.12277   0.12419   0.12538   0.36987
 Alpha virt. eigenvalues --    0.37249   0.38829   0.62805   0.63340   0.63692
 Alpha virt. eigenvalues --    0.66963   0.96080   1.28678   1.29370   1.82347

 Mulliken charges:
               1
     1  C   -0.359590
     2  H    0.086407
     3  H    0.092627
     4  H    0.096111
     5  H    0.084445
 Sum of Mulliken charges =  -0.00000

 Dipole moment (field-independent basis, Debye):
    X=              0.0184    Y=              0.0551    Z=              0.0206  Tot=              0.0616
 Quadrupole moment (field-independent basis, Debye-Ang):
   XX=             -8.2874   YY=             -8.5288   ZZ=             -8.6148
   XY=              0.0245   XZ=              0.0037   YZ=             -0.0052

 Normal termination of Gaussian 16 at Fri Sep 22 16:28:06 2023.
