 Gaussian 16, Revision A.03,
 Gaussian 16:  ES64L-G16RevA.03 25-Dec-2016

 ----------------------------------------------------------------------
 #p b3lyp/gen scrf=(cpcm,solvent=toluene) pop=hirshfeld empiricaldisper
 sion=gd3bj
 ----------------------------------------------------------------------

 ---------------------
 tmpdir/M2_ref_233.gjf
 ---------------------
 Symbolic Z-matrix:
 Charge =  0 Multiplicity = 1

                         Standard orientation:
 ---------------------------------------------------------------------
 Center     Atomic      Atomic             Coordinates (Angstroms)
 Number     Number       Type             X           Y           Z
 ---------------------------------------------------------------------
      1          6           0        1.142256    0.250405   -0.002144
      2          7           0        0.035634    1.079879   -0.018860
      3          6           0       -1.128362    0.299206   -0.008572
      4          8           0        0.734759   -0.910883    0.019354
      5          1           0        2.156254    0.566208   -0.114885
      6          1           0        0.085574    2.089225    0.190319
      7          8           0       -0.789106   -0.863065    0.000592
      8          1           0       -2.139858    0.679338   -0.038681
 ---------------------------------------------------------------------

 SCF Done:  E(RB3LYP) =  -282.915180064     A.U. after   20 cycles

 The electronic state is 1-A.
 Alpha  occ. eigenvalues --  -19.10877 -19.09828 -14.37958 -10.28679 -10.27216
 Alpha  occ. eigenvalues --   -1.16006  -1.01099  -0.94087  -0.66984  -0.64007
 Alpha  occ. eigenvalues --   -0.60147  -0.50445  -0.48861  -0.47921  -0.39156
 Alpha  occ. eigenvalues --   -0.36795  -0.35552  -0.32365  -0.08871
 Alpha virt. eigenvalues --   -0.02507   0.00373   0.04022   0.07785   0.08674
 Alpha virt. eigenvalues --    0.18158   0.21466   0.22260   0.29129   0.38504
 Alpha virt. eigenvalues --    0.43234   0.43662   0.45174   0.48970   0.58404

 Mulliken charges:
               1
     1  C    0.348537
     2  N   -0.432945
     3  C    0.373157
     4  O   -0.328713
     5  H    0.053454
     6  H    0.212435
     7  O   -0.294080
     8  H    0.068155
 Sum of Mulliken charges =  -0.00000

 Dipole moment (field-independent basis, Debye):
    X=             -0.2251    Y=              5.2951    Z=              0.3927  Tot=              5.3144
 Quadrupole moment (field-independent basis, Debye-Ang):
   XX=            -26.1887   YY=            -27.4868   ZZ=            -28.8891
   XY=              0.0660   XZ=             -0.0149   YZ=              1.3053

 Normal termination of Gaussian 16 at Fri Sep 22 16:30:52 2023.
