 Gaussian 16, Revision A.03,
 Gaussian 16:  ES64L-G16RevA.03 25-Dec-2016

 ----------------------------------------------------------------------
 #p b3lyp/gen scrf=(cpcm,solvent=toluene) pop=hirshfeld empiricaldisper
 sion=gd3bj
 ----------------------------------------------------------------------

 ---------------------
 tmpdir/M2_ref_159.gjf
 ---------------------
 Symbolic Z-matrix:
 Charge =  0 Multiplicity = 1

                         Standard orientation:
 ---------------------------------------------------------------------
 Center     Atomic      Atomic             Coordinates (Angstroms)
 Number     Number       Type             X           Y           Z
 ---------------------------------------------------------------------
      1          7           0        1.229818   -0.282015    0.000221
      2          6           0        0.016301    0.593026    0.079863
      3          6           0       -1.243721   -0.270185   -0.040904
      4          1           0        1.423299   -0.889972    0.681514
      5          1           0        1.816628   -0.073786   -0.824357
      6          1           0        0.136262    1.242851   -0.833153
      7          1           0        0.046755    1.207678    1.000248
      8          1           0       -1.397733   -0.880188    0.853052
      9          1           0       -2.124812    0.360792   -0.202197
     10          1           0       -1.144607   -0.930317   -0.910409
 ---------------------------------------------------------------------

 SCF Done:  E(RB3LYP) =  -135.140877202     A.U. after   10 cycles

 The electronic state is 1-A.
 Alpha  occ. eigenvalues --  -14.27316 -10.20137 -10.15902  -0.86173  -0.72491
 Alpha  occ. eigenvalues --   -0.60343  -0.51116  -0.44135  -0.42703  -0.37898
 Alpha  occ. eigenvalues --   -0.35956  -0.34402  -0.21265
 Alpha virt. eigenvalues --    0.04421   0.07859   0.09106   0.09704   0.12513
 Alpha virt. eigenvalues --    0.13958   0.15439   0.20359   0.21775   0.39196
 Alpha virt. eigenvalues --    0.40029   0.45100   0.45814   0.53259   0.53949

 Mulliken charges:
               1
     1  N   -0.486086
     2  C   -0.038959
     3  C   -0.191935
     4  H    0.131315
     5  H    0.180147
     6  H    0.085487
     7  H    0.088249
     8  H    0.083581
     9  H    0.073449
    10  H    0.074752
 Sum of Mulliken charges =  -0.00000

 Dipole moment (field-independent basis, Debye):
    X=              0.2251    Y=              0.1576    Z=             -0.1009  Tot=              0.2927
 Quadrupole moment (field-independent basis, Debye-Ang):
   XX=            -20.9715   YY=            -21.2638   ZZ=            -19.5064
   XY=             -0.7904   XZ=             -0.9410   YZ=             -1.4035

 Normal termination of Gaussian 16 at Fri Sep 22 16:29:53 2023.
