 Gaussian 16, Revision A.03,
 Gaussian 16:  ES64L-G16RevA.03 25-Dec-2016

 ----------------------------------------------------------------------
 #p b3lyp/gen scrf=(cpcm,solvent=toluene) pop=hirshfeld empiricaldisper
 sion=gd3bj
 ----------------------------------------------------------------------

 ---------------------
 tmpdir/M2_ref_323.gjf
 ---------------------
 Symbolic Z-matrix:
 Charge =  0 Multiplicity = 1

                         Standard orientation:
 ---------------------------------------------------------------------
 Center     Atomic      Atomic             Coordinates (Angstroms)
 Number     Number       Type             X           Y           Z
 ---------------------------------------------------------------------
      1          6           0       -0.710145    0.474053   -0.000387
      2          6           0        0.707465    0.475189   -0.000629
      3          6           0       -1.402774   -0.712824   -0.000111
      4          1           0       -1.249491    1.419112    0.003560
      5          6           0        1.406516   -0.710047    0.000562
      6          1           0        1.243119    1.422659   -0.000169
 ---------------------------------------------------------------------

 SCF Done:  E(RB3LYP) =  -153.297677555     A.U. after   12 cycles

 The electronic state is 1-A.
 Alpha  occ. eigenvalues --  -10.27007 -10.26983 -10.22419 -10.22371  -0.86165
 Alpha  occ. eigenvalues --   -0.74027  -0.61695  -0.50587  -0.49625  -0.37300
 Alpha  occ. eigenvalues --   -0.33217  -0.31361  -0.25969
 Alpha virt. eigenvalues --   -0.14209  -0.11631  -0.07561   0.04934   0.05696
 Alpha virt. eigenvalues --    0.09560   0.20477   0.26684   0.30947   0.36052
 Alpha virt. eigenvalues --    0.39026   0.42946   0.44123   0.44329   0.45984

 Mulliken charges:
               1
     1  C   -0.161732
     2  C   -0.163722
     3  C   -0.001635
     4  H    0.164017
     5  C   -0.001280
     6  H    0.164352
 Sum of Mulliken charges =  -0.00000

 Dipole moment (field-independent basis, Debye):
    X=             -0.0141    Y=              4.1479    Z=              0.0042  Tot=              4.1479
 Quadrupole moment (field-independent basis, Debye-Ang):
   XX=            -25.8353   YY=            -24.2160   ZZ=            -26.5413
   XY=             -0.0027   XZ=             -0.0121   YZ=              0.0093

 Normal termination of Gaussian 16 at Fri Sep 22 16:31:58 2023.
