 Gaussian 16, Revision A.03,
 Gaussian 16:  ES64L-G16RevA.03 25-Dec-2016

 ----------------------------------------------------------------------
 #p b3lyp/gen scrf=(cpcm,solvent=toluene) pop=hirshfeld empiricaldisper
 sion=gd3bj
 ----------------------------------------------------------------------

 --------------------
 tmpdir/M2_ref_60.gjf
 --------------------
 Symbolic Z-matrix:
 Charge =  0 Multiplicity = 1

                         Standard orientation:
 ---------------------------------------------------------------------
 Center     Atomic      Atomic             Coordinates (Angstroms)
 Number     Number       Type             X           Y           Z
 ---------------------------------------------------------------------
      1          7           0        1.202288   -0.241503   -0.011417
      2          6           0        0.037229    0.629496   -0.045600
      3          6           0       -1.210261   -0.272457    0.042868
      4          1           0        1.835241   -0.323629    0.683482
      5          1           0        1.129810   -1.062909   -0.624380
      6          1           0        0.085354    1.276744    0.830333
      7          1           0        0.041250    1.236831   -0.984802
      8          1           0       -2.159816    0.251296   -0.166223
      9          1           0       -1.092343   -1.094186   -0.679786
     10          1           0       -1.217315   -0.735860    1.037683
 ---------------------------------------------------------------------

 SCF Done:  E(RB3LYP) =  -135.145774796     A.U. after   10 cycles

 The electronic state is 1-A.
 Alpha  occ. eigenvalues --  -14.27462 -10.19966 -10.16270  -0.87372  -0.72427
 Alpha  occ. eigenvalues --   -0.60946  -0.50821  -0.45063  -0.41920  -0.38551
 Alpha  occ. eigenvalues --   -0.36508  -0.34718  -0.21391
 Alpha virt. eigenvalues --    0.04948   0.08173   0.08555   0.09659   0.12165
 Alpha virt. eigenvalues --    0.14116   0.15833   0.20694   0.22486   0.38418
 Alpha virt. eigenvalues --    0.40352   0.45075   0.46838   0.51301   0.57022

 Mulliken charges:
               1
     1  N   -0.479140
     2  C    0.001912
     3  C   -0.222110
     4  H    0.132026
     5  H    0.160581
     6  H    0.089887
     7  H    0.085480
     8  H    0.078999
     9  H    0.075540
    10  H    0.076825
 Sum of Mulliken charges =  -0.00000

 Dipole moment (field-independent basis, Debye):
    X=             -0.0816    Y=             -0.4494    Z=              0.4017  Tot=              0.6082
 Quadrupole moment (field-independent basis, Debye-Ang):
   XX=            -21.8319   YY=            -20.3669   ZZ=            -20.2130
   XY=             -1.5799   XZ=              1.6088   YZ=              1.0144

 Normal termination of Gaussian 16 at Fri Sep 22 16:28:20 2023.
