 Gaussian 16, Revision A.03,
 Gaussian 16:  ES64L-G16RevA.03 25-Dec-2016

 ----------------------------------------------------------------------
 #p b3lyp/gen scrf=(cpcm,solvent=toluene) pop=hirshfeld empiricaldisper
 sion=gd3bj
 ----------------------------------------------------------------------

 ---------------------
 tmpdir/M2_ref_274.gjf
 ---------------------
 Symbolic Z-matrix:
 Charge =  0 Multiplicity = 1

                         Standard orientation:
 ---------------------------------------------------------------------
 Center     Atomic      Atomic             Coordinates (Angstroms)
 Number     Number       Type             X           Y           Z
 ---------------------------------------------------------------------
      1          8           0        0.745895   -0.115625    0.008692
      2          6           0       -0.690552    0.016730   -0.005017
      3          1           0       -1.021933    0.244729    1.016647
      4          1           0        1.263959    0.651094   -0.046743
      5          1           0       -0.970076    0.862027   -0.641564
      6          1           0       -1.095802   -0.933235   -0.367774
 ---------------------------------------------------------------------

 SCF Done:  E(RB3LYP) =  -115.700825391     A.U. after    9 cycles

 The electronic state is 1-A.
 Alpha  occ. eigenvalues --  -19.10433 -10.22051  -1.01126  -0.69049  -0.50759
 Alpha  occ. eigenvalues --   -0.43803  -0.43124  -0.32440  -0.27122
 Alpha virt. eigenvalues --    0.04744   0.07756   0.11753   0.11985   0.16970
 Alpha virt. eigenvalues --    0.41465   0.42728   0.44599   0.58842   0.60914
 Alpha virt. eigenvalues --    0.63672   0.65930   0.86631   0.86766   0.90595

 Mulliken charges:
               1
     1  O   -0.510387
     2  C    0.052389
     3  H    0.076136
     4  H    0.205876
     5  H    0.077571
     6  H    0.098415
 Sum of Mulliken charges =  -0.00000

 Dipole moment (field-independent basis, Debye):
    X=             -0.8811    Y=              1.6104    Z=             -0.1596  Tot=              1.8426
 Quadrupole moment (field-independent basis, Debye-Ang):
   XX=            -12.1711   YY=            -12.3465   ZZ=            -13.6870
   XY=              2.3096   XZ=             -0.0949   YZ=              0.0047

 Normal termination of Gaussian 16 at Fri Sep 22 16:30:18 2023.
