 Gaussian 16, Revision A.03,
 Gaussian 16:  ES64L-G16RevA.03 25-Dec-2016

 ----------------------------------------------------------------------
 #p b3lyp/gen scrf=(cpcm,solvent=toluene) pop=hirshfeld empiricaldisper
 sion=gd3bj
 ----------------------------------------------------------------------

 ---------------------
 tmpdir/M2_ref_235.gjf
 ---------------------
 Symbolic Z-matrix:
 Charge =  0 Multiplicity = 1

                         Standard orientation:
 ---------------------------------------------------------------------
 Center     Atomic      Atomic             Coordinates (Angstroms)
 Number     Number       Type             X           Y           Z
 ---------------------------------------------------------------------
      1          6           0       -0.771911    0.492437   -0.035429
      2          7           0        0.350316   -0.343040   -0.119267
      3          6           0        1.751421    0.078442    0.058534
      4          8           0       -1.748412   -0.216039    0.067335
      5          1           0       -0.756654    1.571981   -0.089137
      6          1           0        0.065882   -1.267182   -0.065467
      7          1           0        2.109642    0.801781   -0.715695
      8          1           0        1.887403    0.423636    1.110023
      9          1           0        2.351751   -0.825898   -0.082165
 ---------------------------------------------------------------------

 SCF Done:  E(RB3LYP) =  -209.155463300     A.U. after   11 cycles

 The electronic state is 1-A.
 Alpha  occ. eigenvalues --  -19.09043 -14.32834 -10.28019 -10.21817  -1.05688
 Alpha  occ. eigenvalues --   -0.90537  -0.70118  -0.62735  -0.50866  -0.48705
 Alpha  occ. eigenvalues --   -0.45389  -0.42217  -0.39629  -0.39355  -0.26520
 Alpha  occ. eigenvalues --   -0.24792
 Alpha virt. eigenvalues --   -0.00158   0.04818   0.06853   0.09132   0.11481
 Alpha virt. eigenvalues --    0.12456   0.16731   0.21111   0.27807   0.37176
 Alpha virt. eigenvalues --    0.40183   0.41902   0.46262   0.51647   0.56771

 Mulliken charges:
               1
     1  C    0.367317
     2  N   -0.456125
     3  C   -0.014080
     4  O   -0.447663
     5  H    0.083002
     6  H    0.160696
     7  H    0.109755
     8  H    0.102998
     9  H    0.094101
 Sum of Mulliken charges =   0.00000

 Dipole moment (field-independent basis, Debye):
    X=              3.8390    Y=              1.1373    Z=              0.0180  Tot=              4.0039
 Quadrupole moment (field-independent basis, Debye-Ang):
   XX=            -29.4920   YY=            -21.0115   ZZ=            -24.9242
   XY=             -2.2554   XZ=              0.4060   YZ=             -0.1631

 Normal termination of Gaussian 16 at Fri Sep 22 16:29:43 2023.
