 Gaussian 16, Revision A.03,
 Gaussian 16:  ES64L-G16RevA.03 25-Dec-2016

 ----------------------------------------------------------------------
 #p b3lyp/gen scrf=(cpcm,solvent=toluene) pop=hirshfeld empiricaldisper
 sion=gd3bj
 ----------------------------------------------------------------------

 ---------------------
 tmpdir/M2_ref_240.gjf
 ---------------------
 Symbolic Z-matrix:
 Charge =  0 Multiplicity = 1

                         Standard orientation:
 ---------------------------------------------------------------------
 Center     Atomic      Atomic             Coordinates (Angstroms)
 Number     Number       Type             X           Y           Z
 ---------------------------------------------------------------------
      1          6           0       -1.577129   -0.412414    0.091642
      2          6           0       -0.583708    0.545904   -0.118281
      3          6           0        0.845086    0.419684    0.227198
      4          1           0       -2.432244   -0.078013   -0.377750
      5          1           0       -1.535076   -1.284593    0.689671
      6          1           0       -1.024259    1.352299   -0.699201
      7          8           0        1.444107   -0.545631   -0.211159
      8          1           0        1.333230    1.056309    0.873195
 ---------------------------------------------------------------------

 SCF Done:  E(RB3LYP) =  -191.860776833     A.U. after   11 cycles

 The electronic state is 1-A.
 Alpha  occ. eigenvalues --  -19.13105 -10.27397 -10.20304 -10.19817  -1.06292
 Alpha  occ. eigenvalues --   -0.79311  -0.67116  -0.57506  -0.52326  -0.45904
 Alpha  occ. eigenvalues --   -0.44447  -0.40950  -0.38213  -0.29054  -0.26765
 Alpha virt. eigenvalues --   -0.06495  -0.01075   0.06225   0.08745   0.09135
 Alpha virt. eigenvalues --    0.14063   0.22548   0.23499   0.28353   0.40041
 Alpha virt. eigenvalues --    0.42002   0.45245   0.46421   0.51563   0.52449

 Mulliken charges:
               1
     1  C   -0.061033
     2  C   -0.271293
     3  C    0.324561
     4  H    0.091839
     5  H    0.100390
     6  H    0.115060
     7  O   -0.357617
     8  H    0.058093
 Sum of Mulliken charges =  -0.00000

 Dipole moment (field-independent basis, Debye):
    X=             -2.0348    Y=              1.9768    Z=              0.8981  Tot=              2.9756
 Quadrupole moment (field-independent basis, Debye-Ang):
   XX=            -24.9522   YY=            -23.1136   ZZ=            -24.0408
   XY=              3.1663   XZ=              1.9822   YZ=             -1.5581

 Normal termination of Gaussian 16 at Fri Sep 22 16:30:39 2023.
