 Gaussian 16, Revision A.03,
 Gaussian 16:  ES64L-G16RevA.03 25-Dec-2016

 ----------------------------------------------------------------------
 #p b3lyp/gen scrf=(cpcm,solvent=toluene) pop=hirshfeld empiricaldisper
 sion=gd3bj
 ----------------------------------------------------------------------

 ---------------------
 tmpdir/M2_ref_300.gjf
 ---------------------
 Symbolic Z-matrix:
 Charge =  0 Multiplicity = 1

                         Standard orientation:
 ---------------------------------------------------------------------
 Center     Atomic      Atomic             Coordinates (Angstroms)
 Number     Number       Type             X           Y           Z
 ---------------------------------------------------------------------
      1          6           0       -0.539863   -0.010538   -0.003479
      2          1           0       -1.088781    0.928552    0.007012
      3          1           0       -1.056114   -0.901746    0.007497
      4          8           0        0.673009    0.004552    0.000796
 ---------------------------------------------------------------------

 SCF Done:  E(RB3LYP) =  -114.484086089     A.U. after    9 cycles

 The electronic state is 1-A.
 Alpha  occ. eigenvalues --  -19.13884 -10.27086  -1.06472  -0.64949  -0.51166
 Alpha  occ. eigenvalues --   -0.45473  -0.40339  -0.27424
 Alpha virt. eigenvalues --   -0.05264   0.06526   0.11877   0.18146   0.40314
 Alpha virt. eigenvalues --    0.47551   0.52762   0.60698   0.62632   0.72650
 Alpha virt. eigenvalues --    0.78041   0.87664   0.98011   1.32107   1.50578

 Mulliken charges:
               1
     1  C    0.219337
     2  H    0.076594
     3  H    0.067392
     4  O   -0.363323
 Sum of Mulliken charges =  -0.00000

 Dipole moment (field-independent basis, Debye):
    X=             -2.7465    Y=             -0.0841    Z=              0.0015  Tot=              2.7478
 Quadrupole moment (field-independent basis, Debye-Ang):
   XX=            -12.0643   YY=            -11.4869   ZZ=            -11.5078
   XY=              0.0602   XZ=             -0.0071   YZ=              0.0005

 Normal termination of Gaussian 16 at Fri Sep 22 16:30:37 2023.
