 Gaussian 16, Revision A.03,
 Gaussian 16:  ES64L-G16RevA.03 25-Dec-2016

 ----------------------------------------------------------------------
 #p b3lyp/gen scrf=(cpcm,solvent=toluene) pop=hirshfeld empiricaldisper
 sion=gd3bj
 ----------------------------------------------------------------------

 -------------------
 tmpdir/M2_ref_7.gjf
 -------------------
 Symbolic Z-matrix:
 Charge =  0 Multiplicity = 1

                         Standard orientation:
 ---------------------------------------------------------------------
 Center     Atomic      Atomic             Coordinates (Angstroms)
 Number     Number       Type             X           Y           Z
 ---------------------------------------------------------------------
      1          6           0       -0.111321    0.425450   -0.002777
      2          8           0        1.031440   -0.268905   -0.006957
      3          8           0       -1.164783   -0.254523    0.003896
      4          1           0       -0.170001    1.437472   -0.006498
      5          1           0        1.904676    0.197249    0.047645
 ---------------------------------------------------------------------

 SCF Done:  E(RB3LYP) =  -189.718306657     A.U. after   10 cycles

 The electronic state is 1-A.
 Alpha  occ. eigenvalues --  -19.18848 -19.11801 -10.32156  -1.11491  -1.01309
 Alpha  occ. eigenvalues --   -0.66707  -0.60531  -0.45668  -0.45108  -0.39890
 Alpha  occ. eigenvalues --   -0.32697  -0.28922
 Alpha virt. eigenvalues --   -0.02516   0.02331   0.08600   0.21180   0.23274
 Alpha virt. eigenvalues --    0.39361   0.42639   0.49345   0.55606   0.61856
 Alpha virt. eigenvalues --    0.68708   0.79586   0.81669   0.85627   0.89847

 Mulliken charges:
               1
     1  C    0.450580
     2  O   -0.352825
     3  O   -0.432953
     4  H    0.066623
     5  H    0.268575
 Sum of Mulliken charges =  -0.00000

 Dipole moment (field-independent basis, Debye):
    X=              3.8659    Y=              3.2493    Z=              0.0926  Tot=              5.0509
 Quadrupole moment (field-independent basis, Debye-Ang):
   XX=            -15.8426   YY=            -16.2410   ZZ=            -16.9872
   XY=              0.6977   XZ=              0.2357   YZ=              0.0200

 Normal termination of Gaussian 16 at Fri Sep 22 16:28:47 2023.
