 Gaussian 16, Revision A.03,
 Gaussian 16:  ES64L-G16RevA.03 25-Dec-2016

 ----------------------------------------------------------------------
 #p b3lyp/gen scrf=(cpcm,solvent=toluene) pop=hirshfeld empiricaldisper
 sion=gd3bj
 ----------------------------------------------------------------------

 ---------------------
 tmpdir/M2_ref_105.gjf
 ---------------------
 Symbolic Z-matrix:
 Charge =  0 Multiplicity = 1

                         Standard orientation:
 ---------------------------------------------------------------------
 Center     Atomic      Atomic             Coordinates (Angstroms)
 Number     Number       Type             X           Y           Z
 ---------------------------------------------------------------------
      1          7           0       -0.725480   -0.008516   -0.008725
      2          6           0        0.718157   -0.000032    0.007408
      3          1           0        1.051718   -0.842071   -0.600924
      4          1           0       -1.258754   -0.794839   -0.023168
      5          1           0       -1.225374    0.884292    0.057950
      6          1           0        1.071879   -0.130714    1.048408
      7          1           0        1.129955    0.943137   -0.465635
 ---------------------------------------------------------------------

 SCF Done:  E(RB3LYP) =  -95.8330671796     A.U. after    9 cycles

 The electronic state is 1-A.
 Alpha  occ. eigenvalues --  -14.27198 -10.19507  -0.86341  -0.65752  -0.49856
 Alpha  occ. eigenvalues --   -0.43166  -0.41737  -0.36906  -0.20762
 Alpha virt. eigenvalues --    0.05192   0.08416   0.09542   0.12357   0.15495
 Alpha virt. eigenvalues --    0.20976   0.40152   0.45048   0.46252   0.57297
 Alpha virt. eigenvalues --    0.59017   0.62692   0.65163   0.69974   0.71130

 Mulliken charges:
               1
     1  N   -0.517554
     2  C   -0.029114
     3  H    0.078534
     4  H    0.138534
     5  H    0.166986
     6  H    0.073207
     7  H    0.089406
 Sum of Mulliken charges =  -0.00000

 Dipole moment (field-independent basis, Debye):
    X=             -0.1994    Y=              0.0547    Z=             -0.0028  Tot=              0.2068
 Quadrupole moment (field-independent basis, Debye-Ang):
   XX=            -12.9843   YY=            -12.3106   ZZ=            -15.6346
   XY=              0.0435   XZ=             -0.3425   YZ=              0.1012

 Normal termination of Gaussian 16 at Fri Sep 22 16:28:05 2023.
