 Gaussian 16, Revision A.03,
 Gaussian 16:  ES64L-G16RevA.03 25-Dec-2016

 ----------------------------------------------------------------------
 #p b3lyp/gen scrf=(cpcm,solvent=toluene) pop=hirshfeld empiricaldisper
 sion=gd3bj
 ----------------------------------------------------------------------

 ---------------------
 tmpdir/M2_ref_320.gjf
 ---------------------
 Symbolic Z-matrix:
 Charge =  0 Multiplicity = 1

                         Standard orientation:
 ---------------------------------------------------------------------
 Center     Atomic      Atomic             Coordinates (Angstroms)
 Number     Number       Type             X           Y           Z
 ---------------------------------------------------------------------
      1          6           0       -1.442964   -0.475859    0.000457
      2          6           0       -0.588050    0.671576   -0.007361
      3          6           0        0.817651    0.469746    0.002309
      4          1           0       -1.021735   -1.408047    0.002687
      5          1           0       -2.463494   -0.344173    0.019136
      6          1           0       -1.015423    1.605501   -0.002225
      7          8           0        1.288638   -0.648046   -0.001745
      8          1           0        1.471722    1.338311    0.021932
 ---------------------------------------------------------------------

 SCF Done:  E(RB3LYP) =  -191.872131332     A.U. after   11 cycles

 The electronic state is 1-A.
 Alpha  occ. eigenvalues --  -19.11891 -10.26374 -10.20968 -10.19671  -1.05700
 Alpha  occ. eigenvalues --   -0.79621  -0.67910  -0.56171  -0.52965  -0.45830
 Alpha  occ. eigenvalues --   -0.43032  -0.41114  -0.40677  -0.28302  -0.26886
 Alpha virt. eigenvalues --   -0.09364   0.04888   0.06393   0.08303   0.11062
 Alpha virt. eigenvalues --    0.13557   0.21711   0.24566   0.28878   0.40437
 Alpha virt. eigenvalues --    0.42143   0.46319   0.46544   0.48167   0.51393

 Mulliken charges:
               1
     1  C    0.013301
     2  C   -0.251434
     3  C    0.303178
     4  H    0.093965
     5  H    0.102461
     6  H    0.059756
     7  O   -0.376365
     8  H    0.055139
 Sum of Mulliken charges =   0.00000

 Dipole moment (field-independent basis, Debye):
    X=             -2.3913    Y=              2.0037    Z=              0.0362  Tot=              3.1200
 Quadrupole moment (field-independent basis, Debye-Ang):
   XX=            -23.7093   YY=            -22.5425   ZZ=            -25.0129
   XY=              3.4507   XZ=             -0.0352   YZ=             -0.0005

 Normal termination of Gaussian 16 at Fri Sep 22 16:31:19 2023.
