 Gaussian 16, Revision A.03,
 Gaussian 16:  ES64L-G16RevA.03 25-Dec-2016

 ----------------------------------------------------------------------
 #p b3lyp/gen scrf=(cpcm,solvent=toluene) pop=hirshfeld empiricaldisper
 sion=gd3bj
 ----------------------------------------------------------------------

 ---------------------
 tmpdir/M2_ref_193.gjf
 ---------------------
 Symbolic Z-matrix:
 Charge =  0 Multiplicity = 1

                         Standard orientation:
 ---------------------------------------------------------------------
 Center     Atomic      Atomic             Coordinates (Angstroms)
 Number     Number       Type             X           Y           Z
 ---------------------------------------------------------------------
      1          6           0        0.002041    0.004578   -0.002654
      2          1           0       -0.379326   -0.696958   -0.752903
      3          1           0        1.082745    0.194000   -0.164670
      4          1           0       -0.577569    0.930247   -0.049249
      5          1           0       -0.138095   -0.454757    0.982744
 ---------------------------------------------------------------------

 SCF Done:  E(RB3LYP) =  -40.5139231402     A.U. after    7 cycles

 The electronic state is 1-A.
 Alpha  occ. eigenvalues --  -10.16357  -0.69305  -0.39524  -0.39257  -0.38959
 Alpha virt. eigenvalues --    0.05663   0.12410   0.12588   0.12623   0.37273
 Alpha virt. eigenvalues --    0.37583   0.38131   0.63309   0.63763   0.64003
 Alpha virt. eigenvalues --    0.67578   0.96115   1.28834   1.29043   1.84979

 Mulliken charges:
               1
     1  C   -0.353425
     2  H    0.086835
     3  H    0.092125
     4  H    0.089046
     5  H    0.085419
 Sum of Mulliken charges =   0.00000

 Dipole moment (field-independent basis, Debye):
    X=             -0.0233    Y=             -0.0198    Z=              0.0132  Tot=              0.0333
 Quadrupole moment (field-independent basis, Debye-Ang):
   XX=             -8.3749   YY=             -8.4629   ZZ=             -8.5331
   XY=             -0.0117   XZ=              0.0042   YZ=              0.0028

 Normal termination of Gaussian 16 at Fri Sep 22 16:29:33 2023.
