 Gaussian 16, Revision A.03,
 Gaussian 16:  ES64L-G16RevA.03 25-Dec-2016

 ----------------------------------------------------------------------
 #p b3lyp/gen scrf=(cpcm,solvent=toluene) pop=hirshfeld empiricaldisper
 sion=gd3bj
 ----------------------------------------------------------------------

 -------------------
 tmpdir/M2_ref_9.gjf
 -------------------
 Symbolic Z-matrix:
 Charge =  0 Multiplicity = 1

                         Standard orientation:
 ---------------------------------------------------------------------
 Center     Atomic      Atomic             Coordinates (Angstroms)
 Number     Number       Type             X           Y           Z
 ---------------------------------------------------------------------
      1          6           0       -1.243133   -0.202421    0.008784
      2          6           0        0.004534    0.480179   -0.003561
      3          8           0        1.093958   -0.295191   -0.005798
      4          1           0       -2.108920    0.334966   -0.002172
      5          1           0       -1.229264   -1.240430   -0.016719
      6          1           0        0.019352    1.493765   -0.011820
      7          1           0        1.998759    0.106680    0.045756
 ---------------------------------------------------------------------

 SCF Done:  E(RB3LYP) =  -153.771336286     A.U. after   10 cycles

 The electronic state is 1-A.
 Alpha  occ. eigenvalues --  -19.15810 -10.23946 -10.15249  -1.06823  -0.74582
 Alpha  occ. eigenvalues --   -0.61099  -0.56582  -0.43971  -0.41414  -0.40082
 Alpha  occ. eigenvalues --   -0.35792  -0.22259
 Alpha virt. eigenvalues --    0.00625   0.03209   0.08914   0.10584   0.13939
 Alpha virt. eigenvalues --    0.21949   0.27018   0.42551   0.43798   0.45464
 Alpha virt. eigenvalues --    0.50672   0.52044   0.54630   0.56860   0.66669

 Mulliken charges:
               1
     1  C   -0.196311
     2  C    0.109119
     3  O   -0.388592
     4  H    0.075377
     5  H    0.076639
     6  H    0.060371
     7  H    0.263398
 Sum of Mulliken charges =  -0.00000

 Dipole moment (field-independent basis, Debye):
    X=              1.8199    Y=              1.7825    Z=              0.0483  Tot=              2.5478
 Quadrupole moment (field-independent basis, Debye-Ang):
   XX=            -13.8432   YY=            -17.5972   ZZ=            -21.1215
   XY=              1.5835   XZ=              0.2768   YZ=              0.0241

 Normal termination of Gaussian 16 at Fri Sep 22 16:27:27 2023.
