 Gaussian 16, Revision A.03,
 Gaussian 16:  ES64L-G16RevA.03 25-Dec-2016

 ----------------------------------------------------------------------
 #p b3lyp/gen scrf=(cpcm,solvent=toluene) pop=hirshfeld empiricaldisper
 sion=gd3bj
 ----------------------------------------------------------------------

 ---------------------
 tmpdir/M2_ref_110.gjf
 ---------------------
 Symbolic Z-matrix:
 Charge =  0 Multiplicity = 1

                         Standard orientation:
 ---------------------------------------------------------------------
 Center     Atomic      Atomic             Coordinates (Angstroms)
 Number     Number       Type             X           Y           Z
 ---------------------------------------------------------------------
      1          6           0        0.864430    0.360210    0.318311
      2          6           0       -0.515512    0.628503   -0.284344
      3          6           0       -1.556725   -0.465634    0.124310
      4          8           0        1.604163   -0.524224   -0.182594
      5          1           0        1.184800    0.891255    1.162832
      6          1           0       -0.421523    0.708056   -1.412449
      7          1           0       -0.892001    1.587180    0.075593
      8          1           0       -1.679047   -0.442988    1.229733
      9          1           0       -1.252602   -1.488768   -0.190592
     10          1           0       -2.526098   -0.199411   -0.354026
 ---------------------------------------------------------------------

 SCF Done:  E(RB3LYP) =  -193.115791362     A.U. after   11 cycles

 The electronic state is 1-A.
 Alpha  occ. eigenvalues --  -19.12774 -10.27298 -10.19458 -10.18957  -1.03534
 Alpha  occ. eigenvalues --   -0.78285  -0.66624  -0.58514  -0.49061  -0.45564
 Alpha  occ. eigenvalues --   -0.42978  -0.41153  -0.38262  -0.36235  -0.35120
 Alpha  occ. eigenvalues --   -0.26544
 Alpha virt. eigenvalues --   -0.05306   0.05066   0.07516   0.08508   0.10925
 Alpha virt. eigenvalues --    0.11520   0.13121   0.17883   0.21219   0.22937
 Alpha virt. eigenvalues --    0.37362   0.39864   0.41242   0.44905   0.50138

 Mulliken charges:
               1
     1  C    0.254187
     2  C   -0.238905
     3  C   -0.225318
     4  O   -0.396432
     5  H    0.062016
     6  H    0.129614
     7  H    0.097760
     8  H    0.099529
     9  H    0.110789
    10  H    0.106761
 Sum of Mulliken charges =   0.00000

 Dipole moment (field-independent basis, Debye):
    X=             -2.4048    Y=              2.0260    Z=              1.0022  Tot=              3.3003
 Quadrupole moment (field-independent basis, Debye-Ang):
   XX=            -29.2733   YY=            -25.3534   ZZ=            -24.3528
   XY=              2.6080   XZ=              1.5244   YZ=              0.1079

 Normal termination of Gaussian 16 at Fri Sep 22 16:28:51 2023.
