 Gaussian 16, Revision A.03,
 Gaussian 16:  ES64L-G16RevA.03 25-Dec-2016

 ----------------------------------------------------------------------
 #p b3lyp/gen scrf=(cpcm,solvent=toluene) pop=hirshfeld empiricaldisper
 sion=gd3bj
 ----------------------------------------------------------------------

 ---------------------
 tmpdir/M2_ref_301.gjf
 ---------------------
 Symbolic Z-matrix:
 Charge =  0 Multiplicity = 1

                         Standard orientation:
 ---------------------------------------------------------------------
 Center     Atomic      Atomic             Coordinates (Angstroms)
 Number     Number       Type             X           Y           Z
 ---------------------------------------------------------------------
      1          6           0       -0.818096    0.482177   -0.008766
      2          6           0        0.596333    0.636907   -0.008620
      3          6           0        1.424974   -0.461318    0.006368
      4          1           0       -1.501581    1.299396    0.066310
      5          8           0       -1.286321   -0.641898   -0.002616
      6          1           0        1.027615    1.635458    0.005603
      7          1           0        1.040710   -1.414631    0.025686
      8          1           0        2.504555   -0.331636   -0.010570
 ---------------------------------------------------------------------

 SCF Done:  E(RB3LYP) =  -191.881692503     A.U. after   11 cycles

 The electronic state is 1-A.
 Alpha  occ. eigenvalues --  -19.11813 -10.26306 -10.20739 -10.19713  -1.05556
 Alpha  occ. eigenvalues --   -0.79956  -0.67456  -0.56042  -0.52488  -0.45835
 Alpha  occ. eigenvalues --   -0.43133  -0.41084  -0.39506  -0.28854  -0.26815
 Alpha virt. eigenvalues --   -0.08857   0.05222   0.05743   0.08273   0.10642
 Alpha virt. eigenvalues --    0.13336   0.21961   0.25402   0.28669   0.40183
 Alpha virt. eigenvalues --    0.41162   0.45603   0.46342   0.48147   0.51731

 Mulliken charges:
               1
     1  C    0.309797
     2  C   -0.270556
     3  C   -0.010048
     4  H    0.052230
     5  O   -0.379851
     6  H    0.087636
     7  H    0.090754
     8  H    0.120037
 Sum of Mulliken charges =  -0.00000

 Dipole moment (field-independent basis, Debye):
    X=              2.2255    Y=              2.0455    Z=              0.0424  Tot=              3.0230
 Quadrupole moment (field-independent basis, Debye-Ang):
   XX=            -23.6514   YY=            -22.5960   ZZ=            -24.9950
   XY=             -3.6188   XZ=             -0.0272   YZ=              0.0062

 Normal termination of Gaussian 16 at Fri Sep 22 16:30:51 2023.
