 Gaussian 16, Revision A.03,
 Gaussian 16:  ES64L-G16RevA.03 25-Dec-2016

 ----------------------------------------------------------------------
 #p b3lyp/gen scrf=(cpcm,solvent=toluene) pop=hirshfeld empiricaldisper
 sion=gd3bj
 ----------------------------------------------------------------------

 ---------------------
 tmpdir/M2_ref_228.gjf
 ---------------------
 Symbolic Z-matrix:
 Charge =  0 Multiplicity = 1

                         Standard orientation:
 ---------------------------------------------------------------------
 Center     Atomic      Atomic             Coordinates (Angstroms)
 Number     Number       Type             X           Y           Z
 ---------------------------------------------------------------------
      1          6           0       -0.803969   -0.753331   -0.008972
      2          6           0        0.007439    0.424551    0.003233
      3          6           0        1.420143    0.287222    0.020248
      4          8           0       -2.049461   -0.635840    0.016886
      5          1           0       -0.344932   -1.673575   -0.038925
      6          8           0       -0.564187    1.539539   -0.019719
      7          8           0        1.935049   -0.811260   -0.013164
      8          1           0        2.032041    1.183415    0.079852
 ---------------------------------------------------------------------

 SCF Done:  E(RB3LYP) =  -341.069421030     A.U. after   12 cycles

 The electronic state is 1-A.
 Alpha  occ. eigenvalues --  -19.18396 -19.18274 -19.16769 -10.30752 -10.30553
 Alpha  occ. eigenvalues --  -10.29337  -1.11948  -1.09825  -1.06245  -0.79796
 Alpha  occ. eigenvalues --   -0.69897  -0.58383  -0.56014  -0.51660  -0.49220
 Alpha  occ. eigenvalues --   -0.47739  -0.46788  -0.42913  -0.39065  -0.34914
 Alpha  occ. eigenvalues --   -0.32390  -0.28811
 Alpha virt. eigenvalues --   -0.17189  -0.08319   0.05465   0.07000   0.08612
 Alpha virt. eigenvalues --    0.13573   0.22982   0.23883   0.28107   0.33643
 Alpha virt. eigenvalues --    0.36009   0.40343   0.42730   0.47935   0.48267

 Mulliken charges:
               1
     1  C    0.330253
     2  C    0.102683
     3  C    0.331393
     4  O   -0.326361
     5  H    0.063526
     6  O   -0.290869
     7  O   -0.308309
     8  H    0.097684
 Sum of Mulliken charges =  -0.00000

 Dipole moment (field-independent basis, Debye):
    X=              2.7396    Y=             -0.2498    Z=              0.0634  Tot=              2.7517
 Quadrupole moment (field-independent basis, Debye-Ang):
   XX=            -42.0012   YY=            -36.0400   ZZ=            -30.8797
   XY=              4.5371   XZ=              0.2160   YZ=              0.1129

 Normal termination of Gaussian 16 at Fri Sep 22 16:29:54 2023.
