 Gaussian 16, Revision A.03,
 Gaussian 16:  ES64L-G16RevA.03 25-Dec-2016

 ----------------------------------------------------------------------
 #p b3lyp/gen scrf=(cpcm,solvent=toluene) pop=hirshfeld empiricaldisper
 sion=gd3bj
 ----------------------------------------------------------------------

 ---------------------
 tmpdir/M2_ref_122.gjf
 ---------------------
 Symbolic Z-matrix:
 Charge =  0 Multiplicity = 1

                         Standard orientation:
 ---------------------------------------------------------------------
 Center     Atomic      Atomic             Coordinates (Angstroms)
 Number     Number       Type             X           Y           Z
 ---------------------------------------------------------------------
      1          6           0        1.250244   -0.275059   -0.002120
      2          6           0        0.000166    0.618683   -0.002689
      3          6           0       -1.256511   -0.266850   -0.005943
      4          1           0        1.294704   -0.918808   -0.889672
      5          1           0        2.170725    0.321750    0.038630
      6          1           0        1.237311   -0.928976    0.878813
      7          1           0        0.051581    1.310252   -0.898235
      8          1           0        0.007690    1.254485    0.911129
      9          1           0       -2.182831    0.319685   -0.032469
     10          1           0       -1.266652   -0.954072   -0.858507
     11          1           0       -1.275920   -0.864961    0.914819
 ---------------------------------------------------------------------

 SCF Done:  E(RB3LYP) =  -119.131836575     A.U. after   10 cycles

 The electronic state is 1-A.
 Alpha  occ. eigenvalues --  -10.17569 -10.16403 -10.16308  -0.78038  -0.67865
 Alpha  occ. eigenvalues --   -0.58253  -0.45678  -0.43765  -0.39722  -0.38059
 Alpha  occ. eigenvalues --   -0.34124  -0.33651  -0.32970
 Alpha virt. eigenvalues --    0.04724   0.08554   0.08792   0.08841   0.11648
 Alpha virt. eigenvalues --    0.13495   0.14408   0.15518   0.19145   0.23172
 Alpha virt. eigenvalues --    0.37571   0.38710   0.39843   0.40261   0.40904

 Mulliken charges:
               1
     1  C   -0.214120
     2  C   -0.260456
     3  C   -0.208629
     4  H    0.084035
     5  H    0.085211
     6  H    0.079831
     7  H    0.092029
     8  H    0.090183
     9  H    0.085819
    10  H    0.083761
    11  H    0.082336
 Sum of Mulliken charges =  -0.00000

 Dipole moment (field-independent basis, Debye):
    X=             -0.0048    Y=              0.0242    Z=              0.0384  Tot=              0.0456
 Quadrupole moment (field-independent basis, Debye-Ang):
   XX=            -22.6685   YY=            -22.2830   ZZ=            -21.6752
   XY=              0.0902   XZ=             -0.0472   YZ=              0.0664

 Normal termination of Gaussian 16 at Fri Sep 22 16:29:47 2023.
