 Gaussian 16, Revision A.03,
 Gaussian 16:  ES64L-G16RevA.03 25-Dec-2016

 ----------------------------------------------------------------------
 #p b3lyp/gen scrf=(cpcm,solvent=toluene) pop=hirshfeld empiricaldisper
 sion=gd3bj
 ----------------------------------------------------------------------

 --------------------
 tmpdir/M2_ref_16.gjf
 --------------------
 Symbolic Z-matrix:
 Charge =  0 Multiplicity = 1

                         Standard orientation:
 ---------------------------------------------------------------------
 Center     Atomic      Atomic             Coordinates (Angstroms)
 Number     Number       Type             X           Y           Z
 ---------------------------------------------------------------------
      1          6           0       -0.689367    0.481278   -0.002268
      2          6           0        0.711138    0.478391    0.001080
      3          6           0       -1.416294   -0.704673    0.001858
      4          1           0       -1.227662    1.427444   -0.003163
      5          6           0        1.388765   -0.728799   -0.001324
      6          1           0        1.262211    1.415378    0.007086
 ---------------------------------------------------------------------

 SCF Done:  E(RB3LYP) =  -153.292986671     A.U. after   13 cycles

 The electronic state is 1-A.
 Alpha  occ. eigenvalues --  -10.27192 -10.27175 -10.22405 -10.22336  -0.86212
 Alpha  occ. eigenvalues --   -0.73603  -0.61792  -0.50754  -0.49470  -0.37316
 Alpha  occ. eigenvalues --   -0.33302  -0.31303  -0.25668
 Alpha virt. eigenvalues --   -0.14399  -0.11513  -0.07929   0.04888   0.05666
 Alpha virt. eigenvalues --    0.09611   0.20126   0.26581   0.31389   0.36254
 Alpha virt. eigenvalues --    0.39095   0.43060   0.44048   0.44723   0.46113

 Mulliken charges:
               1
     1  C   -0.171801
     2  C   -0.152318
     3  C   -0.000561
     4  H    0.164393
     5  C   -0.000291
     6  H    0.160579
 Sum of Mulliken charges =  -0.00000

 Dipole moment (field-independent basis, Debye):
    X=              0.1248    Y=              4.0960    Z=              0.0051  Tot=              4.0979
 Quadrupole moment (field-independent basis, Debye-Ang):
   XX=            -25.7993   YY=            -24.2635   ZZ=            -26.5775
   XY=             -0.0248   XZ=              0.0383   YZ=              0.0099

 Normal termination of Gaussian 16 at Fri Sep 22 16:28:26 2023.
