 Gaussian 16, Revision A.03,
 Gaussian 16:  ES64L-G16RevA.03 25-Dec-2016

 ----------------------------------------------------------------------
 #p b3lyp/gen scrf=(cpcm,solvent=toluene) pop=hirshfeld empiricaldisper
 sion=gd3bj
 ----------------------------------------------------------------------

 -------------------
 tmpdir/M2_ref_0.gjf
 -------------------
 Symbolic Z-matrix:
 Charge =  0 Multiplicity = 1

                         Standard orientation:
 ---------------------------------------------------------------------
 Center     Atomic      Atomic             Coordinates (Angstroms)
 Number     Number       Type             X           Y           Z
 ---------------------------------------------------------------------
      1          6           0       -0.710614   -0.001338   -0.006032
      2          6           0        0.711541   -0.015694    0.000247
      3          1           0       -1.221117   -0.883181    0.009139
      4          1           0       -1.187246    0.920877    0.019398
      5          1           0        1.202118   -0.902775    0.008440
      6          1           0        1.200680    0.967270   -0.002272
 ---------------------------------------------------------------------

 SCF Done:  E(RB3LYP) =  -78.5635848795     A.U. after    9 cycles

 The electronic state is 1-A.
 Alpha  occ. eigenvalues --  -10.18492 -10.17969  -0.75556  -0.59881  -0.48589
 Alpha  occ. eigenvalues --   -0.40618  -0.38588  -0.26767
 Alpha virt. eigenvalues --   -0.02044   0.06529   0.09866   0.10422   0.16058
 Alpha virt. eigenvalues --    0.25942   0.35859   0.43712   0.44074   0.50889
 Alpha virt. eigenvalues --    0.51538   0.54306   0.64378   0.66000   0.69189

 Mulliken charges:
               1
     1  C   -0.170444
     2  C   -0.193479
     3  H    0.083715
     4  H    0.090178
     5  H    0.080895
     6  H    0.109136
 Sum of Mulliken charges =  -0.00000

 Dipole moment (field-independent basis, Debye):
    X=             -0.0231    Y=             -0.0063    Z=              0.0385  Tot=              0.0453
 Quadrupole moment (field-independent basis, Debye-Ang):
   XX=            -12.5711   YY=            -12.1215   ZZ=            -15.7446
   XY=             -0.0236   XZ=             -0.0284   YZ=             -0.0001

 Normal termination of Gaussian 16 at Fri Sep 22 16:27:24 2023.
