 Gaussian 16, Revision A.03,
 Gaussian 16:  ES64L-G16RevA.03 25-Dec-2016

 ----------------------------------------------------------------------
 #p b3lyp/gen scrf=(cpcm,solvent=toluene) pop=hirshfeld empiricaldisper
 sion=gd3bj
 ----------------------------------------------------------------------

 ---------------------
 tmpdir/M2_ref_369.gjf
 ---------------------
 Symbolic Z-matrix:
 Charge =  0 Multiplicity = 1

                         Standard orientation:
 ---------------------------------------------------------------------
 Center     Atomic      Atomic             Coordinates (Angstroms)
 Number     Number       Type             X           Y           Z
 ---------------------------------------------------------------------
      1          6           0       -0.009353    0.004997   -0.001080
      2          1           0        0.456710    0.996246    0.014637
      3          1           0       -1.096022    0.067380   -0.050694
      4          1           0        0.391482   -0.553687   -0.859504
      5          1           0        0.303947   -0.539920    0.902041
 ---------------------------------------------------------------------

 SCF Done:  E(RB3LYP) =  -40.5138309826     A.U. after    7 cycles

 The electronic state is 1-A.
 Alpha  occ. eigenvalues --  -10.16273  -0.69373  -0.39920  -0.39192  -0.38739
 Alpha virt. eigenvalues --    0.05697   0.12501   0.12565   0.12661   0.37167
 Alpha virt. eigenvalues --    0.37563   0.38256   0.63447   0.63767   0.64349
 Alpha virt. eigenvalues --    0.67764   0.96197   1.28819   1.28994   1.84892

 Mulliken charges:
               1
     1  C   -0.351136
     2  H    0.088094
     3  H    0.092164
     4  H    0.085667
     5  H    0.085211
 Sum of Mulliken charges =  -0.00000

 Dipole moment (field-independent basis, Debye):
    X=              0.0304    Y=             -0.0164    Z=              0.0038  Tot=              0.0347
 Quadrupole moment (field-independent basis, Debye-Ang):
   XX=             -8.3309   YY=             -8.4689   ZZ=             -8.5538
   XY=              0.0059   XZ=              0.0023   YZ=              0.0016

 Normal termination of Gaussian 16 at Fri Sep 22 16:30:55 2023.
