 Gaussian 16, Revision A.03,
 Gaussian 16:  ES64L-G16RevA.03 25-Dec-2016

 ----------------------------------------------------------------------
 #p b3lyp/gen scrf=(cpcm,solvent=toluene) pop=hirshfeld empiricaldisper
 sion=gd3bj
 ----------------------------------------------------------------------

 --------------------
 tmpdir/M2_ref_52.gjf
 --------------------
 Symbolic Z-matrix:
 Charge =  0 Multiplicity = 1

                         Standard orientation:
 ---------------------------------------------------------------------
 Center     Atomic      Atomic             Coordinates (Angstroms)
 Number     Number       Type             X           Y           Z
 ---------------------------------------------------------------------
      1          7           0       -0.001839   -0.019884   -0.033897
      2          1           0       -0.295173    0.959442    0.068873
      3          1           0       -0.691555   -0.652141    0.087777
      4          1           0        0.999603   -0.168112    0.080628
 ---------------------------------------------------------------------

 SCF Done:  E(RB3LYP) =  -56.5362356084     A.U. after    8 cycles

 The electronic state is 1-A.
 Alpha  occ. eigenvalues --  -14.27570  -0.83467  -0.49373  -0.45545  -0.23455
 Alpha virt. eigenvalues --    0.05082   0.12264   0.13098   0.49337   0.56845
 Alpha virt. eigenvalues --    0.61408   0.65962   0.76410   0.77766   1.07883
 Alpha virt. eigenvalues --    1.46528   1.49870   1.84522   1.98337   2.03278

 Mulliken charges:
               1
     1  N   -0.494478
     2  H    0.167179
     3  H    0.147085
     4  H    0.180213
 Sum of Mulliken charges =  -0.00000

 Dipole moment (field-independent basis, Debye):
    X=              0.0281    Y=              0.1716    Z=              0.6369  Tot=              0.6602
 Quadrupole moment (field-independent basis, Debye-Ang):
   XX=             -5.4739   YY=             -5.9414   ZZ=             -9.2962
   XY=              0.0715   XZ=             -0.0112   YZ=             -0.0333

 Normal termination of Gaussian 16 at Fri Sep 22 16:28:17 2023.
