 Gaussian 16, Revision A.03,
 Gaussian 16:  ES64L-G16RevA.03 25-Dec-2016

 ----------------------------------------------------------------------
 #p b3lyp/gen scrf=(cpcm,solvent=toluene) pop=hirshfeld empiricaldisper
 sion=gd3bj
 ----------------------------------------------------------------------

 ---------------------
 tmpdir/M2_ref_174.gjf
 ---------------------
 Symbolic Z-matrix:
 Charge =  0 Multiplicity = 1

                         Standard orientation:
 ---------------------------------------------------------------------
 Center     Atomic      Atomic             Coordinates (Angstroms)
 Number     Number       Type             X           Y           Z
 ---------------------------------------------------------------------
      1          6           0       -0.006753   -0.002952   -0.007463
      2          1           0       -0.825101    0.308735   -0.663176
      3          1           0        0.629721    0.878328    0.290037
      4          1           0        0.685562   -0.726109   -0.477624
      5          1           0       -0.449662   -0.443242    0.895541
 ---------------------------------------------------------------------

 SCF Done:  E(RB3LYP) =  -40.5129278551     A.U. after    7 cycles

 The electronic state is 1-A.
 Alpha  occ. eigenvalues --  -10.16669  -0.69090  -0.40171  -0.38964  -0.38242
 Alpha virt. eigenvalues --    0.05535   0.12075   0.12485   0.12558   0.36904
 Alpha virt. eigenvalues --    0.37215   0.39092   0.62170   0.63480   0.63967
 Alpha virt. eigenvalues --    0.66622   0.95681   1.28417   1.29999   1.82724

 Mulliken charges:
               1
     1  C   -0.361111
     2  H    0.093059
     3  H    0.089007
     4  H    0.091351
     5  H    0.087694
 Sum of Mulliken charges =  -0.00000

 Dipole moment (field-independent basis, Debye):
    X=              0.0031    Y=             -0.0071    Z=              0.0237  Tot=              0.0250
 Quadrupole moment (field-independent basis, Debye-Ang):
   XX=             -8.2893   YY=             -8.5824   ZZ=             -8.5745
   XY=             -0.0422   XZ=              0.0063   YZ=             -0.0278

 Normal termination of Gaussian 16 at Fri Sep 22 16:28:55 2023.
