 Gaussian 16, Revision A.03,
 Gaussian 16:  ES64L-G16RevA.03 25-Dec-2016

 ----------------------------------------------------------------------
 #p b3lyp/gen scrf=(cpcm,solvent=toluene) pop=hirshfeld empiricaldisper
 sion=gd3bj
 ----------------------------------------------------------------------

 ---------------------
 tmpdir/M2_ref_251.gjf
 ---------------------
 Symbolic Z-matrix:
 Charge =  0 Multiplicity = 1

                         Standard orientation:
 ---------------------------------------------------------------------
 Center     Atomic      Atomic             Coordinates (Angstroms)
 Number     Number       Type             X           Y           Z
 ---------------------------------------------------------------------
      1          6           0        0.545437    0.011261   -0.002816
      2          1           0        1.209671   -0.844648    0.006354
      3          8           0       -0.664730   -0.027962    0.000606
      4          1           0        0.835547    1.000776    0.005689
 ---------------------------------------------------------------------

 SCF Done:  E(RB3LYP) =  -114.476700837     A.U. after    9 cycles

 The electronic state is 1-A.
 Alpha  occ. eigenvalues --  -19.13515 -10.26862  -1.06583  -0.64278  -0.52006
 Alpha  occ. eigenvalues --   -0.45019  -0.40298  -0.26938
 Alpha virt. eigenvalues --   -0.05051   0.06520   0.11320   0.18368   0.40348
 Alpha virt. eigenvalues --    0.44530   0.54919   0.60247   0.64833   0.73413
 Alpha virt. eigenvalues --    0.78798   0.87814   0.98096   1.31234   1.51979

 Mulliken charges:
               1
     1  C    0.211082
     2  H    0.091146
     3  O   -0.365546
     4  H    0.063317
 Sum of Mulliken charges =  -0.00000

 Dipole moment (field-independent basis, Debye):
    X=              2.7257    Y=              0.0863    Z=              0.0018  Tot=              2.7271
 Quadrupole moment (field-independent basis, Debye-Ang):
   XX=            -12.1364   YY=            -11.3718   ZZ=            -11.5176
   XY=             -0.3472   XZ=              0.0057   YZ=              0.0015

 Normal termination of Gaussian 16 at Fri Sep 22 16:31:23 2023.
