 Gaussian 16, Revision A.03,
 Gaussian 16:  ES64L-G16RevA.03 25-Dec-2016

 ----------------------------------------------------------------------
 #p b3lyp/gen scrf=(cpcm,solvent=toluene) pop=hirshfeld empiricaldisper
 sion=gd3bj
 ----------------------------------------------------------------------

 ---------------------
 tmpdir/M2_ref_388.gjf
 ---------------------
 Symbolic Z-matrix:
 Charge =  0 Multiplicity = 1

                         Standard orientation:
 ---------------------------------------------------------------------
 Center     Atomic      Atomic             Coordinates (Angstroms)
 Number     Number       Type             X           Y           Z
 ---------------------------------------------------------------------
      1          6           0       -0.539406   -0.010823   -0.000078
      2          1           0       -1.104568    0.920454    0.000157
      3          1           0       -1.052290   -0.902681    0.000167
      4          8           0        0.674162    0.005895    0.000018
 ---------------------------------------------------------------------

 SCF Done:  E(RB3LYP) =  -114.484143680     A.U. after    9 cycles

 The electronic state is 1-A.
 Alpha  occ. eigenvalues --  -19.13931 -10.27116  -1.06451  -0.65022  -0.51065
 Alpha  occ. eigenvalues --   -0.45523  -0.40335  -0.27457
 Alpha virt. eigenvalues --   -0.05298   0.06521   0.11905   0.18109   0.40311
 Alpha virt. eigenvalues --    0.47836   0.52473   0.60671   0.62440   0.72643
 Alpha virt. eigenvalues --    0.78032   0.87636   0.97950   1.32228   1.50400

 Mulliken charges:
               1
     1  C    0.220047
     2  H    0.076937
     3  H    0.066360
     4  O   -0.363344
 Sum of Mulliken charges =   0.00000

 Dipole moment (field-independent basis, Debye):
    X=             -2.7510    Y=             -0.0885    Z=              0.0000  Tot=              2.7524
 Quadrupole moment (field-independent basis, Debye-Ang):
   XX=            -12.0459   YY=            -11.5099   ZZ=            -11.5085
   XY=              0.0446   XZ=             -0.0002   YZ=              0.0000

 Normal termination of Gaussian 16 at Fri Sep 22 16:31:29 2023.
