 Gaussian 16, Revision A.03,
 Gaussian 16:  ES64L-G16RevA.03 25-Dec-2016

 ----------------------------------------------------------------------
 #p b3lyp/gen scrf=(cpcm,solvent=toluene) pop=hirshfeld empiricaldisper
 sion=gd3bj
 ----------------------------------------------------------------------

 ---------------------
 tmpdir/M2_ref_151.gjf
 ---------------------
 Symbolic Z-matrix:
 Charge =  0 Multiplicity = 1

                         Standard orientation:
 ---------------------------------------------------------------------
 Center     Atomic      Atomic             Coordinates (Angstroms)
 Number     Number       Type             X           Y           Z
 ---------------------------------------------------------------------
      1          1           0       -0.507680   -0.437353   -0.865956
      2          6           0        0.005287    0.001370   -0.003124
      3          1           0       -0.190192   -0.638140    0.867274
      4          1           0        1.102666    0.079544   -0.173451
      5          1           0       -0.436516    0.987727    0.190879
 ---------------------------------------------------------------------

 SCF Done:  E(RB3LYP) =  -40.5137393820     A.U. after    7 cycles

 The electronic state is 1-A.
 Alpha  occ. eigenvalues --  -10.16460  -0.69234  -0.39552  -0.39081  -0.38978
 Alpha virt. eigenvalues --    0.05619   0.12338   0.12554   0.12577   0.37283
 Alpha virt. eigenvalues --    0.37399   0.38321   0.63098   0.63680   0.63757
 Alpha virt. eigenvalues --    0.67335   0.96080   1.28787   1.29159   1.84661

 Mulliken charges:
               1
     1  H    0.087705
     2  C   -0.356046
     3  H    0.086078
     4  H    0.094591
     5  H    0.087670
 Sum of Mulliken charges =  -0.00000

 Dipole moment (field-independent basis, Debye):
    X=             -0.0381    Y=             -0.0085    Z=              0.0141  Tot=              0.0415
 Quadrupole moment (field-independent basis, Debye-Ang):
   XX=             -8.3458   YY=             -8.5162   ZZ=             -8.5325
   XY=             -0.0002   XZ=              0.0065   YZ=              0.0056

 Normal termination of Gaussian 16 at Fri Sep 22 16:29:04 2023.
