 Gaussian 16, Revision A.03,
 Gaussian 16:  ES64L-G16RevA.03 25-Dec-2016

 ----------------------------------------------------------------------
 #p b3lyp/gen scrf=(cpcm,solvent=toluene) pop=hirshfeld empiricaldisper
 sion=gd3bj
 ----------------------------------------------------------------------

 ---------------------
 tmpdir/M2_ref_381.gjf
 ---------------------
 Symbolic Z-matrix:
 Charge =  0 Multiplicity = 1

                         Standard orientation:
 ---------------------------------------------------------------------
 Center     Atomic      Atomic             Coordinates (Angstroms)
 Number     Number       Type             X           Y           Z
 ---------------------------------------------------------------------
      1          6           0        0.689056   -0.007264   -0.000490
      2          6           0       -0.687544   -0.006378   -0.002130
      3          1           0       -1.240150    0.929344    0.011409
      4          1           0        1.235310    0.933839   -0.003761
      5          1           0        1.207392   -0.891120    0.009017
      6          1           0       -1.211626   -0.890209   -0.000945
 ---------------------------------------------------------------------

 SCF Done:  E(RB3LYP) =  -78.5743832827     A.U. after    9 cycles

 The electronic state is 1-A.
 Alpha  occ. eigenvalues --  -10.18031 -10.17968  -0.76118  -0.59463  -0.47945
 Alpha  occ. eigenvalues --   -0.41830  -0.37384  -0.27412
 Alpha virt. eigenvalues --   -0.01184   0.06611   0.09611   0.10004   0.16171
 Alpha virt. eigenvalues --    0.27702   0.35776   0.41893   0.43572   0.51266
 Alpha virt. eigenvalues --    0.51833   0.55101   0.63636   0.65557   0.70644

 Mulliken charges:
               1
     1  C   -0.183303
     2  C   -0.187091
     3  H    0.102203
     4  H    0.102933
     5  H    0.082221
     6  H    0.083036
 Sum of Mulliken charges =   0.00000

 Dipole moment (field-independent basis, Debye):
    X=             -0.0037    Y=             -0.0270    Z=              0.0169  Tot=              0.0321
 Quadrupole moment (field-independent basis, Debye-Ang):
   XX=            -12.3559   YY=            -12.3153   ZZ=            -15.6540
   XY=             -0.0039   XZ=             -0.0072   YZ=             -0.0003

 Normal termination of Gaussian 16 at Fri Sep 22 16:31:22 2023.
