 Gaussian 16, Revision A.03,
 Gaussian 16:  ES64L-G16RevA.03 25-Dec-2016

 ----------------------------------------------------------------------
 #p b3lyp/gen scrf=(cpcm,solvent=toluene) pop=hirshfeld empiricaldisper
 sion=gd3bj
 ----------------------------------------------------------------------

 ---------------------
 tmpdir/M2_ref_341.gjf
 ---------------------
 Symbolic Z-matrix:
 Charge =  0 Multiplicity = 1

                         Standard orientation:
 ---------------------------------------------------------------------
 Center     Atomic      Atomic             Coordinates (Angstroms)
 Number     Number       Type             X           Y           Z
 ---------------------------------------------------------------------
      1          6           0       -1.225684   -0.294564    0.020767
      2          6           0        0.013916    0.617979   -0.036474
      3          7           0        1.220569   -0.228129   -0.015436
      4          1           0       -2.177171    0.261410   -0.054124
      5          1           0       -1.174774   -0.874258    0.951846
      6          1           0       -1.177756   -1.025735   -0.795186
      7          1           0       -0.001026    1.366837   -0.867113
      8          1           0        0.047639    1.203111    0.887921
      9          1           0        1.725657   -0.407814    0.791059
     10          1           0        1.484056   -0.867133   -0.712104
 ---------------------------------------------------------------------

 SCF Done:  E(RB3LYP) =  -135.147041366     A.U. after   10 cycles

 The electronic state is 1-A.
 Alpha  occ. eigenvalues --  -14.27381 -10.20346 -10.16031  -0.86831  -0.72695
 Alpha  occ. eigenvalues --   -0.61134  -0.49521  -0.45796  -0.41718  -0.38726
 Alpha  occ. eigenvalues --   -0.36863  -0.33858  -0.21502
 Alpha virt. eigenvalues --    0.05038   0.08080   0.08799   0.09452   0.12433
 Alpha virt. eigenvalues --    0.13964   0.15754   0.20692   0.21759   0.38374
 Alpha virt. eigenvalues --    0.40757   0.45595   0.46495   0.48103   0.57121

 Mulliken charges:
               1
     1  C   -0.203295
     2  C   -0.002337
     3  N   -0.484723
     4  H    0.075198
     5  H    0.074363
     6  H    0.076320
     7  H    0.092678
     8  H    0.085921
     9  H    0.141479
    10  H    0.144396
 Sum of Mulliken charges =   0.00000

 Dipole moment (field-independent basis, Debye):
    X=              0.0883    Y=             -0.3578    Z=              0.2523  Tot=              0.4466
 Quadrupole moment (field-independent basis, Debye-Ang):
   XX=            -21.5905   YY=            -20.6575   ZZ=            -19.6576
   XY=             -2.2180   XZ=              0.8333   YZ=              0.6326

 Normal termination of Gaussian 16 at Fri Sep 22 16:32:05 2023.
