 Gaussian 16, Revision A.03,
 Gaussian 16:  ES64L-G16RevA.03 25-Dec-2016

 ----------------------------------------------------------------------
 #p b3lyp/gen scrf=(cpcm,solvent=toluene) pop=hirshfeld empiricaldisper
 sion=gd3bj
 ----------------------------------------------------------------------

 ---------------------
 tmpdir/M2_ref_290.gjf
 ---------------------
 Symbolic Z-matrix:
 Charge =  0 Multiplicity = 1

                         Standard orientation:
 ---------------------------------------------------------------------
 Center     Atomic      Atomic             Coordinates (Angstroms)
 Number     Number       Type             X           Y           Z
 ---------------------------------------------------------------------
      1          6           0       -0.716317    0.484014   -0.009906
      2          6           0        0.706541    0.478810   -0.009327
      3          1           0       -1.303654    1.373038    0.062943
      4          6           0       -1.387341   -0.723220   -0.000340
      5          6           0        1.406508   -0.705543    0.008604
      6          1           0        1.247305    1.422598    0.002875
 ---------------------------------------------------------------------

 SCF Done:  E(RB3LYP) =  -153.296255752     A.U. after   13 cycles

 The electronic state is 1-A.
 Alpha  occ. eigenvalues --  -10.27107 -10.26993 -10.22466 -10.22369  -0.86088
 Alpha  occ. eigenvalues --   -0.74089  -0.61390  -0.51058  -0.49721  -0.37214
 Alpha  occ. eigenvalues --   -0.33244  -0.31336  -0.25954
 Alpha virt. eigenvalues --   -0.14264  -0.11500  -0.07615   0.04690   0.05900
 Alpha virt. eigenvalues --    0.09485   0.20089   0.26748   0.30573   0.35916
 Alpha virt. eigenvalues --    0.39087   0.43324   0.44276   0.44634   0.45984

 Mulliken charges:
               1
     1  C   -0.146035
     2  C   -0.163936
     3  H    0.152139
     4  C   -0.005706
     5  C   -0.003056
     6  H    0.166594
 Sum of Mulliken charges =  -0.00000

 Dipole moment (field-independent basis, Debye):
    X=             -0.1108    Y=              4.0968    Z=              0.0829  Tot=              4.0992
 Quadrupole moment (field-independent basis, Debye-Ang):
   XX=            -25.5783   YY=            -24.4096   ZZ=            -26.5380
   XY=              0.0348   XZ=             -0.1971   YZ=              0.1737

 Normal termination of Gaussian 16 at Fri Sep 22 16:30:19 2023.
