 Gaussian 16, Revision A.03,
 Gaussian 16:  ES64L-G16RevA.03 25-Dec-2016

 ----------------------------------------------------------------------
 #p b3lyp/gen scrf=(cpcm,solvent=toluene) pop=hirshfeld empiricaldisper
 sion=gd3bj
 ----------------------------------------------------------------------

 ---------------------
 tmpdir/M2_ref_223.gjf
 ---------------------
 Symbolic Z-matrix:
 Charge =  0 Multiplicity = 1

                         Standard orientation:
 ---------------------------------------------------------------------
 Center     Atomic      Atomic             Coordinates (Angstroms)
 Number     Number       Type             X           Y           Z
 ---------------------------------------------------------------------
      1          6           0        0.789518    0.488672    0.000959
      2          6           0       -0.574713    0.651934   -0.008104
      3          6           0       -1.445090   -0.471854    0.002639
      4          8           0        1.306802   -0.654923   -0.006063
      5          1           0        1.422457    1.371573    0.044593
      6          1           0       -1.001653    1.654159    0.001013
      7          1           0       -1.025017   -1.417274    0.045207
      8          1           0       -2.468491   -0.381582   -0.015272
 ---------------------------------------------------------------------

 SCF Done:  E(RB3LYP) =  -191.872247104     A.U. after   11 cycles

 The electronic state is 1-A.
 Alpha  occ. eigenvalues --  -19.11664 -10.26255 -10.21503 -10.20172  -1.03359
 Alpha  occ. eigenvalues --   -0.80298  -0.68905  -0.55781  -0.52485  -0.45474
 Alpha  occ. eigenvalues --   -0.43585  -0.40253  -0.39557  -0.28413  -0.26802
 Alpha virt. eigenvalues --   -0.10191   0.05107   0.05746   0.08150   0.10865
 Alpha virt. eigenvalues --    0.13347   0.21196   0.24734   0.29576   0.40199
 Alpha virt. eigenvalues --    0.42333   0.44825   0.46295   0.47246   0.51472

 Mulliken charges:
               1
     1  C    0.308538
     2  C   -0.279713
     3  C    0.024311
     4  O   -0.412553
     5  H    0.062629
     6  H    0.091956
     7  H    0.101217
     8  H    0.103615
 Sum of Mulliken charges =  -0.00000

 Dipole moment (field-independent basis, Debye):
    X=             -2.7390    Y=              2.0640    Z=              0.0630  Tot=              3.4302
 Quadrupole moment (field-independent basis, Debye-Ang):
   XX=            -23.8659   YY=            -22.4226   ZZ=            -25.0432
   XY=              3.8029   XZ=              0.0281   YZ=             -0.0280

 Normal termination of Gaussian 16 at Fri Sep 22 16:30:31 2023.
