 Gaussian 16, Revision A.03,
 Gaussian 16:  ES64L-G16RevA.03 25-Dec-2016

 ----------------------------------------------------------------------
 #p b3lyp/gen scrf=(cpcm,solvent=toluene) pop=hirshfeld empiricaldisper
 sion=gd3bj
 ----------------------------------------------------------------------

 ---------------------
 tmpdir/M2_ref_387.gjf
 ---------------------
 Symbolic Z-matrix:
 Charge =  0 Multiplicity = 1

                         Standard orientation:
 ---------------------------------------------------------------------
 Center     Atomic      Atomic             Coordinates (Angstroms)
 Number     Number       Type             X           Y           Z
 ---------------------------------------------------------------------
      1          6           0        0.687375   -0.006561    0.000096
      2          6           0       -0.689282   -0.007344   -0.001106
      3          1           0        1.213002   -0.890955   -0.004728
      4          1           0        1.239117    0.932713    0.005602
      5          1           0       -1.205301   -0.892560    0.007845
      6          1           0       -1.235375    0.934231   -0.002655
 ---------------------------------------------------------------------

 SCF Done:  E(RB3LYP) =  -78.5744998003     A.U. after    9 cycles

 The electronic state is 1-A.
 Alpha  occ. eigenvalues --  -10.18053 -10.17982  -0.76109  -0.59421  -0.47944
 Alpha  occ. eigenvalues --   -0.41794  -0.37374  -0.27412
 Alpha virt. eigenvalues --   -0.01181   0.06590   0.09592   0.09995   0.16162
 Alpha virt. eigenvalues --    0.27673   0.35761   0.41931   0.43569   0.51263
 Alpha virt. eigenvalues --    0.51741   0.55034   0.63593   0.65517   0.70598

 Mulliken charges:
               1
     1  C   -0.188931
     2  C   -0.182830
     3  H    0.083566
     4  H    0.102789
     5  H    0.082230
     6  H    0.103176
 Sum of Mulliken charges =  -0.00000

 Dipole moment (field-independent basis, Debye):
    X=              0.0033    Y=             -0.0272    Z=              0.0065  Tot=              0.0282
 Quadrupole moment (field-independent basis, Debye-Ang):
   XX=            -12.3687   YY=            -12.3083   ZZ=            -15.6598
   XY=             -0.0023   XZ=             -0.0056   YZ=             -0.0002

 Normal termination of Gaussian 16 at Fri Sep 22 16:31:25 2023.
