 Gaussian 16, Revision A.03,
 Gaussian 16:  ES64L-G16RevA.03 25-Dec-2016

 ----------------------------------------------------------------------
 #p b3lyp/gen scrf=(cpcm,solvent=toluene) pop=hirshfeld empiricaldisper
 sion=gd3bj
 ----------------------------------------------------------------------

 ---------------------
 tmpdir/M2_ref_219.gjf
 ---------------------
 Symbolic Z-matrix:
 Charge =  0 Multiplicity = 1

                         Standard orientation:
 ---------------------------------------------------------------------
 Center     Atomic      Atomic             Coordinates (Angstroms)
 Number     Number       Type             X           Y           Z
 ---------------------------------------------------------------------
      1          6           0        1.804175    0.118426    0.002469
      2          6           0        0.499569   -0.440539   -0.000993
      3          6           0       -0.666207    0.372401   -0.005130
      4          1           0        2.619919   -0.454516   -0.015721
      5          1           0        1.884808    1.201783    0.023516
      6          1           0        0.392048   -1.470360   -0.000615
      7          8           0       -1.771311   -0.129283    0.003998
      8          1           0       -0.551516    1.455629   -0.017237
 ---------------------------------------------------------------------

 SCF Done:  E(RB3LYP) =  -191.878002013     A.U. after   11 cycles

 The electronic state is 1-A.
 Alpha  occ. eigenvalues --  -19.12232 -10.26558 -10.21649 -10.20163  -1.05801
 Alpha  occ. eigenvalues --   -0.80483  -0.67062  -0.58877  -0.49263  -0.48594
 Alpha  occ. eigenvalues --   -0.43039  -0.41226  -0.40915  -0.29147  -0.26958
 Alpha virt. eigenvalues --   -0.08761   0.03805   0.06217   0.07281   0.10801
 Alpha virt. eigenvalues --    0.13255   0.21100   0.25362   0.29239   0.39674
 Alpha virt. eigenvalues --    0.41610   0.45460   0.46723   0.49165   0.50764

 Mulliken charges:
               1
     1  C   -0.022911
     2  C   -0.209145
     3  C    0.283482
     4  H    0.088339
     5  H    0.117296
     6  H    0.070590
     7  O   -0.378292
     8  H    0.050641
 Sum of Mulliken charges =  -0.00000

 Dipole moment (field-independent basis, Debye):
    X=              3.7943    Y=              0.8833    Z=             -0.0168  Tot=              3.8958
 Quadrupole moment (field-independent basis, Debye-Ang):
   XX=            -27.1652   YY=            -21.6578   ZZ=            -25.0925
   XY=             -1.0179   XZ=              0.0171   YZ=              0.0303

 Normal termination of Gaussian 16 at Fri Sep 22 16:29:50 2023.
