 Gaussian 16, Revision A.03,
 Gaussian 16:  ES64L-G16RevA.03 25-Dec-2016

 ----------------------------------------------------------------------
 #p b3lyp/gen scrf=(cpcm,solvent=toluene) pop=hirshfeld empiricaldisper
 sion=gd3bj
 ----------------------------------------------------------------------

 ---------------------
 tmpdir/M2_ref_204.gjf
 ---------------------
 Symbolic Z-matrix:
 Charge =  0 Multiplicity = 1

                         Standard orientation:
 ---------------------------------------------------------------------
 Center     Atomic      Atomic             Coordinates (Angstroms)
 Number     Number       Type             X           Y           Z
 ---------------------------------------------------------------------
      1          6           0        1.245725   -0.161837    0.007907
      2          6           0       -0.115906    0.534171   -0.021444
      3          6           0       -1.313169   -0.235736    0.006024
      4          1           0        1.462452   -0.562232    1.038913
      5          1           0        1.213513   -1.147758   -0.635293
      6          1           0        2.080554    0.479514   -0.341063
      7          1           0       -0.186662    1.528635   -0.013336
      8          1           0       -2.204073    0.200593    0.077912
      9          1           0       -1.265691   -1.318334   -0.082055
 ---------------------------------------------------------------------

 SCF Done:  E(RB3LYP) =  -117.869247767     A.U. after   10 cycles

 The electronic state is 1-A.
 Alpha  occ. eigenvalues --  -10.18825 -10.18729 -10.17120  -0.77817  -0.67917
 Alpha  occ. eigenvalues --   -0.57589  -0.47392  -0.41910  -0.39959  -0.37070
 Alpha  occ. eigenvalues --   -0.36817  -0.24906
 Alpha virt. eigenvalues --   -0.01818   0.05541   0.08462   0.09238   0.11989
 Alpha virt. eigenvalues --    0.12942   0.13898   0.21809   0.28261   0.37426
 Alpha virt. eigenvalues --    0.40121   0.41748   0.47150   0.48579   0.52589

 Mulliken charges:
               1
     1  C   -0.207324
     2  C   -0.203728
     3  C   -0.116357
     4  H    0.118055
     5  H    0.107312
     6  H    0.106243
     7  H    0.042502
     8  H    0.064567
     9  H    0.088730
 Sum of Mulliken charges =  -0.00000

 Dipole moment (field-independent basis, Debye):
    X=              0.3851    Y=              0.0275    Z=              0.0894  Tot=              0.3963
 Quadrupole moment (field-independent basis, Debye-Ang):
   XX=            -19.5009   YY=            -18.9224   ZZ=            -22.2983
   XY=              0.1368   XZ=             -0.0682   YZ=             -0.0042

 Normal termination of Gaussian 16 at Fri Sep 22 16:29:39 2023.
