 Gaussian 16, Revision A.03,
 Gaussian 16:  ES64L-G16RevA.03 25-Dec-2016

 ----------------------------------------------------------------------
 #p b3lyp/gen scrf=(cpcm,solvent=toluene) pop=hirshfeld empiricaldisper
 sion=gd3bj
 ----------------------------------------------------------------------

 ---------------------
 tmpdir/M2_ref_152.gjf
 ---------------------
 Symbolic Z-matrix:
 Charge =  0 Multiplicity = 1

                         Standard orientation:
 ---------------------------------------------------------------------
 Center     Atomic      Atomic             Coordinates (Angstroms)
 Number     Number       Type             X           Y           Z
 ---------------------------------------------------------------------
      1          6           0       -0.779780   -0.023408   -0.001329
      2          6           0        0.777048   -0.004551   -0.007602
      3          1           0       -1.037744    1.123612    0.066362
      4          1           0       -1.156438   -0.540611    0.904584
      5          1           0       -1.166446   -0.447976   -0.947936
      6          1           0        1.062028    1.008407   -0.348203
      7          1           0        1.139240   -0.169918    1.015585
      8          1           0        1.175754   -0.805762   -0.636805
 ---------------------------------------------------------------------

 SCF Done:  E(RB3LYP) =  -79.8103177709     A.U. after    9 cycles

 The electronic state is 1-A.
 Alpha  occ. eigenvalues --  -10.17516 -10.16607  -0.74901  -0.60472  -0.43966
 Alpha  occ. eigenvalues --   -0.43845  -0.35322  -0.34714  -0.33668
 Alpha virt. eigenvalues --    0.04388   0.08619   0.09333   0.09421   0.15563
 Alpha virt. eigenvalues --    0.16033   0.20130   0.37193   0.38552   0.39721
 Alpha virt. eigenvalues --    0.47940   0.51116   0.56986   0.60115   0.63129

 Mulliken charges:
               1
     1  C   -0.290742
     2  C   -0.259336
     3  H    0.088725
     4  H    0.096318
     5  H    0.097150
     6  H    0.091897
     7  H    0.086204
     8  H    0.089785
 Sum of Mulliken charges =  -0.00000

 Dipole moment (field-independent basis, Debye):
    X=              0.0615    Y=             -0.0339    Z=              0.0240  Tot=              0.0743
 Quadrupole moment (field-independent basis, Debye-Ang):
   XX=            -16.6754   YY=            -14.8929   ZZ=            -14.9180
   XY=              0.0806   XZ=              0.0723   YZ=             -0.0033

 Normal termination of Gaussian 16 at Fri Sep 22 16:29:12 2023.
