 Gaussian 16, Revision A.03,
 Gaussian 16:  ES64L-G16RevA.03 25-Dec-2016

 ----------------------------------------------------------------------
 #p b3lyp/gen scrf=(cpcm,solvent=toluene) pop=hirshfeld empiricaldisper
 sion=gd3bj
 ----------------------------------------------------------------------

 ---------------------
 tmpdir/M2_ref_304.gjf
 ---------------------
 Symbolic Z-matrix:
 Charge =  0 Multiplicity = 1

                         Standard orientation:
 ---------------------------------------------------------------------
 Center     Atomic      Atomic             Coordinates (Angstroms)
 Number     Number       Type             X           Y           Z
 ---------------------------------------------------------------------
      1          6           0       -0.693167    0.513621   -0.000846
      2          6           0        0.727818    0.468091   -0.003556
      3          1           0       -1.201914    1.400910    0.016680
      4          6           0       -1.433823   -0.710706   -0.001088
      5          6           0        1.385654   -0.738400    0.002975
      6          1           0        1.283022    1.403453   -0.001589
 ---------------------------------------------------------------------

 SCF Done:  E(RB3LYP) =  -153.285812852     A.U. after   14 cycles

 The electronic state is 1-A.
 Alpha  occ. eigenvalues --  -10.27944 -10.27027 -10.22540 -10.22320  -0.85705
 Alpha  occ. eigenvalues --   -0.73513  -0.61660  -0.51127  -0.50018  -0.36894
 Alpha  occ. eigenvalues --   -0.33350  -0.31408  -0.25621
 Alpha virt. eigenvalues --   -0.14465  -0.11677  -0.08180   0.04244   0.06065
 Alpha virt. eigenvalues --    0.09943   0.19568   0.26406   0.30438   0.36512
 Alpha virt. eigenvalues --    0.39233   0.43243   0.44324   0.45776   0.46171

 Mulliken charges:
               1
     1  C   -0.132085
     2  C   -0.161418
     3  H    0.122666
     4  C    0.007004
     5  C   -0.000950
     6  H    0.164782
 Sum of Mulliken charges =  -0.00000

 Dipole moment (field-independent basis, Debye):
    X=              0.0760    Y=              4.0059    Z=              0.0188  Tot=              4.0067
 Quadrupole moment (field-independent basis, Debye-Ang):
   XX=            -25.6138   YY=            -24.4374   ZZ=            -26.6292
   XY=              0.2114   XZ=             -0.0651   YZ=              0.0417

 Normal termination of Gaussian 16 at Fri Sep 22 16:31:15 2023.
