 Gaussian 16, Revision A.03,
 Gaussian 16:  ES64L-G16RevA.03 25-Dec-2016

 ----------------------------------------------------------------------
 #p b3lyp/gen scrf=(cpcm,solvent=toluene) pop=hirshfeld empiricaldisper
 sion=gd3bj
 ----------------------------------------------------------------------

 --------------------
 tmpdir/M2_ref_44.gjf
 --------------------
 Symbolic Z-matrix:
 Charge =  0 Multiplicity = 1

                         Standard orientation:
 ---------------------------------------------------------------------
 Center     Atomic      Atomic             Coordinates (Angstroms)
 Number     Number       Type             X           Y           Z
 ---------------------------------------------------------------------
      1          7           0        0.983745   -0.818992    0.020381
      2          6           0        0.018999    0.135145   -0.002689
      3          7           0       -1.229670   -0.369617   -0.046487
      4          1           0        0.665653   -1.792792    0.064823
      5          1           0        1.974236   -0.633523   -0.059904
      6          8           0        0.291992    1.405717   -0.001060
      7          1           0       -1.277209   -1.395980   -0.048268
      8          1           0       -2.091132    0.085947    0.250697
 ---------------------------------------------------------------------

 SCF Done:  E(RB3LYP) =  -225.236242325     A.U. after   11 cycles

 The electronic state is 1-A.
 Alpha  occ. eigenvalues --  -19.06949 -14.34368 -14.34218 -10.30910  -1.02166
 Alpha  occ. eigenvalues --   -0.92203  -0.88450  -0.63466  -0.55113  -0.54736
 Alpha  occ. eigenvalues --   -0.49345  -0.42266  -0.40086  -0.28270  -0.26249
 Alpha  occ. eigenvalues --   -0.25379
 Alpha virt. eigenvalues --    0.01804   0.04830   0.07235   0.07451   0.13122
 Alpha virt. eigenvalues --    0.23852   0.27030   0.37499   0.43832   0.45755
 Alpha virt. eigenvalues --    0.47703   0.50467   0.51459   0.53574   0.63891

 Mulliken charges:
               1
     1  N   -0.374829
     2  C    0.504491
     3  N   -0.376015
     4  H    0.189638
     5  H    0.203146
     6  O   -0.540242
     7  H    0.186464
     8  H    0.207348
 Sum of Mulliken charges =   0.00000

 Dipole moment (field-independent basis, Debye):
    X=             -1.1611    Y=             -5.8075    Z=              0.4638  Tot=              5.9405
 Quadrupole moment (field-independent basis, Debye-Ang):
   XX=            -16.3275   YY=            -24.9943   ZZ=            -25.8084
   XY=             -1.6072   XZ=             -1.5040   YZ=              0.0463

 Normal termination of Gaussian 16 at Fri Sep 22 16:28:33 2023.
