 Gaussian 16, Revision A.03,
 Gaussian 16:  ES64L-G16RevA.03 25-Dec-2016

 ----------------------------------------------------------------------
 #p b3lyp/gen scrf=(cpcm,solvent=toluene) pop=hirshfeld empiricaldisper
 sion=gd3bj
 ----------------------------------------------------------------------

 ---------------------
 tmpdir/M2_ref_327.gjf
 ---------------------
 Symbolic Z-matrix:
 Charge =  0 Multiplicity = 1

                         Standard orientation:
 ---------------------------------------------------------------------
 Center     Atomic      Atomic             Coordinates (Angstroms)
 Number     Number       Type             X           Y           Z
 ---------------------------------------------------------------------
      1          6           0        0.707542    0.494985   -0.000645
      2          6           0       -0.710068    0.494203   -0.000392
      3          1           0       -1.249178    1.439398    0.003508
      4          8           0        1.323575   -0.550092    0.000456
      5          1           0        1.243434    1.442320   -0.000241
      6          8           0       -1.320963   -0.552013   -0.000087
 ---------------------------------------------------------------------

 SCF Done:  E(RB3LYP) =  -227.779073831     A.U. after   10 cycles

 The electronic state is 1-A.
 Alpha  occ. eigenvalues --  -19.16130 -19.16123 -10.28739 -10.28697  -1.10762
 Alpha  occ. eigenvalues --   -1.07160  -0.75207  -0.57909  -0.55981  -0.48458
 Alpha  occ. eigenvalues --   -0.46356  -0.45854  -0.39355  -0.31864  -0.28509
 Alpha virt. eigenvalues --   -0.13389   0.02900   0.05831   0.09267   0.15250
 Alpha virt. eigenvalues --    0.26067   0.32230   0.37949   0.38674   0.44534
 Alpha virt. eigenvalues --    0.50709   0.56820   0.58929   0.63477   0.66140

 Mulliken charges:
               1
     1  C    0.233990
     2  C    0.233756
     3  H    0.067715
     4  O   -0.302197
     5  H    0.067730
     6  O   -0.300993
 Sum of Mulliken charges =   0.00000

 Dipole moment (field-independent basis, Debye):
    X=             -0.0157    Y=              4.1388    Z=             -0.0011  Tot=              4.1388
 Quadrupole moment (field-independent basis, Debye-Ang):
   XX=            -26.5852   YY=            -21.7308   ZZ=            -21.1631
   XY=             -0.0096   XZ=             -0.0032   YZ=              0.0010

 Normal termination of Gaussian 16 at Fri Sep 22 16:31:03 2023.
