 Gaussian 16, Revision A.03,
 Gaussian 16:  ES64L-G16RevA.03 25-Dec-2016

 ----------------------------------------------------------------------
 #p b3lyp/gen scrf=(cpcm,solvent=toluene) pop=hirshfeld empiricaldisper
 sion=gd3bj
 ----------------------------------------------------------------------

 ---------------------
 tmpdir/M2_ref_183.gjf
 ---------------------
 Symbolic Z-matrix:
 Charge =  0 Multiplicity = 1

                         Standard orientation:
 ---------------------------------------------------------------------
 Center     Atomic      Atomic             Coordinates (Angstroms)
 Number     Number       Type             X           Y           Z
 ---------------------------------------------------------------------
      1          6           0       -1.197134   -0.284002    0.011164
      2          6           0       -0.004243    0.666289   -0.002964
      3          6           0        1.197248   -0.277575    0.003966
      4          1           0       -1.429386   -0.619672    1.030308
      5          1           0       -2.090945    0.150202   -0.444023
      6          1           0       -0.823375   -1.179144   -0.624776
      7          1           0       -0.013999    1.346790    0.855077
      8          1           0       -0.021427    1.276951   -0.913066
      9          1           0        0.890326   -1.165395   -0.618796
     10          1           0        1.400985   -0.614862    1.028744
     11          1           0        2.112592    0.176859   -0.386465
 ---------------------------------------------------------------------

 SCF Done:  E(RB3LYP) =  -119.116925200     A.U. after   10 cycles

 The electronic state is 1-A.
 Alpha  occ. eigenvalues --  -10.16747 -10.16615 -10.16407  -0.78965  -0.66928
 Alpha  occ. eigenvalues --   -0.58517  -0.46587  -0.44945  -0.38961  -0.36504
 Alpha  occ. eigenvalues --   -0.34811  -0.33197  -0.32879
 Alpha virt. eigenvalues --    0.04773   0.07814   0.08246   0.08946   0.11315
 Alpha virt. eigenvalues --    0.14176   0.15052   0.17020   0.19929   0.24046
 Alpha virt. eigenvalues --    0.36004   0.37664   0.40670   0.41178   0.44765

 Mulliken charges:
               1
     1  C   -0.231173
     2  C   -0.232734
     3  C   -0.224175
     4  H    0.091156
     5  H    0.084524
     6  H    0.080156
     7  H    0.091410
     8  H    0.087491
     9  H    0.081532
    10  H    0.087484
    11  H    0.084328
 Sum of Mulliken charges =  -0.00000

 Dipole moment (field-independent basis, Debye):
    X=              0.0094    Y=              0.1601    Z=              0.0550  Tot=              0.1696
 Quadrupole moment (field-independent basis, Debye-Ang):
   XX=            -23.0278   YY=            -22.4637   ZZ=            -21.5393
   XY=             -0.1093   XZ=             -0.0176   YZ=             -0.0187

 Normal termination of Gaussian 16 at Fri Sep 22 16:29:00 2023.
