 Gaussian 16, Revision A.03,
 Gaussian 16:  ES64L-G16RevA.03 25-Dec-2016

 ----------------------------------------------------------------------
 #p b3lyp/gen scrf=(cpcm,solvent=toluene) pop=hirshfeld empiricaldisper
 sion=gd3bj
 ----------------------------------------------------------------------

 ---------------------
 tmpdir/M2_ref_156.gjf
 ---------------------
 Symbolic Z-matrix:
 Charge =  0 Multiplicity = 1

                         Standard orientation:
 ---------------------------------------------------------------------
 Center     Atomic      Atomic             Coordinates (Angstroms)
 Number     Number       Type             X           Y           Z
 ---------------------------------------------------------------------
      1          6           0       -1.194920   -0.274408   -0.010427
      2          6           0        0.042630    0.670276    0.001809
      3          7           0        1.178968   -0.306125    0.008224
      4          1           0       -0.829604   -1.239960   -0.407367
      5          1           0       -1.552885   -0.405598    1.019180
      6          1           0       -2.011793    0.158041   -0.595669
      7          1           0        0.063789    1.267523    0.936100
      8          1           0        0.070649    1.284905   -0.918668
      9          1           0        2.061903   -0.008674   -0.047945
     10          1           0        0.858908   -1.288569    0.008511
 ---------------------------------------------------------------------

 SCF Done:  E(RB3LYP) =  -135.131757771     A.U. after   10 cycles

 The electronic state is 1-A.
 Alpha  occ. eigenvalues --  -14.27179 -10.19968 -10.16905  -0.86418  -0.72369
 Alpha  occ. eigenvalues --   -0.60533  -0.51410  -0.45192  -0.42152  -0.37441
 Alpha  occ. eigenvalues --   -0.35804  -0.35386  -0.21203
 Alpha virt. eigenvalues --    0.05203   0.07353   0.08568   0.09318   0.12226
 Alpha virt. eigenvalues --    0.15287   0.15723   0.20075   0.21909   0.38373
 Alpha virt. eigenvalues --    0.40923   0.43977   0.47314   0.52477   0.57537

 Mulliken charges:
               1
     1  C   -0.245679
     2  C    0.000698
     3  N   -0.498604
     4  H    0.081789
     5  H    0.094953
     6  H    0.090800
     7  H    0.089636
     8  H    0.085292
     9  H    0.126580
    10  H    0.174534
 Sum of Mulliken charges =   0.00000

 Dipole moment (field-independent basis, Debye):
    X=             -0.1695    Y=             -0.0026    Z=             -0.0812  Tot=              0.1880
 Quadrupole moment (field-independent basis, Debye-Ang):
   XX=            -20.0461   YY=            -19.7087   ZZ=            -22.0917
   XY=             -0.0467   XZ=             -0.3144   YZ=             -0.0117

 Normal termination of Gaussian 16 at Fri Sep 22 16:29:06 2023.
