 Gaussian 16, Revision A.03,
 Gaussian 16:  ES64L-G16RevA.03 25-Dec-2016

 ----------------------------------------------------------------------
 #p b3lyp/gen scrf=(cpcm,solvent=toluene) pop=hirshfeld empiricaldisper
 sion=gd3bj
 ----------------------------------------------------------------------

 --------------------
 tmpdir/M2_ref_14.gjf
 --------------------
 Symbolic Z-matrix:
 Charge =  0 Multiplicity = 1

                         Standard orientation:
 ---------------------------------------------------------------------
 Center     Atomic      Atomic             Coordinates (Angstroms)
 Number     Number       Type             X           Y           Z
 ---------------------------------------------------------------------
      1          6           0       -0.689276    0.521201    0.001395
      2          6           0        0.711041    0.506721   -0.002723
      3          1           0        1.273616    1.434232   -0.004934
      4          8           0       -1.318409   -0.563407   -0.001465
      5          1           0       -1.303347    1.431331    0.009174
      6          8           0        1.305801   -0.565729    0.001931
 ---------------------------------------------------------------------

 SCF Done:  E(RB3LYP) =  -227.772973931     A.U. after   11 cycles

 The electronic state is 1-A.
 Alpha  occ. eigenvalues --  -19.16286 -19.16140 -10.29145 -10.29094  -1.09719
 Alpha  occ. eigenvalues --   -1.05524  -0.75750  -0.58175  -0.55971  -0.48173
 Alpha  occ. eigenvalues --   -0.45836  -0.45150  -0.38386  -0.31276  -0.29071
 Alpha virt. eigenvalues --   -0.14265   0.02236   0.05655   0.08852   0.14582
 Alpha virt. eigenvalues --    0.26027   0.31924   0.37389   0.37909   0.44740
 Alpha virt. eigenvalues --    0.49000   0.57378   0.58114   0.61164   0.65987

 Mulliken charges:
               1
     1  C    0.224744
     2  C    0.250959
     3  H    0.074163
     4  O   -0.327250
     5  H    0.084601
     6  O   -0.307218
 Sum of Mulliken charges =  -0.00000

 Dipole moment (field-independent basis, Debye):
    X=              0.0867    Y=              4.3460    Z=             -0.0009  Tot=              4.3469
 Quadrupole moment (field-independent basis, Debye-Ang):
   XX=            -26.3971   YY=            -21.6133   ZZ=            -21.2970
   XY=             -0.0794   XZ=             -0.0175   YZ=              0.0019

 Normal termination of Gaussian 16 at Fri Sep 22 16:28:11 2023.
