 Gaussian 16, Revision A.03,
 Gaussian 16:  ES64L-G16RevA.03 25-Dec-2016

 ----------------------------------------------------------------------
 #p b3lyp/gen scrf=(cpcm,solvent=toluene) pop=hirshfeld empiricaldisper
 sion=gd3bj
 ----------------------------------------------------------------------

 ---------------------
 tmpdir/M2_ref_227.gjf
 ---------------------
 Symbolic Z-matrix:
 Charge =  0 Multiplicity = 1

                         Standard orientation:
 ---------------------------------------------------------------------
 Center     Atomic      Atomic             Coordinates (Angstroms)
 Number     Number       Type             X           Y           Z
 ---------------------------------------------------------------------
      1          6           0       -0.818427    0.497761    0.012274
      2          6           0        0.600956    0.672578   -0.014722
      3          6           0        1.422773   -0.487105    0.003225
      4          8           0       -1.290388   -0.660926   -0.008252
      5          1           0       -1.421796    1.330299    0.048175
      6          1           0        0.985512    1.625289   -0.031388
      7          1           0        1.022218   -1.397488    0.007817
      8          1           0        2.505361   -0.370090    0.036752
 ---------------------------------------------------------------------

 SCF Done:  E(RB3LYP) =  -191.867326464     A.U. after   11 cycles

 The electronic state is 1-A.
 Alpha  occ. eigenvalues --  -19.11812 -10.26265 -10.21243 -10.19801  -1.03594
 Alpha  occ. eigenvalues --   -0.79595  -0.68310  -0.57088  -0.52431  -0.45859
 Alpha  occ. eigenvalues --   -0.42439  -0.40629  -0.39998  -0.28238  -0.26870
 Alpha virt. eigenvalues --   -0.09651   0.04143   0.06223   0.08329   0.11304
 Alpha virt. eigenvalues --    0.13373   0.21334   0.24732   0.27977   0.40648
 Alpha virt. eigenvalues --    0.42822   0.46258   0.46364   0.48047   0.51406

 Mulliken charges:
               1
     1  C    0.335864
     2  C   -0.248230
     3  C    0.009648
     4  O   -0.409552
     5  H    0.047986
     6  H    0.061215
     7  H    0.078989
     8  H    0.124081
 Sum of Mulliken charges =  -0.00000

 Dipole moment (field-independent basis, Debye):
    X=              2.3792    Y=              2.2175    Z=              0.0738  Tot=              3.2532
 Quadrupole moment (field-independent basis, Debye-Ang):
   XX=            -23.9005   YY=            -22.2176   ZZ=            -25.0511
   XY=             -3.8630   XZ=              0.0105   YZ=             -0.0432

 Normal termination of Gaussian 16 at Fri Sep 22 16:29:37 2023.
