 Gaussian 16, Revision A.03,
 Gaussian 16:  ES64L-G16RevA.03 25-Dec-2016

 ----------------------------------------------------------------------
 #p b3lyp/gen scrf=(cpcm,solvent=toluene) pop=hirshfeld empiricaldisper
 sion=gd3bj
 ----------------------------------------------------------------------

 --------------------
 tmpdir/M2_ref_55.gjf
 --------------------
 Symbolic Z-matrix:
 Charge =  0 Multiplicity = 1

                         Standard orientation:
 ---------------------------------------------------------------------
 Center     Atomic      Atomic             Coordinates (Angstroms)
 Number     Number       Type             X           Y           Z
 ---------------------------------------------------------------------
      1          6           0       -0.845930    0.473980    0.055837
      2          7           0        0.484504    0.590844   -0.123513
      3          6           0        1.491872   -0.445855    0.042720
      4          1           0       -1.327224    1.402861    0.263988
      5          8           0       -1.497464   -0.647120   -0.030884
      6          1           0        0.847450    1.547304   -0.027919
      7          1           0        2.097628   -0.177390    0.940976
      8          1           0        0.969284   -1.386101    0.219759
      9          1           0        2.125391   -0.514364   -0.876483
 ---------------------------------------------------------------------

 SCF Done:  E(RB3LYP) =  -209.172628999     A.U. after   11 cycles

 The electronic state is 1-A.
 Alpha  occ. eigenvalues --  -19.09061 -14.35856 -10.28251 -10.22260  -1.00911
 Alpha  occ. eigenvalues --   -0.92989  -0.72993  -0.60017  -0.55305  -0.46535
 Alpha  occ. eigenvalues --   -0.46003  -0.41737  -0.39398  -0.37294  -0.26475
 Alpha  occ. eigenvalues --   -0.25933
 Alpha virt. eigenvalues --   -0.00352   0.03229   0.06769   0.09790   0.10921
 Alpha virt. eigenvalues --    0.12076   0.16861   0.21882   0.30579   0.37325
 Alpha virt. eigenvalues --    0.38249   0.43855   0.47151   0.49547   0.55330

 Mulliken charges:
               1
     1  C    0.391643
     2  N   -0.455114
     3  C   -0.018561
     4  H    0.069240
     5  O   -0.516702
     6  H    0.197623
     7  H    0.108152
     8  H    0.109375
     9  H    0.114343
 Sum of Mulliken charges =  -0.00000

 Dipole moment (field-independent basis, Debye):
    X=              4.0517    Y=              3.2840    Z=              0.6292  Tot=              5.2533
 Quadrupole moment (field-independent basis, Debye-Ang):
   XX=            -26.7213   YY=            -22.1601   ZZ=            -24.9646
   XY=             -3.2958   XZ=             -0.1146   YZ=              0.3789

 Normal termination of Gaussian 16 at Fri Sep 22 16:27:40 2023.
