 Gaussian 16, Revision A.03,
 Gaussian 16:  ES64L-G16RevA.03 25-Dec-2016

 ----------------------------------------------------------------------
 #p b3lyp/gen scrf=(cpcm,solvent=toluene) pop=hirshfeld empiricaldisper
 sion=gd3bj
 ----------------------------------------------------------------------

 ---------------------
 tmpdir/M2_ref_160.gjf
 ---------------------
 Symbolic Z-matrix:
 Charge =  0 Multiplicity = 1

                         Standard orientation:
 ---------------------------------------------------------------------
 Center     Atomic      Atomic             Coordinates (Angstroms)
 Number     Number       Type             X           Y           Z
 ---------------------------------------------------------------------
      1          7           0        1.388006   -0.515935   -0.126804
      2          6           0        0.578712    0.716413    0.139703
      3          6           0       -0.898071    0.455202   -0.160643
      4          1           0        1.387407   -0.911700   -0.972129
      5          1           0        1.852792   -0.877589    0.722204
      6          1           0        0.736495    0.865128    1.245709
      7          1           0        1.004382    1.567862   -0.429409
      8          1           0       -1.481076    1.169582   -0.539851
      9          8           0       -1.412486   -0.653928    0.123342
 ---------------------------------------------------------------------

 SCF Done:  E(RB3LYP) =  -209.116124894     A.U. after   11 cycles

 The electronic state is 1-A.
 Alpha  occ. eigenvalues --  -19.12573 -14.28738 -10.26491 -10.22191  -1.03479
 Alpha  occ. eigenvalues --   -0.87288  -0.71585  -0.60456  -0.52390  -0.48828
 Alpha  occ. eigenvalues --   -0.44299  -0.42584  -0.40542  -0.36393  -0.26784
 Alpha  occ. eigenvalues --   -0.22607
 Alpha virt. eigenvalues --   -0.05514   0.04731   0.07629   0.09041   0.10769
 Alpha virt. eigenvalues --    0.14375   0.17737   0.23223   0.23994   0.41970
 Alpha virt. eigenvalues --    0.44376   0.45467   0.50619   0.52008   0.54593

 Mulliken charges:
               1
     1  N   -0.465119
     2  C   -0.022040
     3  C    0.278804
     4  H    0.136480
     5  H    0.188825
     6  H    0.133945
     7  H    0.107239
     8  H    0.030995
     9  O   -0.389129
 Sum of Mulliken charges =  -0.00000

 Dipole moment (field-independent basis, Debye):
    X=              1.7137    Y=              2.4059    Z=             -0.2434  Tot=              2.9638
 Quadrupole moment (field-independent basis, Debye-Ang):
   XX=            -27.5352   YY=            -24.1753   ZZ=            -21.5737
   XY=             -4.4113   XZ=              1.8572   YZ=              0.3822

 Normal termination of Gaussian 16 at Fri Sep 22 16:30:08 2023.
