 Gaussian 16, Revision A.03,
 Gaussian 16:  ES64L-G16RevA.03 25-Dec-2016

 ----------------------------------------------------------------------
 #p b3lyp/gen scrf=(cpcm,solvent=toluene) pop=hirshfeld empiricaldisper
 sion=gd3bj
 ----------------------------------------------------------------------

 ---------------------
 tmpdir/M2_ref_389.gjf
 ---------------------
 Symbolic Z-matrix:
 Charge =  0 Multiplicity = 1

                         Standard orientation:
 ---------------------------------------------------------------------
 Center     Atomic      Atomic             Coordinates (Angstroms)
 Number     Number       Type             X           Y           Z
 ---------------------------------------------------------------------
      1          6           0       -0.645222    0.371543   -0.004610
      2          6           0        0.524878   -0.435167   -0.002083
      3          6           0        1.775326    0.140637    0.001706
      4          8           0       -1.792730   -0.127327    0.004185
      5          1           0       -0.543205    1.401881   -0.014128
      6          1           0        0.415968   -1.519058   -0.003779
      7          1           0        1.874348    1.160398    0.017430
      8          1           0        2.664833   -0.486688   -0.003080
 ---------------------------------------------------------------------

 SCF Done:  E(RB3LYP) =  -191.884117822     A.U. after   11 cycles

 The electronic state is 1-A.
 Alpha  occ. eigenvalues --  -19.12158 -10.26422 -10.21553 -10.20397  -1.03658
 Alpha  occ. eigenvalues --   -0.81397  -0.66937  -0.59309  -0.49794  -0.47937
 Alpha  occ. eigenvalues --   -0.42060  -0.40879  -0.40257  -0.29660  -0.26917
 Alpha virt. eigenvalues --   -0.08780   0.03602   0.05941   0.06869   0.10976
 Alpha virt. eigenvalues --    0.13162   0.20832   0.25861   0.28811   0.39620
 Alpha virt. eigenvalues --    0.43526   0.45042   0.46780   0.47448   0.50704

 Mulliken charges:
               1
     1  C    0.314615
     2  C   -0.222872
     3  C   -0.036019
     4  O   -0.410936
     5  H    0.039376
     6  H    0.097966
     7  H    0.091226
     8  H    0.126644
 Sum of Mulliken charges =  -0.00000

 Dipole moment (field-independent basis, Debye):
    X=              4.0342    Y=              0.9686    Z=             -0.0125  Tot=              4.1489
 Quadrupole moment (field-independent basis, Debye-Ang):
   XX=            -27.5789   YY=            -21.4964   ZZ=            -25.0751
   XY=             -1.0191   XZ=              0.0404   YZ=              0.0190

 Normal termination of Gaussian 16 at Fri Sep 22 16:31:41 2023.
