 Gaussian 16, Revision A.03,
 Gaussian 16:  ES64L-G16RevA.03 25-Dec-2016

 ----------------------------------------------------------------------
 #p b3lyp/gen scrf=(cpcm,solvent=toluene) pop=hirshfeld empiricaldisper
 sion=gd3bj
 ----------------------------------------------------------------------

 ---------------------
 tmpdir/M2_ref_213.gjf
 ---------------------
 Symbolic Z-matrix:
 Charge =  0 Multiplicity = 1

                         Standard orientation:
 ---------------------------------------------------------------------
 Center     Atomic      Atomic             Coordinates (Angstroms)
 Number     Number       Type             X           Y           Z
 ---------------------------------------------------------------------
      1          6           0       -1.445279   -0.475762   -0.005838
      2          6           0       -0.570882    0.647793   -0.004632
      3          6           0        0.793558    0.486768    0.010802
      4          1           0       -2.539085   -0.329176    0.083241
      5          1           0       -1.049033   -1.389951   -0.041618
      6          1           0       -0.979079    1.654609   -0.046196
      7          8           0        1.307414   -0.656167   -0.000760
      8          1           0        1.443499    1.361061    0.008663
 ---------------------------------------------------------------------

 SCF Done:  E(RB3LYP) =  -191.869548494     A.U. after   12 cycles

 The electronic state is 1-A.
 Alpha  occ. eigenvalues --  -19.11627 -10.26223 -10.21946 -10.20175  -1.03466
 Alpha  occ. eigenvalues --   -0.80235  -0.68633  -0.55654  -0.52375  -0.45727
 Alpha  occ. eigenvalues --   -0.42807  -0.40378  -0.39721  -0.28372  -0.26762
 Alpha virt. eigenvalues --   -0.10211   0.04989   0.05454   0.08000   0.10884
 Alpha virt. eigenvalues --    0.13100   0.21428   0.24289   0.29399   0.40163
 Alpha virt. eigenvalues --    0.42081   0.44679   0.46203   0.47186   0.51414

 Mulliken charges:
               1
     1  C    0.009721
     2  C   -0.271486
     3  C    0.304991
     4  H    0.134658
     5  H    0.080037
     6  H    0.091333
     7  O   -0.411548
     8  H    0.062294
 Sum of Mulliken charges =   0.00000

 Dipole moment (field-independent basis, Debye):
    X=             -2.7100    Y=              2.0851    Z=              0.0128  Tot=              3.4194
 Quadrupole moment (field-independent basis, Debye-Ang):
   XX=            -23.8148   YY=            -22.5202   ZZ=            -25.0893
   XY=              3.7588   XZ=             -0.0981   YZ=             -0.0375

 Normal termination of Gaussian 16 at Fri Sep 22 16:30:00 2023.
