 Gaussian 16, Revision A.03,
 Gaussian 16:  ES64L-G16RevA.03 25-Dec-2016

 ----------------------------------------------------------------------
 #p b3lyp/gen scrf=(cpcm,solvent=toluene) pop=hirshfeld empiricaldisper
 sion=gd3bj
 ----------------------------------------------------------------------

 ---------------------
 tmpdir/M2_ref_346.gjf
 ---------------------
 Symbolic Z-matrix:
 Charge =  0 Multiplicity = 1

                         Standard orientation:
 ---------------------------------------------------------------------
 Center     Atomic      Atomic             Coordinates (Angstroms)
 Number     Number       Type             X           Y           Z
 ---------------------------------------------------------------------
      1          6           0       -0.627449    0.426379    0.001309
      2          6           0        0.581454   -0.345259   -0.028992
      3          1           0        0.514493   -1.417778    0.123684
      4          8           0       -1.718290   -0.191860   -0.004962
      5          1           0       -0.627590    1.443033    0.071349
      6          8           0        1.766923    0.127864    0.001345
 ---------------------------------------------------------------------

 SCF Done:  E(RB3LYP) =  -227.773518934     A.U. after   11 cycles

 The electronic state is 1-A.
 Alpha  occ. eigenvalues --  -19.17196 -19.16877 -10.29893 -10.29784  -1.08299
 Alpha  occ. eigenvalues --   -1.05779  -0.75000  -0.62638  -0.52203  -0.49863
 Alpha  occ. eigenvalues --   -0.45814  -0.44822  -0.38758  -0.32815  -0.29127
 Alpha virt. eigenvalues --   -0.14587  -0.00022   0.06933   0.08717   0.14435
 Alpha virt. eigenvalues --    0.24200   0.29148   0.38264   0.41006   0.44310
 Alpha virt. eigenvalues --    0.46564   0.56352   0.57158   0.59289   0.67691

 Mulliken charges:
               1
     1  C    0.294342
     2  C    0.228917
     3  H    0.098197
     4  O   -0.342230
     5  H    0.074325
     6  O   -0.353551
 Sum of Mulliken charges =  -0.00000

 Dipole moment (field-independent basis, Debye):
    X=             -0.3075    Y=              0.3737    Z=              0.0628  Tot=              0.4880
 Quadrupole moment (field-independent basis, Debye-Ang):
   XX=            -32.7992   YY=            -20.3570   ZZ=            -21.3620
   XY=             -2.5256   XZ=             -0.0075   YZ=             -0.0441

 Normal termination of Gaussian 16 at Fri Sep 22 16:31:13 2023.
