 Gaussian 16, Revision A.03,
 Gaussian 16:  ES64L-G16RevA.03 25-Dec-2016

 ----------------------------------------------------------------------
 #p b3lyp/gen scrf=(cpcm,solvent=toluene) pop=hirshfeld empiricaldisper
 sion=gd3bj
 ----------------------------------------------------------------------

 ---------------------
 tmpdir/M2_ref_245.gjf
 ---------------------
 Symbolic Z-matrix:
 Charge =  0 Multiplicity = 1

                         Standard orientation:
 ---------------------------------------------------------------------
 Center     Atomic      Atomic             Coordinates (Angstroms)
 Number     Number       Type             X           Y           Z
 ---------------------------------------------------------------------
      1          6           0        1.305507    0.243711    0.003663
      2          6           0        0.115637   -0.442028   -0.009892
      3          6           0       -1.257187    0.145507    0.001546
      4          1           0        2.073634   -0.444294    0.006417
      5          1           0        1.418966    1.321132   -0.009073
      6          1           0        0.351530   -1.518034    0.005169
      7          1           0       -1.167687    1.227336   -0.143974
      8          1           0       -1.903939   -0.242339   -0.793938
      9          1           0       -1.756249   -0.026939    0.963501
 ---------------------------------------------------------------------

 SCF Done:  E(RB3LYP) =  -117.886298604     A.U. after   10 cycles

 The electronic state is 1-A.
 Alpha  occ. eigenvalues --  -10.18602 -10.17586 -10.16659  -0.78829  -0.69362
 Alpha  occ. eigenvalues --   -0.55151  -0.47413  -0.42408  -0.41810  -0.36968
 Alpha  occ. eigenvalues --   -0.35372  -0.25826
 Alpha virt. eigenvalues --    0.00113   0.05668   0.07668   0.09227   0.12022
 Alpha virt. eigenvalues --    0.13049   0.14868   0.22135   0.30522   0.35528
 Alpha virt. eigenvalues --    0.41233   0.41874   0.48862   0.50970   0.53026

 Mulliken charges:
               1
     1  C   -0.117470
     2  C   -0.303188
     3  C   -0.125047
     4  H    0.073967
     5  H    0.086787
     6  H    0.079050
     7  H    0.089891
     8  H    0.105751
     9  H    0.110259
 Sum of Mulliken charges =  -0.00000

 Dipole moment (field-independent basis, Debye):
    X=             -0.4939    Y=             -0.0381    Z=              0.0283  Tot=              0.4962
 Quadrupole moment (field-independent basis, Debye-Ang):
   XX=            -19.6188   YY=            -19.0376   ZZ=            -22.0462
   XY=             -0.1731   XZ=              0.0005   YZ=             -0.0393

 Normal termination of Gaussian 16 at Fri Sep 22 16:30:11 2023.
