 Gaussian 16, Revision A.03,
 Gaussian 16:  ES64L-G16RevA.03 25-Dec-2016

 ----------------------------------------------------------------------
 #p b3lyp/gen scrf=(cpcm,solvent=toluene) pop=hirshfeld empiricaldisper
 sion=gd3bj
 ----------------------------------------------------------------------

 --------------------
 tmpdir/M2_ref_46.gjf
 --------------------
 Symbolic Z-matrix:
 Charge =  0 Multiplicity = 1

                         Standard orientation:
 ---------------------------------------------------------------------
 Center     Atomic      Atomic             Coordinates (Angstroms)
 Number     Number       Type             X           Y           Z
 ---------------------------------------------------------------------
      1          7           0        1.553803   -0.266751   -0.045474
      2          6           0        0.449586    0.502748    0.021259
      3         16           0       -1.144956   -0.106292   -0.004936
      4          1           0        2.440042    0.252718   -0.025046
      5          1           0        1.640501   -1.247276    0.217255
      6          1           0        0.664609    1.546007    0.077538
 ---------------------------------------------------------------------

 SCF Done:  E(RB3LYP) =  -492.845442104     A.U. after   11 cycles

 The electronic state is 1-A.
 Alpha  occ. eigenvalues --  -88.81337 -14.37812 -10.28216  -7.89815  -5.86733
 Alpha  occ. eigenvalues --   -5.86291  -5.85778  -0.96279  -0.74762  -0.63048
 Alpha  occ. eigenvalues --   -0.55555  -0.49773  -0.39227  -0.37302  -0.24922
 Alpha  occ. eigenvalues --   -0.22707
 Alpha virt. eigenvalues --   -0.05931   0.02711   0.05960   0.07020   0.13353
 Alpha virt. eigenvalues --    0.22533   0.31525   0.32948   0.33542   0.36747
 Alpha virt. eigenvalues --    0.43814   0.44742   0.45443   0.50712   0.60299

 Mulliken charges:
               1
     1  N   -0.285367
     2  C    0.045574
     3  S   -0.309437
     4  H    0.205429
     5  H    0.215205
     6  H    0.128595
 Sum of Mulliken charges =   0.00000

 Dipole moment (field-independent basis, Debye):
    X=              5.6918    Y=              0.4422    Z=              0.5075  Tot=              5.7315
 Quadrupole moment (field-independent basis, Debye-Ang):
   XX=            -21.1367   YY=            -23.9129   ZZ=            -27.8481
   XY=              0.1765   XZ=              0.8935   YZ=             -0.5619

 Normal termination of Gaussian 16 at Fri Sep 22 16:27:35 2023.
