 Gaussian 16, Revision A.03,
 Gaussian 16:  ES64L-G16RevA.03 25-Dec-2016

 ----------------------------------------------------------------------
 #p b3lyp/gen scrf=(cpcm,solvent=toluene) pop=hirshfeld empiricaldisper
 sion=gd3bj
 ----------------------------------------------------------------------

 ---------------------
 tmpdir/M2_ref_358.gjf
 ---------------------
 Symbolic Z-matrix:
 Charge =  0 Multiplicity = 1

                         Standard orientation:
 ---------------------------------------------------------------------
 Center     Atomic      Atomic             Coordinates (Angstroms)
 Number     Number       Type             X           Y           Z
 ---------------------------------------------------------------------
      1          6           0        1.314178   -0.525044   -0.001027
      2          6           0       -0.000738    0.206289    0.000335
      3          6           0       -1.212601   -0.686458    0.000611
      4          1           0        1.400778   -1.151875    0.898366
      5          1           0        1.370323   -1.205863   -0.862664
      6          1           0        2.185702    0.135063   -0.029657
      7          8           0       -0.124428    1.381598   -0.000198
      8          1           0       -1.215821   -1.343846    0.882382
      9          1           0       -2.144507   -0.110649   -0.004995
     10          1           0       -1.206084   -1.344331   -0.881363
 ---------------------------------------------------------------------

 SCF Done:  E(RB3LYP) =  -193.135482170     A.U. after   11 cycles

 The electronic state is 1-A.
 Alpha  occ. eigenvalues --  -19.11692 -10.26803 -10.18059 -10.17682  -1.07216
 Alpha  occ. eigenvalues --   -0.77702  -0.71228  -0.53972  -0.47081  -0.46814
 Alpha  occ. eigenvalues --   -0.46079  -0.40306  -0.40218  -0.38208  -0.36651
 Alpha  occ. eigenvalues --   -0.25831
 Alpha virt. eigenvalues --   -0.01555   0.03981   0.09228   0.09834   0.10605
 Alpha virt. eigenvalues --    0.13208   0.13943   0.17037   0.25359   0.26750
 Alpha virt. eigenvalues --    0.37921   0.39233   0.43087   0.46635   0.47439

 Mulliken charges:
               1
     1  C   -0.195361
     2  C    0.062672
     3  C   -0.203916
     4  H    0.117721
     5  H    0.116144
     6  H    0.104667
     7  O   -0.331798
     8  H    0.113379
     9  H    0.103436
    10  H    0.113056
 Sum of Mulliken charges =  -0.00000

 Dipole moment (field-independent basis, Debye):
    X=              0.3744    Y=             -3.2529    Z=              0.0121  Tot=              3.2744
 Quadrupole moment (field-independent basis, Debye-Ang):
   XX=            -24.0535   YY=            -29.0895   ZZ=            -24.2962
   XY=              0.2929   XZ=              0.0224   YZ=             -0.0044

 Normal termination of Gaussian 16 at Fri Sep 22 16:32:08 2023.
