 Gaussian 16, Revision A.03,
 Gaussian 16:  ES64L-G16RevA.03 25-Dec-2016

 ----------------------------------------------------------------------
 #p b3lyp/gen scrf=(cpcm,solvent=toluene) pop=hirshfeld empiricaldisper
 sion=gd3bj
 ----------------------------------------------------------------------

 ---------------------
 tmpdir/M2_ref_236.gjf
 ---------------------
 Symbolic Z-matrix:
 Charge =  0 Multiplicity = 1

                         Standard orientation:
 ---------------------------------------------------------------------
 Center     Atomic      Atomic             Coordinates (Angstroms)
 Number     Number       Type             X           Y           Z
 ---------------------------------------------------------------------
      1          6           0       -0.697970   -0.026256   -0.017300
      2          6           0        0.697843   -0.016946    0.013441
      3          1           0       -1.032215    1.008189   -0.022690
      4          1           0       -1.330065   -0.882167    0.074940
      5          1           0        0.999206    0.968999    0.035077
      6          1           0        1.363834   -0.835808   -0.064174
 ---------------------------------------------------------------------

 SCF Done:  E(RB3LYP) =  -78.5643955336     A.U. after    9 cycles

 The electronic state is 1-A.
 Alpha  occ. eigenvalues --  -10.18607 -10.17981  -0.76219  -0.58791  -0.48847
 Alpha  occ. eigenvalues --   -0.40344  -0.37612  -0.27144
 Alpha virt. eigenvalues --   -0.01623   0.06136   0.09520   0.10076   0.16535
 Alpha virt. eigenvalues --    0.25958   0.35030   0.43722   0.43899   0.51041
 Alpha virt. eigenvalues --    0.52413   0.54190   0.62663   0.66457   0.68302

 Mulliken charges:
               1
     1  C   -0.211069
     2  C   -0.173199
     3  H    0.100557
     4  H    0.101960
     5  H    0.082222
     6  H    0.099529
 Sum of Mulliken charges =  -0.00000

 Dipole moment (field-independent basis, Debye):
    X=              0.0327    Y=              0.0491    Z=              0.0254  Tot=              0.0642
 Quadrupole moment (field-independent basis, Debye-Ang):
   XX=            -12.6973   YY=            -12.1877   ZZ=            -15.7347
   XY=             -0.0129   XZ=             -0.1463   YZ=             -0.0010

 Normal termination of Gaussian 16 at Fri Sep 22 16:29:48 2023.
