 Gaussian 16, Revision A.03,
 Gaussian 16:  ES64L-G16RevA.03 25-Dec-2016

 ----------------------------------------------------------------------
 #p b3lyp/gen scrf=(cpcm,solvent=toluene) pop=hirshfeld empiricaldisper
 sion=gd3bj
 ----------------------------------------------------------------------

 ---------------------
 tmpdir/M2_ref_253.gjf
 ---------------------
 Symbolic Z-matrix:
 Charge =  0 Multiplicity = 1

                         Standard orientation:
 ---------------------------------------------------------------------
 Center     Atomic      Atomic             Coordinates (Angstroms)
 Number     Number       Type             X           Y           Z
 ---------------------------------------------------------------------
      1          6           0        0.684985   -0.025833   -0.004596
      2          6           0       -0.688298   -0.010159    0.003137
      3          1           0       -1.334463   -0.879782   -0.006876
      4          1           0        1.029743    1.020447    0.005384
      5          1           0        1.323711   -0.897781    0.011779
      6          1           0       -0.999116    0.973073   -0.001531
 ---------------------------------------------------------------------

 SCF Done:  E(RB3LYP) =  -78.5685018849     A.U. after    9 cycles

 The electronic state is 1-A.
 Alpha  occ. eigenvalues --  -10.18492 -10.17882  -0.76539  -0.58083  -0.48821
 Alpha  occ. eigenvalues --   -0.40414  -0.37075  -0.27533
 Alpha virt. eigenvalues --   -0.00996   0.05961   0.09094   0.10040   0.16513
 Alpha virt. eigenvalues --    0.26347   0.34577   0.43440   0.43497   0.51297
 Alpha virt. eigenvalues --    0.52471   0.53778   0.61941   0.66547   0.68970

 Mulliken charges:
               1
     1  C   -0.220595
     2  C   -0.171729
     3  H    0.105660
     4  H    0.101645
     5  H    0.103442
     6  H    0.081578
 Sum of Mulliken charges =  -0.00000

 Dipole moment (field-independent basis, Debye):
    X=             -0.0180    Y=              0.0313    Z=              0.0097  Tot=              0.0374
 Quadrupole moment (field-independent basis, Debye-Ang):
   XX=            -12.8649   YY=            -12.0855   ZZ=            -15.7431
   XY=             -0.0340   XZ=              0.0349   YZ=              0.0002

 Normal termination of Gaussian 16 at Fri Sep 22 16:29:55 2023.
