 Gaussian 16, Revision A.03,
 Gaussian 16:  ES64L-G16RevA.03 25-Dec-2016

 ----------------------------------------------------------------------
 #p b3lyp/gen scrf=(cpcm,solvent=toluene) pop=hirshfeld empiricaldisper
 sion=gd3bj
 ----------------------------------------------------------------------

 ---------------------
 tmpdir/M2_ref_169.gjf
 ---------------------
 Symbolic Z-matrix:
 Charge =  0 Multiplicity = 1

                         Standard orientation:
 ---------------------------------------------------------------------
 Center     Atomic      Atomic             Coordinates (Angstroms)
 Number     Number       Type             X           Y           Z
 ---------------------------------------------------------------------
      1          1           0       -0.620181   -0.828939   -0.385278
      2          6           0       -0.015921   -0.000743    0.007443
      3          1           0       -0.656721    0.865658    0.190068
      4          1           0        0.555020   -0.307579    0.901229
      5          1           0        0.817409    0.275316   -0.750676
 ---------------------------------------------------------------------

 SCF Done:  E(RB3LYP) =  -40.5109999397     A.U. after    7 cycles

 The electronic state is 1-A.
 Alpha  occ. eigenvalues --  -10.16967  -0.68907  -0.40206  -0.39410  -0.37443
 Alpha virt. eigenvalues --    0.05391   0.11570   0.12487   0.12564   0.36695
 Alpha virt. eigenvalues --    0.37485   0.39189   0.60446   0.63658   0.63930
 Alpha virt. eigenvalues --    0.66064   0.95407   1.28603   1.30314   1.81254

 Mulliken charges:
               1
     1  H    0.093287
     2  C   -0.367142
     3  H    0.094303
     4  H    0.090992
     5  H    0.088560
 Sum of Mulliken charges =   0.00000

 Dipole moment (field-independent basis, Debye):
    X=              0.0118    Y=             -0.0097    Z=              0.0161  Tot=              0.0222
 Quadrupole moment (field-independent basis, Debye-Ang):
   XX=             -8.3212   YY=             -8.5033   ZZ=             -8.6961
   XY=             -0.0437   XZ=              0.0912   YZ=              0.0480

 Normal termination of Gaussian 16 at Fri Sep 22 16:29:28 2023.
