 Gaussian 16, Revision A.03,
 Gaussian 16:  ES64L-G16RevA.03 25-Dec-2016

 ----------------------------------------------------------------------
 #p b3lyp/gen scrf=(cpcm,solvent=toluene) pop=hirshfeld empiricaldisper
 sion=gd3bj
 ----------------------------------------------------------------------

 ---------------------
 tmpdir/M2_ref_239.gjf
 ---------------------
 Symbolic Z-matrix:
 Charge =  0 Multiplicity = 1

                         Standard orientation:
 ---------------------------------------------------------------------
 Center     Atomic      Atomic             Coordinates (Angstroms)
 Number     Number       Type             X           Y           Z
 ---------------------------------------------------------------------
      1          7           0        1.442294   -0.754400   -0.201901
      2          6           0        0.379986    0.060884    0.144123
      3          6           0       -1.008421   -0.387191    0.363887
      4          1           0        2.226315   -0.198534   -0.400452
      5          1           0        1.454838   -1.770146   -0.019887
      6          8           0        0.774045    1.225780    0.090848
      7          8           0       -1.862721    0.047560   -0.387098
      8          1           0       -1.297199   -0.979397    1.155586
 ---------------------------------------------------------------------

 SCF Done:  E(RB3LYP) =  -283.143884376     A.U. after   12 cycles

 The electronic state is 1-A.
 Alpha  occ. eigenvalues --  -19.16026 -19.10874 -14.34904 -10.30264 -10.29788
 Alpha  occ. eigenvalues --   -1.09514  -1.06299  -0.90727  -0.72950  -0.59852
 Alpha  occ. eigenvalues --   -0.56951  -0.53285  -0.48028  -0.45496  -0.42373
 Alpha  occ. eigenvalues --   -0.40792  -0.31757  -0.28253  -0.27131
 Alpha virt. eigenvalues --   -0.08799  -0.00310   0.03989   0.08438   0.09858
 Alpha virt. eigenvalues --    0.20526   0.22454   0.27534   0.32422   0.39126
 Alpha virt. eigenvalues --    0.43204   0.44616   0.48008   0.49116   0.57933

 Mulliken charges:
               1
     1  N   -0.336890
     2  C    0.292990
     3  C    0.332268
     4  H    0.188654
     5  H    0.196491
     6  O   -0.428127
     7  O   -0.322026
     8  H    0.076640
 Sum of Mulliken charges =  -0.00000

 Dipole moment (field-independent basis, Debye):
    X=              1.8813    Y=             -4.7669    Z=              1.7398  Tot=              5.4120
 Quadrupole moment (field-independent basis, Debye-Ang):
   XX=            -29.0112   YY=            -28.6128   ZZ=            -28.1140
   XY=             -2.2925   XZ=             -3.3869   YZ=             -1.2233

 Normal termination of Gaussian 16 at Fri Sep 22 16:30:26 2023.
