 Gaussian 16, Revision A.03,
 Gaussian 16:  ES64L-G16RevA.03 25-Dec-2016

 ----------------------------------------------------------------------
 #p b3lyp/gen scrf=(cpcm,solvent=toluene) pop=hirshfeld empiricaldisper
 sion=gd3bj
 ----------------------------------------------------------------------

 ---------------------
 tmpdir/M2_ref_252.gjf
 ---------------------
 Symbolic Z-matrix:
 Charge =  0 Multiplicity = 1

                         Standard orientation:
 ---------------------------------------------------------------------
 Center     Atomic      Atomic             Coordinates (Angstroms)
 Number     Number       Type             X           Y           Z
 ---------------------------------------------------------------------
      1          6           0        1.211504   -0.481684    0.011992
      2          6           0        0.579918    0.737654   -0.010962
      3          6           0       -0.826355    0.510336   -0.006005
      4          1           0        0.432086   -1.260243    0.008371
      5          1           0        2.277594   -0.660162    0.000610
      6          1           0        1.066000    1.705949   -0.010231
      7          8           0       -1.002251   -0.707927   -0.005669
      8          1           0       -1.548065    1.280037    0.076455
 ---------------------------------------------------------------------

 SCF Done:  E(RB3LYP) =  -191.829716298     A.U. after   12 cycles

 The electronic state is 1-A.
 Alpha  occ. eigenvalues --  -19.11237 -10.27113 -10.18583 -10.18357  -1.06732
 Alpha  occ. eigenvalues --   -0.78789  -0.67320  -0.55243  -0.52426  -0.48033
 Alpha  occ. eigenvalues --   -0.42115  -0.41505  -0.36348  -0.27289  -0.25849
 Alpha virt. eigenvalues --   -0.08991   0.04830   0.06682   0.08559   0.10823
 Alpha virt. eigenvalues --    0.14068   0.20837   0.26378   0.28193   0.40371
 Alpha virt. eigenvalues --    0.40844   0.43839   0.46416   0.49707   0.50713

 Mulliken charges:
               1
     1  C   -0.033606
     2  C   -0.308092
     3  C    0.358636
     4  H    0.158374
     5  H    0.087612
     6  H    0.071862
     7  O   -0.416506
     8  H    0.081721
 Sum of Mulliken charges =   0.00000

 Dipole moment (field-independent basis, Debye):
    X=              0.8401    Y=              2.2153    Z=              0.0343  Tot=              2.3695
 Quadrupole moment (field-independent basis, Debye-Ang):
   XX=            -23.6774   YY=            -22.6186   ZZ=            -25.0039
   XY=             -3.6336   XZ=             -0.0585   YZ=              0.0484

 Normal termination of Gaussian 16 at Fri Sep 22 16:29:50 2023.
