 Gaussian 16, Revision A.03,
 Gaussian 16:  ES64L-G16RevA.03 25-Dec-2016

 ----------------------------------------------------------------------
 #p b3lyp/gen scrf=(cpcm,solvent=toluene) pop=hirshfeld empiricaldisper
 sion=gd3bj
 ----------------------------------------------------------------------

 ---------------------
 tmpdir/M2_ref_330.gjf
 ---------------------
 Symbolic Z-matrix:
 Charge =  0 Multiplicity = 1

                         Standard orientation:
 ---------------------------------------------------------------------
 Center     Atomic      Atomic             Coordinates (Angstroms)
 Number     Number       Type             X           Y           Z
 ---------------------------------------------------------------------
      1          6           0        0.801823    0.510909    0.002269
      2          6           0       -0.611487    0.635682   -0.007247
      3          6           0       -1.415363   -0.481070    0.003069
      4          8           0        1.308426   -0.644416   -0.003064
      5          1           0        1.431720    1.322851    0.030878
      6          1           0       -1.048930    1.631367   -0.010873
      7          1           0       -1.001815   -1.420240    0.003270
      8          1           0       -2.498222   -0.371772    0.012691
 ---------------------------------------------------------------------

 SCF Done:  E(RB3LYP) =  -191.877576830     A.U. after   11 cycles

 The electronic state is 1-A.
 Alpha  occ. eigenvalues --  -19.11790 -10.26335 -10.20940 -10.19886  -1.03180
 Alpha  occ. eigenvalues --   -0.80176  -0.68144  -0.56593  -0.52415  -0.45577
 Alpha  occ. eigenvalues --   -0.43004  -0.39992  -0.39404  -0.28763  -0.26866
 Alpha virt. eigenvalues --   -0.09460   0.04689   0.05714   0.08327   0.10871
 Alpha virt. eigenvalues --    0.13318   0.21255   0.25365   0.28553   0.40333
 Alpha virt. eigenvalues --    0.41678   0.45525   0.46276   0.47941   0.51697

 Mulliken charges:
               1
     1  C    0.339455
     2  C   -0.274437
     3  C    0.000792
     4  O   -0.416572
     5  H    0.048067
     6  H    0.089181
     7  H    0.092020
     8  H    0.121494
 Sum of Mulliken charges =  -0.00000

 Dipole moment (field-independent basis, Debye):
    X=             -2.4304    Y=              2.2021    Z=              0.0321  Tot=              3.2798
 Quadrupole moment (field-independent basis, Debye-Ang):
   XX=            -23.9313   YY=            -22.3096   ZZ=            -25.0266
   XY=              3.8300   XZ=              0.0036   YZ=             -0.0073

 Normal termination of Gaussian 16 at Fri Sep 22 16:31:25 2023.
