 Gaussian 16, Revision A.03,
 Gaussian 16:  ES64L-G16RevA.03 25-Dec-2016

 ----------------------------------------------------------------------
 #p b3lyp/gen scrf=(cpcm,solvent=toluene) pop=hirshfeld empiricaldisper
 sion=gd3bj
 ----------------------------------------------------------------------

 -------------------
 tmpdir/M2_ref_1.gjf
 -------------------
 Symbolic Z-matrix:
 Charge =  0 Multiplicity = 1

                         Standard orientation:
 ---------------------------------------------------------------------
 Center     Atomic      Atomic             Coordinates (Angstroms)
 Number     Number       Type             X           Y           Z
 ---------------------------------------------------------------------
      1          6           0        0.693183    0.505897   -0.007047
      2          6           0       -0.714251    0.475460   -0.003161
      3          6           0        1.419729   -0.716735    0.001330
      4          1           0        1.233137    1.392129    0.029677
      5          6           0       -1.392532   -0.731350    0.002992
      6          1           0       -1.269907    1.408234    0.005640
 ---------------------------------------------------------------------

 SCF Done:  E(RB3LYP) =  -153.286528215     A.U. after   13 cycles

 The electronic state is 1-A.
 Alpha  occ. eigenvalues --  -10.27763 -10.27171 -10.22437 -10.22330  -0.85878
 Alpha  occ. eigenvalues --   -0.73426  -0.61653  -0.51149  -0.49921  -0.37028
 Alpha  occ. eigenvalues --   -0.33370  -0.31332  -0.25520
 Alpha virt. eigenvalues --   -0.14518  -0.11554  -0.08251   0.04400   0.06000
 Alpha virt. eigenvalues --    0.09843   0.19526   0.26451   0.30952   0.36440
 Alpha virt. eigenvalues --    0.39222   0.43281   0.44426   0.45555   0.46205

 Mulliken charges:
               1
     1  C   -0.138417
     2  C   -0.159811
     3  C    0.003085
     4  H    0.132596
     5  C   -0.000498
     6  H    0.163046
 Sum of Mulliken charges =   0.00000

 Dipole moment (field-independent basis, Debye):
    X=             -0.0291    Y=              3.9944    Z=              0.0444  Tot=              3.9948
 Quadrupole moment (field-independent basis, Debye-Ang):
   XX=            -25.6271   YY=            -24.4462   ZZ=            -26.6197
   XY=             -0.1370   XZ=              0.0756   YZ=              0.0935

 Normal termination of Gaussian 16 at Fri Sep 22 16:27:34 2023.
