 Gaussian 16, Revision A.03,
 Gaussian 16:  ES64L-G16RevA.03 25-Dec-2016

 ----------------------------------------------------------------------
 #p b3lyp/gen scrf=(cpcm,solvent=toluene) pop=hirshfeld empiricaldisper
 sion=gd3bj
 ----------------------------------------------------------------------

 --------------------
 tmpdir/M2_ref_85.gjf
 --------------------
 Symbolic Z-matrix:
 Charge =  0 Multiplicity = 1

                         Standard orientation:
 ---------------------------------------------------------------------
 Center     Atomic      Atomic             Coordinates (Angstroms)
 Number     Number       Type             X           Y           Z
 ---------------------------------------------------------------------
      1          6           0       -0.763971    0.002673    0.001352
      2          6           0        0.763676    0.001999   -0.002218
      3          1           0       -1.138755    0.929174    0.471271
      4          1           0       -1.154122   -0.868473    0.543863
      5          1           0       -1.135273   -0.077320   -1.032505
      6          1           0        1.140809    0.873410   -0.566539
      7          1           0        1.157667   -0.921631   -0.446298
      8          1           0        1.131450    0.036803    1.035406
 ---------------------------------------------------------------------

 SCF Done:  E(RB3LYP) =  -79.8216327488     A.U. after    9 cycles

 The electronic state is 1-A.
 Alpha  occ. eigenvalues --  -10.16602 -10.16583  -0.75422  -0.61149  -0.43851
 Alpha  occ. eigenvalues --   -0.43629  -0.36516  -0.34602  -0.34270
 Alpha virt. eigenvalues --    0.04967   0.09328   0.10543   0.10637   0.13628
 Alpha virt. eigenvalues --    0.13772   0.21435   0.37149   0.39508   0.39666
 Alpha virt. eigenvalues --    0.45909   0.46923   0.58876   0.64195   0.64231

 Mulliken charges:
               1
     1  C   -0.260604
     2  C   -0.261064
     3  H    0.089759
     4  H    0.085465
     5  H    0.085709
     6  H    0.089571
     7  H    0.085686
     8  H    0.085478
 Sum of Mulliken charges =  -0.00000

 Dipole moment (field-independent basis, Debye):
    X=              0.0001    Y=             -0.0319    Z=              0.0034  Tot=              0.0320
 Quadrupole moment (field-independent basis, Debye-Ang):
   XX=            -16.0972   YY=            -14.9142   ZZ=            -15.0247
   XY=             -0.0017   XZ=             -0.0244   YZ=             -0.0002

 Normal termination of Gaussian 16 at Fri Sep 22 16:28:02 2023.
