 Gaussian 16, Revision A.03,
 Gaussian 16:  ES64L-G16RevA.03 25-Dec-2016

 ----------------------------------------------------------------------
 #p b3lyp/gen scrf=(cpcm,solvent=toluene) pop=hirshfeld empiricaldisper
 sion=gd3bj
 ----------------------------------------------------------------------

 ---------------------
 tmpdir/M2_ref_319.gjf
 ---------------------
 Symbolic Z-matrix:
 Charge =  0 Multiplicity = 1

                         Standard orientation:
 ---------------------------------------------------------------------
 Center     Atomic      Atomic             Coordinates (Angstroms)
 Number     Number       Type             X           Y           Z
 ---------------------------------------------------------------------
      1          6           0        0.696095    0.514360    0.001408
      2          6           0       -0.722051    0.470709   -0.006551
      3          6           0        1.422008   -0.718754   -0.003807
      4          1           0        1.225332    1.395281    0.028312
      5          6           0       -1.387867   -0.733447    0.006034
      6          1           0       -1.274442    1.407514   -0.010810
 ---------------------------------------------------------------------

 SCF Done:  E(RB3LYP) =  -153.285730023     A.U. after   13 cycles

 The electronic state is 1-A.
 Alpha  occ. eigenvalues --  -10.27936 -10.27035 -10.22562 -10.22323  -0.85737
 Alpha  occ. eigenvalues --   -0.73462  -0.61601  -0.51217  -0.49928  -0.36918
 Alpha  occ. eigenvalues --   -0.33363  -0.31374  -0.25580
 Alpha virt. eigenvalues --   -0.14517  -0.11598  -0.08214   0.04252   0.06063
 Alpha virt. eigenvalues --    0.09875   0.19472   0.26432   0.30493   0.36467
 Alpha virt. eigenvalues --    0.39246   0.43360   0.44400   0.45613   0.46182

 Mulliken charges:
               1
     1  C   -0.132453
     2  C   -0.161707
     3  C    0.005197
     4  H    0.125032
     5  C   -0.001448
     6  H    0.165378
 Sum of Mulliken charges =  -0.00000

 Dipole moment (field-independent basis, Debye):
    X=             -0.0152    Y=              4.0081    Z=              0.0215  Tot=              4.0082
 Quadrupole moment (field-independent basis, Debye-Ang):
   XX=            -25.5438   YY=            -24.4733   ZZ=            -26.6318
   XY=             -0.1999   XZ=              0.1431   YZ=              0.0488

 Normal termination of Gaussian 16 at Fri Sep 22 16:31:07 2023.
