 Gaussian 16, Revision A.03,
 Gaussian 16:  ES64L-G16RevA.03 25-Dec-2016

 ----------------------------------------------------------------------
 #p b3lyp/gen scrf=(cpcm,solvent=toluene) pop=hirshfeld empiricaldisper
 sion=gd3bj
 ----------------------------------------------------------------------

 ---------------------
 tmpdir/M2_ref_390.gjf
 ---------------------
 Symbolic Z-matrix:
 Charge =  0 Multiplicity = 1

                         Standard orientation:
 ---------------------------------------------------------------------
 Center     Atomic      Atomic             Coordinates (Angstroms)
 Number     Number       Type             X           Y           Z
 ---------------------------------------------------------------------
      1          6           0       -0.585891   -0.383515    0.002987
      2          6           0        0.610427    0.383782    0.002726
      3          1           0        0.537679    1.470685    0.008545
      4          8           0       -1.716151    0.153326   -0.003207
      5          1           0       -0.518244   -1.416707    0.008587
      6          8           0        1.695320   -0.160274   -0.003219
 ---------------------------------------------------------------------

 SCF Done:  E(RB3LYP) =  -227.782890555     A.U. after   11 cycles

 The electronic state is 1-A.
 Alpha  occ. eigenvalues --  -19.16826 -19.16768 -10.29283 -10.29035  -1.10008
 Alpha  occ. eigenvalues --   -1.07177  -0.74786  -0.62150  -0.52170  -0.50236
 Alpha  occ. eigenvalues --   -0.46124  -0.45992  -0.39540  -0.33012  -0.28795
 Alpha virt. eigenvalues --   -0.13697   0.01470   0.06853   0.09056   0.15107
 Alpha virt. eigenvalues --    0.24263   0.31896   0.38058   0.40812   0.44477
 Alpha virt. eigenvalues --    0.47345   0.57490   0.58829   0.62250   0.67222

 Mulliken charges:
               1
     1  C    0.267759
     2  C    0.236162
     3  H    0.083899
     4  O   -0.344018
     5  H    0.071526
     6  O   -0.315328
 Sum of Mulliken charges =   0.00000

 Dipole moment (field-independent basis, Debye):
    X=              0.1699    Y=             -0.0438    Z=              0.0272  Tot=              0.1776
 Quadrupole moment (field-independent basis, Debye-Ang):
   XX=            -32.3208   YY=            -20.4753   ZZ=            -21.2134
   XY=              2.3385   XZ=             -0.0004   YZ=             -0.0005

 Normal termination of Gaussian 16 at Fri Sep 22 16:31:50 2023.
