 Gaussian 16, Revision A.03,
 Gaussian 16:  ES64L-G16RevA.03 25-Dec-2016

 ----------------------------------------------------------------------
 #p b3lyp/gen scrf=(cpcm,solvent=toluene) pop=hirshfeld empiricaldisper
 sion=gd3bj
 ----------------------------------------------------------------------

 ---------------------
 tmpdir/M2_ref_254.gjf
 ---------------------
 Symbolic Z-matrix:
 Charge =  0 Multiplicity = 1

                         Standard orientation:
 ---------------------------------------------------------------------
 Center     Atomic      Atomic             Coordinates (Angstroms)
 Number     Number       Type             X           Y           Z
 ---------------------------------------------------------------------
      1          6           0       -0.707485    0.572702   -0.006812
      2          6           0        0.716865    0.550187   -0.011521
      3          1           0        1.365031    1.418375   -0.012098
      4          8           0       -1.094043   -0.595918   -0.004643
      5          1           0       -1.283236    1.457045    0.074133
      6          8           0        1.076784   -0.605676    0.010639
 ---------------------------------------------------------------------

 SCF Done:  E(RB3LYP) =  -227.745375218     A.U. after   11 cycles

 The electronic state is 1-A.
 Alpha  occ. eigenvalues --  -19.14575 -19.14319 -10.27959 -10.27788  -1.11355
 Alpha  occ. eigenvalues --   -1.04193  -0.73416  -0.58307  -0.56125  -0.47660
 Alpha  occ. eigenvalues --   -0.46080  -0.44708  -0.37210  -0.29342  -0.27788
 Alpha virt. eigenvalues --   -0.12568   0.02252   0.06369   0.08743   0.15289
 Alpha virt. eigenvalues --    0.24052   0.32037   0.35734   0.38368   0.44486
 Alpha virt. eigenvalues --    0.54570   0.55710   0.59942   0.65353   0.67020

 Mulliken charges:
               1
     1  C    0.243479
     2  C    0.215753
     3  H    0.076260
     4  O   -0.312024
     5  H    0.074301
     6  O   -0.297769
 Sum of Mulliken charges =  -0.00000

 Dipole moment (field-independent basis, Debye):
    X=              0.0633    Y=              4.7070    Z=             -0.0042  Tot=              4.7074
 Quadrupole moment (field-independent basis, Debye-Ang):
   XX=            -24.9615   YY=            -21.1016   ZZ=            -21.1674
   XY=             -0.0388   XZ=             -0.0815   YZ=              0.0416

 Normal termination of Gaussian 16 at Fri Sep 22 16:30:05 2023.
