 Gaussian 16, Revision A.03,
 Gaussian 16:  ES64L-G16RevA.03 25-Dec-2016

 ----------------------------------------------------------------------
 #p b3lyp/gen scrf=(cpcm,solvent=toluene) pop=hirshfeld empiricaldisper
 sion=gd3bj
 ----------------------------------------------------------------------

 ------------------------
 tmpdir/M3_conf_0_228.gjf
 ------------------------
 Symbolic Z-matrix:
 Charge =  0 Multiplicity = 1

                         Standard orientation:
 ---------------------------------------------------------------------
 Center     Atomic      Atomic             Coordinates (Angstroms)
 Number     Number       Type             X           Y           Z
 ---------------------------------------------------------------------
      1          6           0       -0.239968    0.421957    0.000565
      2          6           0        1.119952   -0.146632    0.000308
      3          8           0       -1.184542   -0.288275    0.000019
      4          1           0       -0.275135    1.510588   -0.000104
      5          1           0        1.685793    0.188210    0.882056
      6          1           0        1.105048   -1.242016   -0.005731
      7          1           0        1.680724    0.197467   -0.881609
 ---------------------------------------------------------------------

 SCF Done:  E(RB3LYP) =  -153.811526954     A.U. after   10 cycles

 The electronic state is 1-A.
 Alpha  occ. eigenvalues --  -19.12643 -10.26765 -10.17902  -1.07685  -0.75830
 Alpha  occ. eigenvalues --   -0.59064  -0.49101  -0.45256  -0.44943  -0.39737
 Alpha  occ. eigenvalues --   -0.37583  -0.26572
 Alpha virt. eigenvalues --   -0.02581   0.05699   0.08276   0.10843   0.11874
 Alpha virt. eigenvalues --    0.20413   0.24203   0.41673   0.42245   0.44044
 Alpha virt. eigenvalues --    0.46181   0.55354   0.58640   0.60947   0.64675

 Mulliken charges:
               1
     1  C    0.183956
     2  C   -0.235659
     3  O   -0.337037
     4  H    0.050567
     5  H    0.117780
     6  H    0.103226
     7  H    0.117168
 Sum of Mulliken charges =  -0.00000

 Dipole moment (field-independent basis, Debye):
    X=              2.6245    Y=              1.4281    Z=              0.0005  Tot=              2.9879
 Quadrupole moment (field-independent basis, Debye-Ang):
   XX=            -21.1972   YY=            -17.9934   ZZ=            -17.8459
   XY=             -0.9434   XZ=              0.0049   YZ=             -0.0005

 Normal termination of Gaussian 16 at Fri Sep 22 16:36:39 2023.
