 Gaussian 16, Revision A.03,
 Gaussian 16:  ES64L-G16RevA.03 25-Dec-2016

 ----------------------------------------------------------------------
 #p b3lyp/gen scrf=(cpcm,solvent=toluene) pop=hirshfeld empiricaldisper
 sion=gd3bj
 ----------------------------------------------------------------------

 ------------------------
 tmpdir/M3_conf_0_207.gjf
 ------------------------
 Symbolic Z-matrix:
 Charge =  0 Multiplicity = 1

                         Standard orientation:
 ---------------------------------------------------------------------
 Center     Atomic      Atomic             Coordinates (Angstroms)
 Number     Number       Type             X           Y           Z
 ---------------------------------------------------------------------
      1          1           0       -0.103230    1.081707   -0.136682
      2          6           0        0.005340   -0.001693    0.000227
      3          1           0       -0.466539   -0.512887   -0.846277
      4          1           0        1.065568   -0.265121    0.068523
      5          1           0       -0.527836   -0.293541    0.913077
 ---------------------------------------------------------------------

 SCF Done:  E(RB3LYP) =  -40.5140833471     A.U. after    7 cycles

 The electronic state is 1-A.
 Alpha  occ. eigenvalues --  -10.16262  -0.69371  -0.39659  -0.39154  -0.39049
 Alpha virt. eigenvalues --    0.05703   0.12567   0.12580   0.12611   0.37374
 Alpha virt. eigenvalues --    0.37526   0.38075   0.63742   0.63790   0.64076
 Alpha virt. eigenvalues --    0.67771   0.96144   1.28751   1.29069   1.85477

 Mulliken charges:
               1
     1  H    0.086743
     2  C   -0.351028
     3  H    0.086766
     4  H    0.090731
     5  H    0.086788
 Sum of Mulliken charges =  -0.00000

 Dipole moment (field-independent basis, Debye):
    X=             -0.0208    Y=              0.0053    Z=             -0.0015  Tot=              0.0215
 Quadrupole moment (field-independent basis, Debye-Ang):
   XX=             -8.3719   YY=             -8.4770   ZZ=             -8.5001
   XY=             -0.0048   XZ=              0.0025   YZ=              0.0011

 Normal termination of Gaussian 16 at Fri Sep 22 16:35:46 2023.
