 Gaussian 16, Revision A.03,
 Gaussian 16:  ES64L-G16RevA.03 25-Dec-2016

 ----------------------------------------------------------------------
 #p b3lyp/gen scrf=(cpcm,solvent=toluene) pop=hirshfeld empiricaldisper
 sion=gd3bj
 ----------------------------------------------------------------------

 ------------------------
 tmpdir/M3_conf_0_216.gjf
 ------------------------
 Symbolic Z-matrix:
 Charge =  0 Multiplicity = 1

                         Standard orientation:
 ---------------------------------------------------------------------
 Center     Atomic      Atomic             Coordinates (Angstroms)
 Number     Number       Type             X           Y           Z
 ---------------------------------------------------------------------
      1          7           0       -0.630108   -0.021454   -0.118248
      2          6           0       -2.088838   -0.028025    0.092573
      3          1           0       -2.410179    1.009702   -0.040802
      4          6           0        0.135508    1.128853   -0.058372
      5          6           0        0.210462   -1.141164   -0.053677
      6          6           0        1.472042    0.739394    0.048250
      7          6           0        1.502960   -0.685081    0.033913
      8          1           0        2.391598   -1.301147    0.102815
      9          1           0       -2.655022   -0.619845   -0.669156
     10          1           0       -2.293451   -0.320611    1.148866
     11          1           0       -0.227559    2.123743   -0.196203
     12          1           0       -0.111798   -2.171946   -0.100437
     13          1           0        2.324368    1.346419    0.206531
 ---------------------------------------------------------------------

 SCF Done:  E(RB3LYP) =  -249.451072392     A.U. after   12 cycles

 The electronic state is 1-A.
 Alpha  occ. eigenvalues --  -14.36571 -10.22446 -10.19499 -10.19273 -10.15751
 Alpha  occ. eigenvalues --  -10.15592  -0.97852  -0.79893  -0.72171  -0.68865
 Alpha  occ. eigenvalues --   -0.56975  -0.55671  -0.52711  -0.46359  -0.44381
 Alpha  occ. eigenvalues --   -0.41765  -0.40926  -0.38003  -0.37512  -0.36900
 Alpha  occ. eigenvalues --   -0.24110  -0.21766
 Alpha virt. eigenvalues --    0.01611   0.04994   0.06520   0.07498   0.08750
 Alpha virt. eigenvalues --    0.10490   0.11401   0.12008   0.12730   0.13752
 Alpha virt. eigenvalues --    0.21090   0.23500   0.27668   0.30652   0.36680

 Mulliken charges:
               1
     1  N   -0.572084
     2  C    0.017695
     3  H    0.094235
     4  C    0.144415
     5  C    0.145617
     6  C   -0.149616
     7  C   -0.158042
     8  H    0.049226
     9  H    0.115471
    10  H    0.115063
    11  H    0.083254
    12  H    0.076340
    13  H    0.038425
 Sum of Mulliken charges =  -0.00000

 Dipole moment (field-independent basis, Debye):
    X=             -2.4418    Y=              0.0044    Z=              0.1898  Tot=              2.4492
 Quadrupole moment (field-independent basis, Debye-Ang):
   XX=            -31.8670   YY=            -33.3553   ZZ=            -40.4236
   XY=             -0.3232   XZ=              0.4855   YZ=             -0.0835

 Normal termination of Gaussian 16 at Fri Sep 22 16:37:12 2023.
