 Gaussian 16, Revision A.03,
 Gaussian 16:  ES64L-G16RevA.03 25-Dec-2016

 ----------------------------------------------------------------------
 #p b3lyp/gen scrf=(cpcm,solvent=toluene) pop=hirshfeld empiricaldisper
 sion=gd3bj
 ----------------------------------------------------------------------

 ------------------------
 tmpdir/M3_conf_0_233.gjf
 ------------------------
 Symbolic Z-matrix:
 Charge =  0 Multiplicity = 1

                         Standard orientation:
 ---------------------------------------------------------------------
 Center     Atomic      Atomic             Coordinates (Angstroms)
 Number     Number       Type             X           Y           Z
 ---------------------------------------------------------------------
      1          6           0        0.008352   -0.009681   -0.004129
      2          1           0       -0.155738    0.892974   -0.611358
      3          1           0        1.041516   -0.342454   -0.094620
      4          1           0       -0.210581    0.270164    1.036593
      5          1           0       -0.725310   -0.762596   -0.305842
 ---------------------------------------------------------------------

 SCF Done:  E(RB3LYP) =  -40.5135902272     A.U. after    7 cycles

 The electronic state is 1-A.
 Alpha  occ. eigenvalues --  -10.16249  -0.69399  -0.40144  -0.39009  -0.38719
 Alpha virt. eigenvalues --    0.05704   0.12515   0.12551   0.12678   0.37149
 Alpha virt. eigenvalues --    0.37264   0.38592   0.63461   0.63694   0.64499
 Alpha virt. eigenvalues --    0.67872   0.96257   1.28673   1.29122   1.83613

 Mulliken charges:
               1
     1  C   -0.350403
     2  H    0.084643
     3  H    0.093034
     4  H    0.083933
     5  H    0.088792
 Sum of Mulliken charges =  -0.00000

 Dipole moment (field-independent basis, Debye):
    X=             -0.0285    Y=              0.0326    Z=              0.0154  Tot=              0.0460
 Quadrupole moment (field-independent basis, Debye-Ang):
   XX=             -8.2839   YY=             -8.5063   ZZ=             -8.5604
   XY=             -0.0037   XZ=              0.0014   YZ=              0.0097

 Normal termination of Gaussian 16 at Fri Sep 22 16:36:03 2023.
