 Gaussian 16, Revision A.03,
 Gaussian 16:  ES64L-G16RevA.03 25-Dec-2016

 ----------------------------------------------------------------------
 #p b3lyp/gen scrf=(cpcm,solvent=toluene) pop=hirshfeld empiricaldisper
 sion=gd3bj
 ----------------------------------------------------------------------

 -----------------------
 tmpdir/M3_conf_0_21.gjf
 -----------------------
 Symbolic Z-matrix:
 Charge =  0 Multiplicity = 1

                         Standard orientation:
 ---------------------------------------------------------------------
 Center     Atomic      Atomic             Coordinates (Angstroms)
 Number     Number       Type             X           Y           Z
 ---------------------------------------------------------------------
      1          6           0       -0.126053    0.421398    0.006209
      2          7           0        1.088179   -0.184539   -0.007981
      3          1           0        1.902219    0.437933   -0.044063
      4          1           0       -0.066837    1.478278    0.043659
      5          8           0       -1.240921   -0.246333   -0.006514
      6          1           0        1.231045   -1.182159    0.071130
 ---------------------------------------------------------------------

 SCF Done:  E(RB3LYP) =  -169.868916137     A.U. after   11 cycles

 The electronic state is 1-A.
 Alpha  occ. eigenvalues --  -19.09478 -14.35806 -10.29040  -1.00894  -0.91471
 Alpha  occ. eigenvalues --   -0.64750  -0.55580  -0.49897  -0.41201  -0.39924
 Alpha  occ. eigenvalues --   -0.27889  -0.26312
 Alpha virt. eigenvalues --   -0.00610   0.03697   0.06723   0.11919   0.20051
 Alpha virt. eigenvalues --    0.29851   0.41751   0.43860   0.48099   0.49993
 Alpha virt. eigenvalues --    0.54621   0.66144   0.67632   0.69186   0.73891

 Mulliken charges:
               1
     1  C    0.369962
     2  N   -0.342275
     3  H    0.206197
     4  H    0.072909
     5  O   -0.507250
     6  H    0.200458
 Sum of Mulliken charges =  -0.00000

 Dipole moment (field-independent basis, Debye):
    X=              4.9193    Y=              1.2270    Z=              0.1245  Tot=              5.0715
 Quadrupole moment (field-independent basis, Debye-Ang):
   XX=            -18.3568   YY=            -14.7767   ZZ=            -18.8927
   XY=             -1.2694   XZ=              0.0198   YZ=             -0.2015

 Normal termination of Gaussian 16 at Fri Sep 22 16:33:08 2023.
