 Gaussian 16, Revision A.03,
 Gaussian 16:  ES64L-G16RevA.03 25-Dec-2016

 ----------------------------------------------------------------------
 #p b3lyp/gen scrf=(cpcm,solvent=toluene) pop=hirshfeld empiricaldisper
 sion=gd3bj
 ----------------------------------------------------------------------

 -----------------------
 tmpdir/M3_conf_0_27.gjf
 -----------------------
 Symbolic Z-matrix:
 Charge =  0 Multiplicity = 1

                         Standard orientation:
 ---------------------------------------------------------------------
 Center     Atomic      Atomic             Coordinates (Angstroms)
 Number     Number       Type             X           Y           Z
 ---------------------------------------------------------------------
      1          6           0       -0.840671    0.475407    0.057152
      2          7           0        0.488392    0.602149   -0.125289
      3          6           0        1.475946   -0.452955    0.043570
      4          1           0       -1.327710    1.400156    0.270412
      5          8           0       -1.484764   -0.649793   -0.032462
      6          1           0        0.844999    1.560726   -0.026692
      7          1           0        2.083001   -0.196772    0.944544
      8          1           0        0.935584   -1.383740    0.217319
      9          1           0        2.111839   -0.531785   -0.873196
 ---------------------------------------------------------------------

 SCF Done:  E(RB3LYP) =  -209.173040186     A.U. after   11 cycles

 The electronic state is 1-A.
 Alpha  occ. eigenvalues --  -19.09088 -14.35860 -10.28219 -10.22187  -1.00956
 Alpha  occ. eigenvalues --   -0.92984  -0.72903  -0.60045  -0.55302  -0.46543
 Alpha  occ. eigenvalues --   -0.45980  -0.41648  -0.39471  -0.37256  -0.26499
 Alpha  occ. eigenvalues --   -0.25953
 Alpha virt. eigenvalues --   -0.00364   0.03266   0.06754   0.09823   0.10935
 Alpha virt. eigenvalues --    0.12207   0.16915   0.21922   0.30580   0.37330
 Alpha virt. eigenvalues --    0.38382   0.43997   0.47145   0.49633   0.55095

 Mulliken charges:
               1
     1  C    0.390931
     2  N   -0.453515
     3  C   -0.019637
     4  H    0.069124
     5  O   -0.516732
     6  H    0.198159
     7  H    0.107777
     8  H    0.110023
     9  H    0.113870
 Sum of Mulliken charges =   0.00000

 Dipole moment (field-independent basis, Debye):
    X=              3.9937    Y=              3.2903    Z=              0.6444  Tot=              5.2145
 Quadrupole moment (field-independent basis, Debye-Ang):
   XX=            -26.7245   YY=            -22.1161   ZZ=            -24.9716
   XY=             -3.2715   XZ=             -0.1171   YZ=              0.3874

 Normal termination of Gaussian 16 at Fri Sep 22 16:32:50 2023.
