 Gaussian 16, Revision A.03,
 Gaussian 16:  ES64L-G16RevA.03 25-Dec-2016

 ----------------------------------------------------------------------
 #p b3lyp/gen scrf=(cpcm,solvent=toluene) pop=hirshfeld empiricaldisper
 sion=gd3bj
 ----------------------------------------------------------------------

 ------------------------
 tmpdir/M3_conf_0_231.gjf
 ------------------------
 Symbolic Z-matrix:
 Charge =  0 Multiplicity = 1

                         Standard orientation:
 ---------------------------------------------------------------------
 Center     Atomic      Atomic             Coordinates (Angstroms)
 Number     Number       Type             X           Y           Z
 ---------------------------------------------------------------------
      1          6           0        1.360720   -0.475195   -0.000998
      2          6           0        0.006867    0.181234    0.000310
      3          6           0       -1.215430   -0.697178    0.000595
      4          1           0        1.482263   -1.096256    0.898362
      5          1           0        1.455016   -1.151760   -0.862674
      6          1           0        2.193873    0.232774   -0.029596
      7          8           0       -0.182549    1.347757   -0.000203
      8          1           0       -1.226492   -1.354483    0.882422
      9          1           0       -2.140523   -0.110407   -0.004987
     10          1           0       -1.216684   -1.355082   -0.881345
 ---------------------------------------------------------------------

 SCF Done:  E(RB3LYP) =  -193.133951591     A.U. after   11 cycles

 The electronic state is 1-A.
 Alpha  occ. eigenvalues --  -19.11375 -10.26692 -10.18276 -10.17566  -1.07133
 Alpha  occ. eigenvalues --   -0.77283  -0.71473  -0.53916  -0.47197  -0.46709
 Alpha  occ. eigenvalues --   -0.45854  -0.40375  -0.39991  -0.38515  -0.36406
 Alpha  occ. eigenvalues --   -0.25569
 Alpha virt. eigenvalues --   -0.01395   0.04047   0.09154   0.09852   0.10584
 Alpha virt. eigenvalues --    0.13015   0.13659   0.17015   0.25201   0.26769
 Alpha virt. eigenvalues --    0.37655   0.39617   0.43080   0.46072   0.48150

 Mulliken charges:
               1
     1  C   -0.182778
     2  C    0.047471
     3  C   -0.196888
     4  H    0.118510
     5  H    0.117007
     6  H    0.106572
     7  O   -0.334352
     8  H    0.110022
     9  H    0.104790
    10  H    0.109645
 Sum of Mulliken charges =  -0.00000

 Dipole moment (field-independent basis, Debye):
    X=              0.5812    Y=             -3.1939    Z=              0.0119  Tot=              3.2464
 Quadrupole moment (field-independent basis, Debye-Ang):
   XX=            -23.8218   YY=            -29.0647   ZZ=            -24.3189
   XY=              0.3937   XZ=              0.0220   YZ=             -0.0034

 Normal termination of Gaussian 16 at Fri Sep 22 16:35:58 2023.
