 Gaussian 16, Revision A.03,
 Gaussian 16:  ES64L-G16RevA.03 25-Dec-2016

 ----------------------------------------------------------------------
 #p b3lyp/gen scrf=(cpcm,solvent=toluene) pop=hirshfeld empiricaldisper
 sion=gd3bj
 ----------------------------------------------------------------------

 ------------------------
 tmpdir/M3_conf_0_203.gjf
 ------------------------
 Symbolic Z-matrix:
 Charge =  0 Multiplicity = 1

                         Standard orientation:
 ---------------------------------------------------------------------
 Center     Atomic      Atomic             Coordinates (Angstroms)
 Number     Number       Type             X           Y           Z
 ---------------------------------------------------------------------
      1          6           0        0.005318   -0.001684    0.000251
      2          1           0       -0.530371   -0.283328    0.914835
      3          1           0        1.065004   -0.265933    0.073670
      4          1           0       -0.101277    1.080419   -0.148023
      5          1           0       -0.465262   -0.521053   -0.841986
 ---------------------------------------------------------------------

 SCF Done:  E(RB3LYP) =  -40.5140840157     A.U. after    7 cycles

 The electronic state is 1-A.
 Alpha  occ. eigenvalues --  -10.16262  -0.69371  -0.39658  -0.39156  -0.39048
 Alpha virt. eigenvalues --    0.05703   0.12567   0.12580   0.12611   0.37373
 Alpha virt. eigenvalues --    0.37528   0.38074   0.63741   0.63791   0.64075
 Alpha virt. eigenvalues --    0.67770   0.96143   1.28750   1.29070   1.85479

 Mulliken charges:
               1
     1  C   -0.351030
     2  H    0.086789
     3  H    0.090719
     4  H    0.086754
     5  H    0.086769
 Sum of Mulliken charges =   0.00000

 Dipole moment (field-independent basis, Debye):
    X=             -0.0207    Y=              0.0052    Z=             -0.0016  Tot=              0.0214
 Quadrupole moment (field-independent basis, Debye-Ang):
   XX=             -8.3721   YY=             -8.4766   ZZ=             -8.5002
   XY=             -0.0048   XZ=              0.0026   YZ=              0.0011

 Normal termination of Gaussian 16 at Fri Sep 22 16:35:30 2023.
