 Gaussian 16, Revision A.03,
 Gaussian 16:  ES64L-G16RevA.03 25-Dec-2016

 ----------------------------------------------------------------------
 #p b3lyp/gen scrf=(cpcm,solvent=toluene) pop=hirshfeld empiricaldisper
 sion=gd3bj
 ----------------------------------------------------------------------

 -----------------------
 tmpdir/M3_conf_0_55.gjf
 -----------------------
 Symbolic Z-matrix:
 Charge =  0 Multiplicity = 1

                         Standard orientation:
 ---------------------------------------------------------------------
 Center     Atomic      Atomic             Coordinates (Angstroms)
 Number     Number       Type             X           Y           Z
 ---------------------------------------------------------------------
      1          1           0       -1.103216   -0.767755    0.702535
      2          6           0       -0.772163    0.009996    0.001743
      3          6           0        0.768071    0.009993   -0.012409
      4          1           0       -1.203144    0.993469    0.260945
      5          1           0       -1.145310   -0.291070   -0.984592
      6          1           0        1.225497    0.860510   -0.576711
      7          1           0        1.133659   -1.033760   -0.357433
      8          1           0        1.117061    0.118669    1.019252
 ---------------------------------------------------------------------

 SCF Done:  E(RB3LYP) =  -79.8175100922     A.U. after    9 cycles

 The electronic state is 1-A.
 Alpha  occ. eigenvalues --  -10.17347 -10.16730  -0.75068  -0.61028  -0.43868
 Alpha  occ. eigenvalues --   -0.43005  -0.36449  -0.34898  -0.33735
 Alpha virt. eigenvalues --    0.04776   0.08999   0.10007   0.10589   0.13445
 Alpha virt. eigenvalues --    0.13940   0.20990   0.37422   0.38278   0.39944
 Alpha virt. eigenvalues --    0.44789   0.49462   0.57821   0.61405   0.63493

 Mulliken charges:
               1
     1  H    0.086455
     2  C   -0.253975
     3  C   -0.282739
     4  H    0.092850
     5  H    0.085364
     6  H    0.095865
     7  H    0.093377
     8  H    0.082801
 Sum of Mulliken charges =  -0.00000

 Dipole moment (field-independent basis, Debye):
    X=             -0.0361    Y=             -0.0096    Z=              0.0713  Tot=              0.0805
 Quadrupole moment (field-independent basis, Debye-Ang):
   XX=            -16.0950   YY=            -14.7591   ZZ=            -15.3213
   XY=              0.0703   XZ=              0.0503   YZ=             -0.0377

 Normal termination of Gaussian 16 at Fri Sep 22 16:32:24 2023.
