 Gaussian 16, Revision A.03,
 Gaussian 16:  ES64L-G16RevA.03 25-Dec-2016

 ----------------------------------------------------------------------
 #p b3lyp/gen scrf=(cpcm,solvent=toluene) pop=hirshfeld empiricaldisper
 sion=gd3bj
 ----------------------------------------------------------------------

 -----------------------
 tmpdir/M3_conf_0_58.gjf
 -----------------------
 Symbolic Z-matrix:
 Charge =  0 Multiplicity = 1

                         Standard orientation:
 ---------------------------------------------------------------------
 Center     Atomic      Atomic             Coordinates (Angstroms)
 Number     Number       Type             X           Y           Z
 ---------------------------------------------------------------------
      1          6           0        0.004450    0.000607    0.001056
      2          1           0       -0.674340    0.062145    0.861650
      3          1           0        0.436222    0.996771   -0.201282
      4          1           0        0.813366   -0.729540    0.189002
      5          1           0       -0.601950   -0.333019   -0.855705
 ---------------------------------------------------------------------

 SCF Done:  E(RB3LYP) =  -40.5138655623     A.U. after    7 cycles

 The electronic state is 1-A.
 Alpha  occ. eigenvalues --  -10.16511  -0.69189  -0.39574  -0.39251  -0.38735
 Alpha virt. eigenvalues --    0.05605   0.12399   0.12477   0.12521   0.37047
 Alpha virt. eigenvalues --    0.37797   0.38194   0.63300   0.63474   0.63659
 Alpha virt. eigenvalues --    0.67008   0.95957   1.28581   1.29465   1.85183

 Mulliken charges:
               1
     1  C   -0.357510
     2  H    0.087546
     3  H    0.090954
     4  H    0.091750
     5  H    0.087261
 Sum of Mulliken charges =   0.00000

 Dipole moment (field-independent basis, Debye):
    X=             -0.0258    Y=             -0.0023    Z=             -0.0016  Tot=              0.0259
 Quadrupole moment (field-independent basis, Debye-Ang):
   XX=             -8.3926   YY=             -8.4375   ZZ=             -8.5759
   XY=             -0.0008   XZ=             -0.0059   YZ=             -0.0015

 Normal termination of Gaussian 16 at Fri Sep 22 16:32:35 2023.
