 Gaussian 16, Revision A.03,
 Gaussian 16:  ES64L-G16RevA.03 25-Dec-2016

 ----------------------------------------------------------------------
 #p b3lyp/gen scrf=(cpcm,solvent=toluene) pop=hirshfeld empiricaldisper
 sion=gd3bj
 ----------------------------------------------------------------------

 -----------------------
 tmpdir/M3_conf_0_35.gjf
 -----------------------
 Symbolic Z-matrix:
 Charge =  0 Multiplicity = 1

                         Standard orientation:
 ---------------------------------------------------------------------
 Center     Atomic      Atomic             Coordinates (Angstroms)
 Number     Number       Type             X           Y           Z
 ---------------------------------------------------------------------
      1          6           0       -0.770241    0.008843    0.005434
      2          6           0        0.771648    0.014509    0.005399
      3          1           0        1.134518   -0.035522    1.032217
      4          1           0       -1.223650    0.964813    0.322032
      5          1           0       -1.113166   -0.225591   -1.013760
      6          1           0       -1.101034   -0.822751    0.640680
      7          1           0        1.114092   -0.936406   -0.529897
      8          1           0        1.180799    0.915343   -0.516272
 ---------------------------------------------------------------------

 SCF Done:  E(RB3LYP) =  -79.8186885268     A.U. after    9 cycles

 The electronic state is 1-A.
 Alpha  occ. eigenvalues --  -10.17178 -10.16675  -0.75103  -0.60940  -0.43815
 Alpha  occ. eigenvalues --   -0.43394  -0.36147  -0.34718  -0.34109
 Alpha virt. eigenvalues --    0.04786   0.09159   0.10041   0.10433   0.13832
 Alpha virt. eigenvalues --    0.13978   0.20857   0.37360   0.39010   0.39760
 Alpha virt. eigenvalues --    0.45531   0.48239   0.57789   0.62171   0.63828

 Mulliken charges:
               1
     1  C   -0.260372
     2  C   -0.275319
     3  H    0.088598
     4  H    0.093408
     5  H    0.084306
     6  H    0.085740
     7  H    0.089289
     8  H    0.094349
 Sum of Mulliken charges =  -0.00000

 Dipole moment (field-independent basis, Debye):
    X=             -0.0297    Y=             -0.0406    Z=              0.0095  Tot=              0.0512
 Quadrupole moment (field-independent basis, Debye-Ang):
   XX=            -16.2098   YY=            -14.8709   ZZ=            -15.1118
   XY=             -0.0250   XZ=              0.0193   YZ=             -0.0394

 Normal termination of Gaussian 16 at Fri Sep 22 16:32:36 2023.
