 Gaussian 16, Revision A.03,
 Gaussian 16:  ES64L-G16RevA.03 25-Dec-2016

 ----------------------------------------------------------------------
 #p b3lyp/gen scrf=(cpcm,solvent=toluene) pop=hirshfeld empiricaldisper
 sion=gd3bj
 ----------------------------------------------------------------------

 -----------------------
 tmpdir/M3_conf_0_70.gjf
 -----------------------
 Symbolic Z-matrix:
 Charge =  0 Multiplicity = 1

                         Standard orientation:
 ---------------------------------------------------------------------
 Center     Atomic      Atomic             Coordinates (Angstroms)
 Number     Number       Type             X           Y           Z
 ---------------------------------------------------------------------
      1          6           0        0.759317    0.003887    0.001192
      2          6           0       -0.766580    0.004450   -0.001983
      3          1           0       -1.147922    0.088663    1.027853
      4          1           0        1.156562   -0.803892    0.629923
      5          1           0        1.115328   -0.200060   -1.015868
      6          1           0        1.196553    0.964332    0.361189
      7          1           0       -1.143590    0.853337   -0.602020
      8          1           0       -1.133353   -0.952404   -0.396332
 ---------------------------------------------------------------------

 SCF Done:  E(RB3LYP) =  -79.8213324415     A.U. after    9 cycles

 The electronic state is 1-A.
 Alpha  occ. eigenvalues --  -10.16670 -10.16611  -0.75418  -0.61194  -0.43789
 Alpha  occ. eigenvalues --   -0.43536  -0.36716  -0.34580  -0.34152
 Alpha virt. eigenvalues --    0.04977   0.09240   0.10419   0.10633   0.13692
 Alpha virt. eigenvalues --    0.13828   0.21552   0.37179   0.39260   0.39445
 Alpha virt. eigenvalues --    0.45790   0.47605   0.58939   0.63935   0.64180

 Mulliken charges:
               1
     1  C   -0.266224
     2  C   -0.256052
     3  H    0.085464
     4  H    0.083871
     5  H    0.084213
     6  H    0.090473
     7  H    0.091173
     8  H    0.087082
 Sum of Mulliken charges =   0.00000

 Dipole moment (field-independent basis, Debye):
    X=              0.0031    Y=             -0.0495    Z=              0.0015  Tot=              0.0496
 Quadrupole moment (field-independent basis, Debye-Ang):
   XX=            -16.0269   YY=            -14.9070   ZZ=            -15.0868
   XY=              0.0208   XZ=              0.0295   YZ=             -0.0043

 Normal termination of Gaussian 16 at Fri Sep 22 16:33:29 2023.
