 Gaussian 16, Revision A.03,
 Gaussian 16:  ES64L-G16RevA.03 25-Dec-2016

 ----------------------------------------------------------------------
 #p b3lyp/gen scrf=(cpcm,solvent=toluene) pop=hirshfeld empiricaldisper
 sion=gd3bj
 ----------------------------------------------------------------------

 -----------------------
 tmpdir/M3_conf_0_83.gjf
 -----------------------
 Symbolic Z-matrix:
 Charge =  0 Multiplicity = 1

                         Standard orientation:
 ---------------------------------------------------------------------
 Center     Atomic      Atomic             Coordinates (Angstroms)
 Number     Number       Type             X           Y           Z
 ---------------------------------------------------------------------
      1          6           0        0.557882   -0.010611   -0.003865
      2          8           0       -0.692000    0.005892    0.000870
      3          1           0        1.121143    0.942536    0.007890
      4          1           0        1.067570   -0.926009    0.008341
 ---------------------------------------------------------------------

 SCF Done:  E(RB3LYP) =  -114.484094332     A.U. after    9 cycles

 The electronic state is 1-A.
 Alpha  occ. eigenvalues --  -19.14167 -10.27933  -1.04638  -0.64964  -0.50430
 Alpha  occ. eigenvalues --   -0.44955  -0.39295  -0.27647
 Alpha virt. eigenvalues --   -0.06285   0.06091   0.11498   0.17500   0.40427
 Alpha virt. eigenvalues --    0.45920   0.52765   0.57607   0.59712   0.71744
 Alpha virt. eigenvalues --    0.79028   0.87461   0.97875   1.32099   1.49601

 Mulliken charges:
               1
     1  C    0.207552
     2  O   -0.384744
     3  H    0.093702
     4  H    0.083490
 Sum of Mulliken charges =  -0.00000

 Dipole moment (field-independent basis, Debye):
    X=              2.8957    Y=             -0.0803    Z=              0.0028  Tot=              2.8968
 Quadrupole moment (field-independent basis, Debye-Ang):
   XX=            -12.0248   YY=            -11.4573   ZZ=            -11.6521
   XY=             -0.0302   XZ=              0.0086   YZ=              0.0004

 Normal termination of Gaussian 16 at Fri Sep 22 16:33:50 2023.
