 Gaussian 16, Revision A.03,
 Gaussian 16:  ES64L-G16RevA.03 25-Dec-2016

 ----------------------------------------------------------------------
 #p b3lyp/gen scrf=(cpcm,solvent=toluene) pop=hirshfeld empiricaldisper
 sion=gd3bj
 ----------------------------------------------------------------------

 -----------------------
 tmpdir/M3_conf_0_75.gjf
 -----------------------
 Symbolic Z-matrix:
 Charge =  0 Multiplicity = 1

                         Standard orientation:
 ---------------------------------------------------------------------
 Center     Atomic      Atomic             Coordinates (Angstroms)
 Number     Number       Type             X           Y           Z
 ---------------------------------------------------------------------
      1          6           0       -1.174273   -0.147429    0.003608
      2          6           0        0.232748    0.452690   -0.007793
      3          1           0       -1.231021   -0.981192   -0.764112
      4          1           0       -1.898738    0.612621   -0.292644
      5          1           0       -1.470850   -0.514569    1.033290
      6          8           0        1.235696   -0.305076    0.006043
      7          1           0        0.364185    1.492180    0.000232
 ---------------------------------------------------------------------

 SCF Done:  E(RB3LYP) =  -153.805438465     A.U. after   10 cycles

 The electronic state is 1-A.
 Alpha  occ. eigenvalues --  -19.12806 -10.27697 -10.19455  -1.03589  -0.74882
 Alpha  occ. eigenvalues --   -0.60104  -0.48126  -0.44203  -0.43499  -0.39566
 Alpha  occ. eigenvalues --   -0.36158  -0.26796
 Alpha virt. eigenvalues --   -0.05274   0.05377   0.07592   0.11211   0.12006
 Alpha virt. eigenvalues --    0.19814   0.21601   0.39849   0.41620   0.44976
 Alpha virt. eigenvalues --    0.46367   0.55790   0.58024   0.59134   0.60164

 Mulliken charges:
               1
     1  C   -0.249836
     2  C    0.203622
     3  H    0.132949
     4  H    0.097236
     5  H    0.144678
     6  O   -0.395968
     7  H    0.067319
 Sum of Mulliken charges =  -0.00000

 Dipole moment (field-independent basis, Debye):
    X=             -2.8543    Y=              1.5651    Z=              0.0289  Tot=              3.2554
 Quadrupole moment (field-independent basis, Debye-Ang):
   XX=            -21.6273   YY=            -17.7971   ZZ=            -17.8431
   XY=              1.3869   XZ=             -0.1650   YZ=              0.0364

 Normal termination of Gaussian 16 at Fri Sep 22 16:33:48 2023.
