 Gaussian 16, Revision A.03,
 Gaussian 16:  ES64L-G16RevA.03 25-Dec-2016

 ----------------------------------------------------------------------
 #p b3lyp/gen scrf=(cpcm,solvent=toluene) pop=hirshfeld empiricaldisper
 sion=gd3bj
 ----------------------------------------------------------------------

 ------------------------
 tmpdir/M3_conf_0_220.gjf
 ------------------------
 Symbolic Z-matrix:
 Charge =  0 Multiplicity = 1

                         Standard orientation:
 ---------------------------------------------------------------------
 Center     Atomic      Atomic             Coordinates (Angstroms)
 Number     Number       Type             X           Y           Z
 ---------------------------------------------------------------------
      1          6           0       -0.552579    0.221097   -0.035313
      2          6           0       -1.954674    0.523009   -0.007561
      3          8           0       -2.807538   -0.427040    0.008677
      4          6           0        0.362762    1.309446   -0.018034
      5          6           0       -0.061109   -1.098009   -0.017564
      6          6           0        1.739361    1.053055    0.000710
      7          6           0        1.301390   -1.341643    0.010727
      8          1           0       -0.759400   -1.929480   -0.015482
      9          6           0        2.193246   -0.261738    0.014640
     10          1           0        2.453848    1.869275    0.009503
     11          1           0        1.674513   -2.362392    0.031203
     12          1           0        3.265759   -0.447178    0.033975
     13          1           0       -2.260088    1.542780    0.204296
     14          1           0       -0.084710    2.312015   -0.018544
 ---------------------------------------------------------------------

 SCF Done:  E(RB3LYP) =  -345.534978015     A.U. after   13 cycles

 The electronic state is 1-A.
 Alpha  occ. eigenvalues --  -19.12162 -10.27182 -10.20994 -10.20471 -10.20207
 Alpha  occ. eigenvalues --  -10.20121 -10.20107 -10.19906  -1.02441  -0.88212
 Alpha  occ. eigenvalues --   -0.78841  -0.77203  -0.67173  -0.63087  -0.58724
 Alpha  occ. eigenvalues --   -0.53519  -0.49851  -0.47190  -0.45298  -0.44469
 Alpha  occ. eigenvalues --   -0.43012  -0.41246  -0.37946  -0.36837  -0.36240
 Alpha  occ. eigenvalues --   -0.27999  -0.27551  -0.26922
 Alpha virt. eigenvalues --   -0.08832  -0.03243   0.01702   0.04349   0.06261
 Alpha virt. eigenvalues --    0.08495   0.09854   0.11715   0.13014   0.13734
 Alpha virt. eigenvalues --    0.21110   0.22789   0.25316   0.25800   0.26984

 Mulliken charges:
               1
     1  C   -0.344747
     2  C    0.390443
     3  O   -0.420264
     4  C    0.012940
     5  C    0.058096
     6  C   -0.034830
     7  C   -0.042996
     8  H    0.058927
     9  C   -0.042271
    10  H    0.075856
    11  H    0.078021
    12  H    0.077882
    13  H    0.065344
    14  H    0.067597
 Sum of Mulliken charges =  -0.00000

 Dipole moment (field-independent basis, Debye):
    X=              3.9035    Y=              1.7574    Z=              0.1103  Tot=              4.2822
 Quadrupole moment (field-independent basis, Debye-Ang):
   XX=            -52.4670   YY=            -40.1127   ZZ=            -49.9359
   XY=             -5.1948   XZ=             -0.0185   YZ=              0.0699

 Normal termination of Gaussian 16 at Fri Sep 22 16:36:06 2023.
