 Gaussian 16, Revision A.03,
 Gaussian 16:  ES64L-G16RevA.03 25-Dec-2016

 ----------------------------------------------------------------------
 #p b3lyp/gen scrf=(cpcm,solvent=toluene) pop=hirshfeld empiricaldisper
 sion=gd3bj
 ----------------------------------------------------------------------

 -----------------------
 tmpdir/M3_conf_0_49.gjf
 -----------------------
 Symbolic Z-matrix:
 Charge =  0 Multiplicity = 1

                         Standard orientation:
 ---------------------------------------------------------------------
 Center     Atomic      Atomic             Coordinates (Angstroms)
 Number     Number       Type             X           Y           Z
 ---------------------------------------------------------------------
      1          6           0       -0.004592   -0.009021   -0.002373
      2          1           0       -0.119841    0.604953    0.898408
      3          1           0       -0.964404   -0.512258   -0.216031
      4          1           0        0.270928    0.683124   -0.808986
      5          1           0        0.840872   -0.721693    0.140849
 ---------------------------------------------------------------------

 SCF Done:  E(RB3LYP) =  -40.5133334384     A.U. after    7 cycles

 The electronic state is 1-A.
 Alpha  occ. eigenvalues --  -10.16554  -0.69176  -0.39788  -0.39054  -0.38644
 Alpha virt. eigenvalues --    0.05577   0.12298   0.12457   0.12560   0.36919
 Alpha virt. eigenvalues --    0.37493   0.38633   0.62929   0.63435   0.63685
 Alpha virt. eigenvalues --    0.67114   0.96058   1.28628   1.29403   1.83154

 Mulliken charges:
               1
     1  C   -0.358370
     2  H    0.084820
     3  H    0.094801
     4  H    0.085961
     5  H    0.092788
 Sum of Mulliken charges =  -0.00000

 Dipole moment (field-independent basis, Debye):
    X=              0.0109    Y=              0.0547    Z=              0.0109  Tot=              0.0568
 Quadrupole moment (field-independent basis, Debye-Ang):
   XX=             -8.3141   YY=             -8.4864   ZZ=             -8.6177
   XY=              0.0191   XZ=              0.0009   YZ=              0.0042

 Normal termination of Gaussian 16 at Fri Sep 22 16:32:40 2023.
