 Gaussian 16, Revision A.03,
 Gaussian 16:  ES64L-G16RevA.03 25-Dec-2016

 ----------------------------------------------------------------------
 #p b3lyp/gen scrf=(cpcm,solvent=toluene) pop=hirshfeld empiricaldisper
 sion=gd3bj
 ----------------------------------------------------------------------

 ------------------------
 tmpdir/M3_conf_0_173.gjf
 ------------------------
 Symbolic Z-matrix:
 Charge =  0 Multiplicity = 1

                         Standard orientation:
 ---------------------------------------------------------------------
 Center     Atomic      Atomic             Coordinates (Angstroms)
 Number     Number       Type             X           Y           Z
 ---------------------------------------------------------------------
      1          7           0       -0.629966   -0.021450   -0.118282
      2          6           0       -2.089296   -0.028026    0.092585
      3          6           0        0.135646    1.128863   -0.058385
      4          6           0        0.210604   -1.141156   -0.053687
      5          6           0        1.472178    0.739395    0.048276
      6          6           0        1.503098   -0.685067    0.033930
      7          1           0        2.391735   -1.301140    0.102853
      8          1           0       -2.655474   -0.619700   -0.669263
      9          1           0       -2.293943   -0.320794    1.148823
     10          1           0       -2.411362    1.009498   -0.040655
     11          1           0       -0.227419    2.123752   -0.196221
     12          1           0       -0.111653   -2.171947   -0.100464
     13          1           0        2.324500    1.346426    0.206587
 ---------------------------------------------------------------------

 SCF Done:  E(RB3LYP) =  -249.451063719     A.U. after   12 cycles

 The electronic state is 1-A.
 Alpha  occ. eigenvalues --  -14.36573 -10.22452 -10.19499 -10.19274 -10.15750
 Alpha  occ. eigenvalues --  -10.15592  -0.97844  -0.79884  -0.72169  -0.68867
 Alpha  occ. eigenvalues --   -0.56972  -0.55669  -0.52711  -0.46354  -0.44377
 Alpha  occ. eigenvalues --   -0.41760  -0.40925  -0.38004  -0.37515  -0.36900
 Alpha  occ. eigenvalues --   -0.24110  -0.21765
 Alpha virt. eigenvalues --    0.01613   0.04994   0.06520   0.07496   0.08751
 Alpha virt. eigenvalues --    0.10490   0.11401   0.12005   0.12728   0.13738
 Alpha virt. eigenvalues --    0.21090   0.23493   0.27667   0.30644   0.36682

 Mulliken charges:
               1
     1  N   -0.572183
     2  C    0.017621
     3  C    0.144489
     4  C    0.145646
     5  C   -0.149636
     6  C   -0.158057
     7  H    0.049230
     8  H    0.115497
     9  H    0.115118
    10  H    0.094288
    11  H    0.083223
    12  H    0.076338
    13  H    0.038426
 Sum of Mulliken charges =  -0.00000

 Dipole moment (field-independent basis, Debye):
    X=             -2.4439    Y=              0.0045    Z=              0.1900  Tot=              2.4512
 Quadrupole moment (field-independent basis, Debye-Ang):
   XX=            -31.8594   YY=            -33.3565   ZZ=            -40.4240
   XY=             -0.3244   XZ=              0.4851   YZ=             -0.0836

 Normal termination of Gaussian 16 at Fri Sep 22 16:34:57 2023.
