 Gaussian 16, Revision A.03,
 Gaussian 16:  ES64L-G16RevA.03 25-Dec-2016

 ----------------------------------------------------------------------
 #p b3lyp/gen scrf=(cpcm,solvent=toluene) pop=hirshfeld empiricaldisper
 sion=gd3bj
 ----------------------------------------------------------------------

 ------------------------
 tmpdir/M3_conf_0_236.gjf
 ------------------------
 Symbolic Z-matrix:
 Charge =  0 Multiplicity = 1

                         Standard orientation:
 ---------------------------------------------------------------------
 Center     Atomic      Atomic             Coordinates (Angstroms)
 Number     Number       Type             X           Y           Z
 ---------------------------------------------------------------------
      1          6           0        0.247616    0.389335    0.001669
      2          6           0       -1.161575   -0.137914   -0.001427
      3          1           0       -1.703615    0.271014   -0.866351
      4          8           0        1.222776   -0.278279   -0.000720
      5          1           0        0.324124    1.476235    0.005098
      6          1           0       -1.695157    0.199830    0.898876
      7          1           0       -1.223810   -1.229375   -0.033319
 ---------------------------------------------------------------------

 SCF Done:  E(RB3LYP) =  -153.813378950     A.U. after   10 cycles

 The electronic state is 1-A.
 Alpha  occ. eigenvalues --  -19.12820 -10.27013 -10.18379  -1.07674  -0.75548
 Alpha  occ. eigenvalues --   -0.58907  -0.48831  -0.45132  -0.45011  -0.39975
 Alpha  occ. eigenvalues --   -0.37934  -0.26581
 Alpha virt. eigenvalues --   -0.02579   0.05541   0.08243   0.10826   0.11864
 Alpha virt. eigenvalues --    0.20958   0.22879   0.41365   0.42299   0.44218
 Alpha virt. eigenvalues --    0.45839   0.54838   0.58730   0.60952   0.64754

 Mulliken charges:
               1
     1  C    0.177284
     2  C   -0.236492
     3  H    0.119044
     4  O   -0.331795
     5  H    0.045914
     6  H    0.120769
     7  H    0.105277
 Sum of Mulliken charges =  -0.00000

 Dipole moment (field-independent basis, Debye):
    X=             -2.6995    Y=              1.3246    Z=              0.0181  Tot=              3.0070
 Quadrupole moment (field-independent basis, Debye-Ang):
   XX=            -21.1623   YY=            -18.1545   ZZ=            -17.8623
   XY=              0.9961   XZ=             -0.0248   YZ=             -0.0241

 Normal termination of Gaussian 16 at Fri Sep 22 16:36:15 2023.
