 Gaussian 16, Revision A.03,
 Gaussian 16:  ES64L-G16RevA.03 25-Dec-2016

 ----------------------------------------------------------------------
 #p b3lyp/gen scrf=(cpcm,solvent=toluene) pop=hirshfeld empiricaldisper
 sion=gd3bj
 ----------------------------------------------------------------------

 ------------------------
 tmpdir/M3_conf_0_191.gjf
 ------------------------
 Symbolic Z-matrix:
 Charge =  0 Multiplicity = 1

                         Standard orientation:
 ---------------------------------------------------------------------
 Center     Atomic      Atomic             Coordinates (Angstroms)
 Number     Number       Type             X           Y           Z
 ---------------------------------------------------------------------
      1          6           0       -0.850285    0.452190   -0.010433
      2          8           0        0.472297    0.720013    0.016731
      3          6           0        1.392133   -0.390976   -0.009627
      4          1           0       -1.443167    1.328671   -0.026906
      5          8           0       -1.299188   -0.684607    0.003477
      6          1           0        1.502593   -0.766796    1.016117
      7          1           0        0.967937   -1.197766   -0.615494
      8          1           0        2.336684   -0.014645   -0.415023
 ---------------------------------------------------------------------

 SCF Done:  E(RB3LYP) =  -229.034522724     A.U. after   11 cycles

 The electronic state is 1-A.
 Alpha  occ. eigenvalues --  -19.17697 -19.12436 -10.31489 -10.23856  -1.11625
 Alpha  occ. eigenvalues --   -1.02814  -0.74648  -0.60930  -0.54355  -0.48830
 Alpha  occ. eigenvalues --   -0.48323  -0.43725  -0.40377  -0.36675  -0.31641
 Alpha  occ. eigenvalues --   -0.29548
 Alpha virt. eigenvalues --   -0.01398   0.05952   0.08123   0.10167   0.10937
 Alpha virt. eigenvalues --    0.12177   0.22341   0.24935   0.37265   0.40578
 Alpha virt. eigenvalues --    0.42822   0.44469   0.49091   0.59302   0.59887

 Mulliken charges:
               1
     1  C    0.449704
     2  O   -0.479957
     3  C    0.044555
     4  H    0.089227
     5  O   -0.426174
     6  H    0.103699
     7  H    0.103897
     8  H    0.115049
 Sum of Mulliken charges =  -0.00000

 Dipole moment (field-independent basis, Debye):
    X=              1.8326    Y=              1.0776    Z=             -0.0886  Tot=              2.1278
 Quadrupole moment (field-independent basis, Debye-Ang):
   XX=            -22.8612   YY=            -24.7395   ZZ=            -23.1386
   XY=             -5.3967   XZ=             -0.0972   YZ=             -0.0860

 Normal termination of Gaussian 16 at Fri Sep 22 16:35:39 2023.
