 Gaussian 16, Revision A.03,
 Gaussian 16:  ES64L-G16RevA.03 25-Dec-2016

 ----------------------------------------------------------------------
 #p b3lyp/gen scrf=(cpcm,solvent=toluene) pop=hirshfeld empiricaldisper
 sion=gd3bj
 ----------------------------------------------------------------------

 -----------------------
 tmpdir/M3_conf_0_34.gjf
 -----------------------
 Symbolic Z-matrix:
 Charge =  0 Multiplicity = 1

                         Standard orientation:
 ---------------------------------------------------------------------
 Center     Atomic      Atomic             Coordinates (Angstroms)
 Number     Number       Type             X           Y           Z
 ---------------------------------------------------------------------
      1          7           0       -1.216062   -0.276541    0.045660
      2          6           0       -0.042131    0.579027   -0.037493
      3          6           0        1.262440   -0.246274    0.028076
      4          1           0       -1.944671   -0.192347    0.639145
      5          1           0       -1.426629   -0.784909   -0.822080
      6          1           0       -0.110469    1.141936   -0.998932
      7          1           0       -0.083714    1.275900    0.799865
      8          1           0        2.166765    0.290417   -0.342578
      9          1           0        1.494121   -0.677058    1.078253
     10          1           0        1.095175   -1.114665   -0.616786
 ---------------------------------------------------------------------

 SCF Done:  E(RB3LYP) =  -135.144354926     A.U. after   10 cycles

 The electronic state is 1-A.
 Alpha  occ. eigenvalues --  -14.27627 -10.20078 -10.16645  -0.87245  -0.72282
 Alpha  occ. eigenvalues --   -0.60496  -0.50772  -0.45229  -0.41115  -0.38983
 Alpha  occ. eigenvalues --   -0.36206  -0.33758  -0.21594
 Alpha virt. eigenvalues --    0.04775   0.07988   0.08706   0.09409   0.11870
 Alpha virt. eigenvalues --    0.13392   0.16268   0.20640   0.22880   0.39414
 Alpha virt. eigenvalues --    0.39920   0.44922   0.46213   0.51485   0.57268

 Mulliken charges:
               1
     1  N   -0.474981
     2  C   -0.006691
     3  C   -0.221325
     4  H    0.131692
     5  H    0.163914
     6  H    0.080510
     7  H    0.089661
     8  H    0.079628
     9  H    0.086416
    10  H    0.071177
 Sum of Mulliken charges =  -0.00000

 Dipole moment (field-independent basis, Debye):
    X=             -0.6260    Y=              0.3364    Z=             -0.3417  Tot=              0.7886
 Quadrupole moment (field-independent basis, Debye-Ang):
   XX=            -19.6656   YY=            -21.8543   ZZ=            -19.8433
   XY=              0.7007   XZ=             -0.1846   YZ=              1.2722

 Normal termination of Gaussian 16 at Fri Sep 22 16:32:31 2023.
