 Gaussian 16, Revision A.03,
 Gaussian 16:  ES64L-G16RevA.03 25-Dec-2016

 ----------------------------------------------------------------------
 #p b3lyp/gen scrf=(cpcm,solvent=toluene) pop=hirshfeld empiricaldisper
 sion=gd3bj
 ----------------------------------------------------------------------

 ------------------------
 tmpdir/M3_conf_0_146.gjf
 ------------------------
 Symbolic Z-matrix:
 Charge =  0 Multiplicity = 1

                         Standard orientation:
 ---------------------------------------------------------------------
 Center     Atomic      Atomic             Coordinates (Angstroms)
 Number     Number       Type             X           Y           Z
 ---------------------------------------------------------------------
      1          6           0       -0.006764   -0.002941   -0.007453
      2          1           0       -0.825899    0.310175   -0.661694
      3          1           0        0.630177    0.877700    0.291105
      4          1           0        0.684927   -0.725195   -0.479844
      5          1           0       -0.448623   -0.445035    0.895150
 ---------------------------------------------------------------------

 SCF Done:  E(RB3LYP) =  -40.5129271832     A.U. after    7 cycles

 The electronic state is 1-A.
 Alpha  occ. eigenvalues --  -10.16670  -0.69089  -0.40170  -0.38965  -0.38241
 Alpha virt. eigenvalues --    0.05535   0.12075   0.12485   0.12557   0.36904
 Alpha virt. eigenvalues --    0.37215   0.39091   0.62168   0.63481   0.63964
 Alpha virt. eigenvalues --    0.66618   0.95681   1.28418   1.29999   1.82724

 Mulliken charges:
               1
     1  C   -0.361137
     2  H    0.093081
     3  H    0.089013
     4  H    0.091346
     5  H    0.087697
 Sum of Mulliken charges =  -0.00000

 Dipole moment (field-independent basis, Debye):
    X=              0.0032    Y=             -0.0072    Z=              0.0237  Tot=              0.0250
 Quadrupole moment (field-independent basis, Debye-Ang):
   XX=             -8.2894   YY=             -8.5824   ZZ=             -8.5747
   XY=             -0.0422   XZ=              0.0060   YZ=             -0.0279

 Normal termination of Gaussian 16 at Fri Sep 22 16:34:08 2023.
