 Gaussian 16, Revision A.03,
 Gaussian 16:  ES64L-G16RevA.03 25-Dec-2016

 ----------------------------------------------------------------------
 #p b3lyp/gen scrf=(cpcm,solvent=toluene) pop=hirshfeld empiricaldisper
 sion=gd3bj
 ----------------------------------------------------------------------

 -----------------------
 tmpdir/M3_conf_0_80.gjf
 -----------------------
 Symbolic Z-matrix:
 Charge =  0 Multiplicity = 1

                         Standard orientation:
 ---------------------------------------------------------------------
 Center     Atomic      Atomic             Coordinates (Angstroms)
 Number     Number       Type             X           Y           Z
 ---------------------------------------------------------------------
      1          1           0       -1.897362    0.613587   -0.292795
      2          6           0       -1.174108   -0.147541    0.003630
      3          6           0        0.232682    0.452609   -0.007777
      4          1           0       -1.231914   -0.981144   -0.764184
      5          1           0       -1.471664   -0.514323    1.033166
      6          8           0        1.235681   -0.305080    0.006056
      7          1           0        0.364041    1.492113    0.000252
 ---------------------------------------------------------------------

 SCF Done:  E(RB3LYP) =  -153.805425425     A.U. after   10 cycles

 The electronic state is 1-A.
 Alpha  occ. eigenvalues --  -19.12804 -10.27695 -10.19453  -1.03588  -0.74887
 Alpha  occ. eigenvalues --   -0.60103  -0.48124  -0.44204  -0.43503  -0.39565
 Alpha  occ. eigenvalues --   -0.36157  -0.26795
 Alpha virt. eigenvalues --   -0.05275   0.05376   0.07588   0.11211   0.12014
 Alpha virt. eigenvalues --    0.19814   0.21609   0.39842   0.41620   0.44974
 Alpha virt. eigenvalues --    0.46383   0.55791   0.58021   0.59134   0.60161

 Mulliken charges:
               1
     1  H    0.097128
     2  C   -0.249757
     3  C    0.203557
     4  H    0.132998
     5  H    0.144719
     6  O   -0.395964
     7  H    0.067319
 Sum of Mulliken charges =  -0.00000

 Dipole moment (field-independent basis, Debye):
    X=             -2.8548    Y=              1.5650    Z=              0.0289  Tot=              3.2557
 Quadrupole moment (field-independent basis, Debye-Ang):
   XX=            -21.6284   YY=            -17.7957   ZZ=            -17.8428
   XY=              1.3886   XZ=             -0.1654   YZ=              0.0367

 Normal termination of Gaussian 16 at Fri Sep 22 16:33:33 2023.
