 Gaussian 16, Revision A.03,
 Gaussian 16:  ES64L-G16RevA.03 25-Dec-2016

 ----------------------------------------------------------------------
 #p b3lyp/gen scrf=(cpcm,solvent=toluene) pop=hirshfeld empiricaldisper
 sion=gd3bj
 ----------------------------------------------------------------------

 ------------------------
 tmpdir/M3_conf_0_251.gjf
 ------------------------
 Symbolic Z-matrix:
 Charge =  1 Multiplicity = 1

                         Standard orientation:
 ---------------------------------------------------------------------
 Center     Atomic      Atomic             Coordinates (Angstroms)
 Number     Number       Type             X           Y           Z
 ---------------------------------------------------------------------
      1          6           0       -0.660915    0.044525    0.030881
      2          8           0        0.576100   -0.141758   -0.093190
      3          1           0        1.730885    0.574729    0.431563
      4          1           0       -1.086578    1.051210   -0.146004
      5          1           0       -1.287620   -0.759022    0.274675
 ---------------------------------------------------------------------

 SCF Done:  E(RB3LYP) =  -114.735172950     A.U. after   10 cycles

 The electronic state is 1-A.
 Alpha  occ. eigenvalues --  -19.36686 -10.46741  -1.25274  -0.82600  -0.68731
 Alpha  occ. eigenvalues --   -0.66679  -0.59022  -0.47793
 Alpha virt. eigenvalues --   -0.28204  -0.21119  -0.03355   0.02159   0.06284
 Alpha virt. eigenvalues --    0.23092   0.27990   0.33439   0.39681   0.39854
 Alpha virt. eigenvalues --    0.45846   0.59540   0.65632   0.73303   0.92115

 Mulliken charges:
               1
     1  C    0.373020
     2  O   -0.353520
     3  H    0.585760
     4  H    0.202032
     5  H    0.192708
 Sum of Mulliken charges =   1.00000

 Dipole moment (field-independent basis, Debye):
    X=              0.7622    Y=              2.0591    Z=              1.4579  Tot=              2.6355
 Quadrupole moment (field-independent basis, Debye-Ang):
   XX=             -0.1294   YY=             -9.1065   ZZ=            -10.2243
   XY=              3.1152   XZ=              2.1562   YZ=              0.4881

 Normal termination of Gaussian 16 at Fri Sep 22 16:36:34 2023.
