 Gaussian 16, Revision A.03,
 Gaussian 16:  ES64L-G16RevA.03 25-Dec-2016

 ----------------------------------------------------------------------
 #p b3lyp/gen scrf=(cpcm,solvent=toluene) pop=hirshfeld empiricaldisper
 sion=gd3bj
 ----------------------------------------------------------------------

 -----------------------
 tmpdir/M3_conf_0_79.gjf
 -----------------------
 Symbolic Z-matrix:
 Charge =  0 Multiplicity = 1

                         Standard orientation:
 ---------------------------------------------------------------------
 Center     Atomic      Atomic             Coordinates (Angstroms)
 Number     Number       Type             X           Y           Z
 ---------------------------------------------------------------------
      1          7           0        1.223156   -0.268473   -0.019195
      2          6           0        0.058244    0.581023    0.057580
      3          6           0       -1.264624   -0.250020   -0.029967
      4          1           0        2.069346    0.007489   -0.351903
      5          1           0        1.166730   -1.219447    0.360162
      6          1           0        0.084178    1.241789   -0.810178
      7          1           0        0.107145    1.183744    0.985068
      8          1           0       -2.124710    0.454930   -0.057138
      9          1           0       -1.390944   -0.950401    0.825642
     10          1           0       -1.235559   -0.824812   -0.982968
 ---------------------------------------------------------------------

 SCF Done:  E(RB3LYP) =  -135.146965207     A.U. after   10 cycles

 The electronic state is 1-A.
 Alpha  occ. eigenvalues --  -14.27234 -10.19768 -10.17153  -0.86969  -0.72246
 Alpha  occ. eigenvalues --   -0.60659  -0.50113  -0.44974  -0.43374  -0.37536
 Alpha  occ. eigenvalues --   -0.36072  -0.34996  -0.20947
 Alpha virt. eigenvalues --    0.05024   0.07997   0.08678   0.10086   0.12044
 Alpha virt. eigenvalues --    0.13420   0.14450   0.20546   0.22874   0.39258
 Alpha virt. eigenvalues --    0.40829   0.42649   0.47673   0.54352   0.55620

 Mulliken charges:
               1
     1  N   -0.488861
     2  C    0.010982
     3  C   -0.246914
     4  H    0.136210
     5  H    0.164997
     6  H    0.080643
     7  H    0.073698
     8  H    0.089642
     9  H    0.094352
    10  H    0.085252
 Sum of Mulliken charges =  -0.00000

 Dipole moment (field-independent basis, Debye):
    X=              0.1944    Y=             -0.1037    Z=             -0.0006  Tot=              0.2203
 Quadrupole moment (field-independent basis, Debye-Ang):
   XX=            -19.7449   YY=            -19.9998   ZZ=            -21.6700
   XY=             -0.4581   XZ=             -0.6336   YZ=             -1.2361

 Normal termination of Gaussian 16 at Fri Sep 22 16:33:28 2023.
