 Gaussian 16, Revision A.03,
 Gaussian 16:  ES64L-G16RevA.03 25-Dec-2016

 ----------------------------------------------------------------------
 #p b3lyp/gen scrf=(cpcm,solvent=toluene) pop=hirshfeld empiricaldisper
 sion=gd3bj
 ----------------------------------------------------------------------

 -----------------------
 tmpdir/M3_conf_0_96.gjf
 -----------------------
 Symbolic Z-matrix:
 Charge =  0 Multiplicity = 1

                         Standard orientation:
 ---------------------------------------------------------------------
 Center     Atomic      Atomic             Coordinates (Angstroms)
 Number     Number       Type             X           Y           Z
 ---------------------------------------------------------------------
      1          6           0        1.259882   -0.264043   -0.006047
      2          6           0       -0.000089    0.616715   -0.000828
      3          6           0       -1.252665   -0.275583   -0.001052
      4          1           0        1.329301   -0.891349   -0.902942
      5          1           0        2.174250    0.335029    0.059417
      6          1           0        1.230184   -0.937244    0.860977
      7          1           0       -0.064997    1.294716   -0.905868
      8          1           0       -0.003257    1.247518    0.915416
      9          1           0       -2.169057    0.328569   -0.033298
     10          1           0       -1.263948   -0.956727   -0.858981
     11          1           0       -1.275247   -0.883045    0.912839
 ---------------------------------------------------------------------

 SCF Done:  E(RB3LYP) =  -119.131673665     A.U. after   10 cycles

 The electronic state is 1-A.
 Alpha  occ. eigenvalues --  -10.17556 -10.16395 -10.16281  -0.78024  -0.67884
 Alpha  occ. eigenvalues --   -0.58195  -0.45732  -0.43709  -0.39839  -0.38048
 Alpha  occ. eigenvalues --   -0.34051  -0.33600  -0.33008
 Alpha virt. eigenvalues --    0.04708   0.08545   0.08837   0.08865   0.11701
 Alpha virt. eigenvalues --    0.13421   0.14437   0.15434   0.19042   0.23203
 Alpha virt. eigenvalues --    0.37752   0.38704   0.39858   0.40053   0.41164

 Mulliken charges:
               1
     1  C   -0.208408
     2  C   -0.260494
     3  C   -0.214524
     4  H    0.084182
     5  H    0.086077
     6  H    0.081036
     7  H    0.092267
     8  H    0.090749
     9  H    0.085031
    10  H    0.082928
    11  H    0.081156
 Sum of Mulliken charges =  -0.00000

 Dipole moment (field-independent basis, Debye):
    X=              0.0027    Y=              0.0225    Z=              0.0284  Tot=              0.0364
 Quadrupole moment (field-independent basis, Debye-Ang):
   XX=            -22.7081   YY=            -22.2924   ZZ=            -21.6549
   XY=             -0.1114   XZ=              0.0660   YZ=              0.0619

 Normal termination of Gaussian 16 at Fri Sep 22 16:34:17 2023.
