 Gaussian 16, Revision A.03,
 Gaussian 16:  ES64L-G16RevA.03 25-Dec-2016

 ----------------------------------------------------------------------
 #p b3lyp/gen scrf=(cpcm,solvent=toluene) pop=hirshfeld empiricaldisper
 sion=gd3bj
 ----------------------------------------------------------------------

 ------------------------
 tmpdir/M3_conf_0_234.gjf
 ------------------------
 Symbolic Z-matrix:
 Charge =  0 Multiplicity = 1

                         Standard orientation:
 ---------------------------------------------------------------------
 Center     Atomic      Atomic             Coordinates (Angstroms)
 Number     Number       Type             X           Y           Z
 ---------------------------------------------------------------------
      1          6           0        0.008382   -0.009514   -0.004415
      2          1           0       -0.709084   -0.764863   -0.330425
      3          1           0        1.047579   -0.322611   -0.095996
      4          1           0       -0.222281    0.239152    1.041673
      5          1           0       -0.166504    0.905406   -0.588762
 ---------------------------------------------------------------------

 SCF Done:  E(RB3LYP) =  -40.5135861184     A.U. after    7 cycles

 The electronic state is 1-A.
 Alpha  occ. eigenvalues --  -10.16222  -0.69419  -0.40154  -0.39027  -0.38722
 Alpha virt. eigenvalues --    0.05714   0.12521   0.12569   0.12692   0.37151
 Alpha virt. eigenvalues --    0.37261   0.38589   0.63480   0.63754   0.64541
 Alpha virt. eigenvalues --    0.67961   0.96270   1.28662   1.29117   1.83679

 Mulliken charges:
               1
     1  C   -0.349680
     2  H    0.088447
     3  H    0.092934
     4  H    0.083818
     5  H    0.084481
 Sum of Mulliken charges =   0.00000

 Dipole moment (field-independent basis, Debye):
    X=             -0.0299    Y=              0.0311    Z=              0.0154  Tot=              0.0458
 Quadrupole moment (field-independent basis, Debye-Ang):
   XX=             -8.2820   YY=             -8.5052   ZZ=             -8.5572
   XY=             -0.0005   XZ=              0.0030   YZ=              0.0108

 Normal termination of Gaussian 16 at Fri Sep 22 16:36:05 2023.
