 Gaussian 16, Revision A.03,
 Gaussian 16:  ES64L-G16RevA.03 25-Dec-2016

 ----------------------------------------------------------------------
 #p b3lyp/gen scrf=(cpcm,solvent=toluene) pop=hirshfeld empiricaldisper
 sion=gd3bj
 ----------------------------------------------------------------------

 ----------------------
 tmpdir/M3_conf_0_7.gjf
 ----------------------
 Symbolic Z-matrix:
 Charge =  0 Multiplicity = 1

                         Standard orientation:
 ---------------------------------------------------------------------
 Center     Atomic      Atomic             Coordinates (Angstroms)
 Number     Number       Type             X           Y           Z
 ---------------------------------------------------------------------
      1          8           0        0.745454    0.111211   -0.002797
      2          6           0       -0.692386   -0.015352   -0.003029
      3          1           0       -1.003342   -0.534716    0.915192
      4          1           0        1.279921   -0.635352    0.018123
      5          1           0       -1.004538   -0.618338   -0.862352
      6          1           0       -1.081356    0.990833   -0.030411
 ---------------------------------------------------------------------

 SCF Done:  E(RB3LYP) =  -115.699536072     A.U. after    9 cycles

 The electronic state is 1-A.
 Alpha  occ. eigenvalues --  -19.10295 -10.22003  -1.01154  -0.69361  -0.50827
 Alpha  occ. eigenvalues --   -0.43739  -0.43410  -0.32265  -0.27154
 Alpha virt. eigenvalues --    0.04937   0.07866   0.11798   0.12024   0.16834
 Alpha virt. eigenvalues --    0.41785   0.42624   0.44411   0.58847   0.60900
 Alpha virt. eigenvalues --    0.64547   0.66786   0.86634   0.86969   0.90310

 Mulliken charges:
               1
     1  O   -0.509476
     2  C    0.060215
     3  H    0.074714
     4  H    0.200972
     5  H    0.077346
     6  H    0.096228
 Sum of Mulliken charges =  -0.00000

 Dipole moment (field-independent basis, Debye):
    X=             -0.8727    Y=             -1.5427    Z=              0.0411  Tot=              1.7730
 Quadrupole moment (field-independent basis, Debye-Ang):
   XX=            -12.0352   YY=            -12.3663   ZZ=            -13.6904
   XY=             -2.3352   XZ=              0.0665   YZ=             -0.0050

 Normal termination of Gaussian 16 at Fri Sep 22 16:33:57 2023.
