 Gaussian 16, Revision A.03,
 Gaussian 16:  ES64L-G16RevA.03 25-Dec-2016

 ----------------------------------------------------------------------
 #p b3lyp/gen scrf=(cpcm,solvent=toluene) pop=hirshfeld empiricaldisper
 sion=gd3bj
 ----------------------------------------------------------------------

 -----------------------
 tmpdir/M3_conf_0_51.gjf
 -----------------------
 Symbolic Z-matrix:
 Charge =  0 Multiplicity = 1

                         Standard orientation:
 ---------------------------------------------------------------------
 Center     Atomic      Atomic             Coordinates (Angstroms)
 Number     Number       Type             X           Y           Z
 ---------------------------------------------------------------------
      1          6           0       -0.766700    0.004445   -0.001923
      2          6           0        0.759196    0.003855    0.001062
      3          1           0        1.156504   -0.803490    0.630309
      4          1           0       -1.143768    0.852925   -0.602508
      5          1           0       -1.133541   -0.952606   -0.395724
      6          1           0       -1.145744    0.089456    1.028694
      7          1           0        1.115078   -0.200628   -1.015936
      8          1           0        1.196496    0.964540    0.360328
 ---------------------------------------------------------------------

 SCF Done:  E(RB3LYP) =  -79.8213220835     A.U. after    9 cycles

 The electronic state is 1-A.
 Alpha  occ. eigenvalues --  -10.16670 -10.16609  -0.75420  -0.61188  -0.43788
 Alpha  occ. eigenvalues --   -0.43545  -0.36709  -0.34579  -0.34154
 Alpha virt. eigenvalues --    0.04975   0.09243   0.10419   0.10633   0.13690
 Alpha virt. eigenvalues --    0.13828   0.21548   0.37178   0.39281   0.39445
 Alpha virt. eigenvalues --    0.45767   0.47605   0.58941   0.63936   0.64181

 Mulliken charges:
               1
     1  C   -0.255932
     2  C   -0.266379
     3  H    0.083865
     4  H    0.091212
     5  H    0.087127
     6  H    0.085498
     7  H    0.084161
     8  H    0.090450
 Sum of Mulliken charges =  -0.00000

 Dipole moment (field-independent basis, Debye):
    X=              0.0033    Y=             -0.0494    Z=              0.0015  Tot=              0.0495
 Quadrupole moment (field-independent basis, Debye-Ang):
   XX=            -16.0315   YY=            -14.9070   ZZ=            -15.0842
   XY=              0.0212   XZ=              0.0329   YZ=             -0.0044

 Normal termination of Gaussian 16 at Fri Sep 22 16:32:49 2023.
