 Gaussian 16, Revision A.03,
 Gaussian 16:  ES64L-G16RevA.03 25-Dec-2016

 ----------------------------------------------------------------------
 #p b3lyp/gen scrf=(cpcm,solvent=toluene) pop=hirshfeld empiricaldisper
 sion=gd3bj
 ----------------------------------------------------------------------

 ------------------------
 tmpdir/M3_conf_0_240.gjf
 ------------------------
 Symbolic Z-matrix:
 Charge =  0 Multiplicity = 1

                         Standard orientation:
 ---------------------------------------------------------------------
 Center     Atomic      Atomic             Coordinates (Angstroms)
 Number     Number       Type             X           Y           Z
 ---------------------------------------------------------------------
      1          1           0       -0.009319    0.972321   -0.504255
      2          6           0        0.007419   -0.007793   -0.006041
      3          1           0       -0.727647   -0.669493   -0.472946
      4          1           0        1.016216   -0.418404   -0.015262
      5          1           0       -0.323763    0.162335    1.028710
 ---------------------------------------------------------------------

 SCF Done:  E(RB3LYP) =  -40.5136713180     A.U. after    7 cycles

 The electronic state is 1-A.
 Alpha  occ. eigenvalues --  -10.16243  -0.69401  -0.40037  -0.39213  -0.38631
 Alpha virt. eigenvalues --    0.05707   0.12510   0.12571   0.12678   0.37013
 Alpha virt. eigenvalues --    0.37540   0.38447   0.63438   0.63801   0.64449
 Alpha virt. eigenvalues --    0.67877   0.96223   1.28645   1.29162   1.84195

 Mulliken charges:
               1
     1  H    0.085999
     2  C   -0.350288
     3  H    0.088800
     4  H    0.092196
     5  H    0.083293
 Sum of Mulliken charges =   0.00000

 Dipole moment (field-independent basis, Debye):
    X=             -0.0253    Y=              0.0249    Z=              0.0236  Tot=              0.0426
 Quadrupole moment (field-independent basis, Debye-Ang):
   XX=             -8.3080   YY=             -8.4615   ZZ=             -8.5788
   XY=             -0.0084   XZ=              0.0115   YZ=              0.0072

 Normal termination of Gaussian 16 at Fri Sep 22 16:36:27 2023.
