 Gaussian 16, Revision A.03,
 Gaussian 16:  ES64L-G16RevA.03 25-Dec-2016

 ----------------------------------------------------------------------
 #p b3lyp/gen scrf=(cpcm,solvent=toluene) pop=hirshfeld empiricaldisper
 sion=gd3bj
 ----------------------------------------------------------------------

 ----------------------
 tmpdir/M3_conf_0_1.gjf
 ----------------------
 Symbolic Z-matrix:
 Charge =  0 Multiplicity = 1

                         Standard orientation:
 ---------------------------------------------------------------------
 Center     Atomic      Atomic             Coordinates (Angstroms)
 Number     Number       Type             X           Y           Z
 ---------------------------------------------------------------------
      1          6           0        0.948221   -0.004703    0.001338
      2          8           0        2.312917   -0.125684   -0.010647
      3          6           0        0.216940   -1.224458    0.010298
      4          6           0        0.257886    1.213725    0.002495
      5          6           0       -1.190390   -1.188545    0.004652
      6          6           0       -1.133113    1.215301    0.000031
      7          1           0        0.797243    2.154932    0.000254
      8          6           0       -1.864040    0.020868   -0.003883
      9          1           0       -1.749618   -2.119226   -0.003681
     10          1           0       -1.657457    2.169297   -0.003857
     11          1           0       -2.950774    0.041936   -0.015091
     12          1           0        2.890713    0.678177    0.042592
     13          1           0        0.753532   -2.112776   -0.024625
 ---------------------------------------------------------------------

 SCF Done:  E(RB3LYP) =  -307.436453997     A.U. after   12 cycles

 The electronic state is 1-A.
 Alpha  occ. eigenvalues --  -19.15608 -10.25060 -10.18691 -10.18628 -10.18323
 Alpha  occ. eigenvalues --  -10.17869 -10.17688  -1.06053  -0.85903  -0.75734
 Alpha  occ. eigenvalues --   -0.74889  -0.63145  -0.61615  -0.55549  -0.50609
 Alpha  occ. eigenvalues --   -0.47346  -0.44749  -0.43186  -0.41624  -0.38984
 Alpha  occ. eigenvalues --   -0.36882  -0.34683  -0.34424  -0.26389  -0.23376
 Alpha virt. eigenvalues --   -0.01961  -0.00279   0.03364   0.05098   0.08298
 Alpha virt. eigenvalues --    0.09843   0.12332   0.13467   0.14485   0.21029
 Alpha virt. eigenvalues --    0.23012   0.26031   0.29780   0.30539   0.38227

 Mulliken charges:
               1
     1  C    0.158452
     2  O   -0.428224
     3  C   -0.041413
     4  C   -0.084483
     5  C   -0.047230
     6  C   -0.062283
     7  H    0.068469
     8  C   -0.065020
     9  H    0.067080
    10  H    0.066929
    11  H    0.061237
    12  H    0.260011
    13  H    0.046476
 Sum of Mulliken charges =  -0.00000

 Dipole moment (field-independent basis, Debye):
    X=              0.5136    Y=              1.5723    Z=              0.0534  Tot=              1.6549
 Quadrupole moment (field-independent basis, Debye-Ang):
   XX=            -35.1591   YY=            -36.3185   ZZ=            -45.7701
   XY=              4.9800   XZ=              0.3442   YZ=              0.1419

 Normal termination of Gaussian 16 at Fri Sep 22 16:33:07 2023.
