 Gaussian 16, Revision A.03,
 Gaussian 16:  ES64L-G16RevA.03 25-Dec-2016

 ----------------------------------------------------------------------
 #p b3lyp/gen scrf=(cpcm,solvent=toluene) pop=hirshfeld empiricaldisper
 sion=gd3bj
 ----------------------------------------------------------------------

 -----------------------
 tmpdir/M3_conf_0_28.gjf
 -----------------------
 Symbolic Z-matrix:
 Charge =  0 Multiplicity = 1

                         Standard orientation:
 ---------------------------------------------------------------------
 Center     Atomic      Atomic             Coordinates (Angstroms)
 Number     Number       Type             X           Y           Z
 ---------------------------------------------------------------------
      1          1           0       -1.147992   -0.909594   -0.090745
      2          7           0       -0.729074    0.018296    0.048123
      3          6           0        0.724861    0.005201   -0.005909
      4          1           0       -1.311691    0.741805   -0.117039
      5          1           0        1.017540   -0.610939   -0.889431
      6          1           0        1.057430    1.033547   -0.148894
      7          1           0        1.139060   -0.414095    0.944706
 ---------------------------------------------------------------------

 SCF Done:  E(RB3LYP) =  -95.8319977763     A.U. after    9 cycles

 The electronic state is 1-A.
 Alpha  occ. eigenvalues --  -14.27238 -10.19605  -0.86391  -0.65928  -0.49882
 Alpha  occ. eigenvalues --   -0.42867  -0.41514  -0.37235  -0.21022
 Alpha virt. eigenvalues --    0.05076   0.08479   0.09765   0.12207   0.15448
 Alpha virt. eigenvalues --    0.20424   0.40424   0.44460   0.45658   0.56197
 Alpha virt. eigenvalues --    0.61144   0.62818   0.64969   0.70021   0.71730

 Mulliken charges:
               1
     1  H    0.161701
     2  N   -0.511240
     3  C   -0.031456
     4  H    0.133158
     5  H    0.076678
     6  H    0.085887
     7  H    0.085272
 Sum of Mulliken charges =   0.00000

 Dipole moment (field-independent basis, Debye):
    X=             -0.1131    Y=             -0.0457    Z=             -0.6485  Tot=              0.6599
 Quadrupole moment (field-independent basis, Debye-Ang):
   XX=            -13.1420   YY=            -12.3677   ZZ=            -15.5615
   XY=              0.1012   XZ=              0.8282   YZ=             -0.0644

 Normal termination of Gaussian 16 at Fri Sep 22 16:32:54 2023.
