 Gaussian 16, Revision A.03,
 Gaussian 16:  ES64L-G16RevA.03 25-Dec-2016

 ----------------------------------------------------------------------
 #p b3lyp/gen scrf=(cpcm,solvent=toluene) pop=hirshfeld empiricaldisper
 sion=gd3bj
 ----------------------------------------------------------------------

 -----------------------
 tmpdir/M3_conf_0_24.gjf
 -----------------------
 Symbolic Z-matrix:
 Charge =  0 Multiplicity = 1

                         Standard orientation:
 ---------------------------------------------------------------------
 Center     Atomic      Atomic             Coordinates (Angstroms)
 Number     Number       Type             X           Y           Z
 ---------------------------------------------------------------------
      1          7           0       -0.001721   -0.020034   -0.033907
      2          1           0       -0.299270    0.959426    0.068822
      3          1           0       -0.688960   -0.654912    0.087844
      4          1           0        1.000280   -0.164276    0.080686
 ---------------------------------------------------------------------

 SCF Done:  E(RB3LYP) =  -56.5361879783     A.U. after    8 cycles

 The electronic state is 1-A.
 Alpha  occ. eigenvalues --  -14.27581  -0.83451  -0.49372  -0.45519  -0.23452
 Alpha virt. eigenvalues --    0.05072   0.12253   0.13094   0.49318   0.56786
 Alpha virt. eigenvalues --    0.61400   0.65962   0.76402   0.77764   1.07889
 Alpha virt. eigenvalues --    1.46529   1.49872   1.84500   1.98307   2.03188

 Mulliken charges:
               1
     1  N   -0.495010
     2  H    0.167635
     3  H    0.147118
     4  H    0.180256
 Sum of Mulliken charges =  -0.00000

 Dipole moment (field-independent basis, Debye):
    X=              0.0272    Y=              0.1726    Z=              0.6369  Tot=              0.6605
 Quadrupole moment (field-independent basis, Debye-Ang):
   XX=             -5.4754   YY=             -5.9392   ZZ=             -9.2977
   XY=              0.0725   XZ=             -0.0110   YZ=             -0.0337

 Normal termination of Gaussian 16 at Fri Sep 22 16:32:33 2023.
