 Gaussian 16, Revision A.03,
 Gaussian 16:  ES64L-G16RevA.03 25-Dec-2016

 ----------------------------------------------------------------------
 #p b3lyp/gen scrf=(cpcm,solvent=toluene) pop=hirshfeld empiricaldisper
 sion=gd3bj
 ----------------------------------------------------------------------

 -----------------------
 tmpdir/M3_conf_0_92.gjf
 -----------------------
 Symbolic Z-matrix:
 Charge =  0 Multiplicity = 1

                         Standard orientation:
 ---------------------------------------------------------------------
 Center     Atomic      Atomic             Coordinates (Angstroms)
 Number     Number       Type             X           Y           Z
 ---------------------------------------------------------------------
      1          6           0       -1.297325   -0.265102   -0.007424
      2          6           0        0.012294    0.591130   -0.000324
      3          6           0        1.286725   -0.268584   -0.000087
      4          1           0       -1.389381   -0.886445    0.937686
      5          1           0       -2.139776    0.428006   -0.020169
      6          1           0       -1.352050   -0.932358   -0.889280
      7          1           0        0.012098    1.246270   -0.899342
      8          1           0       -0.009607    1.227470    0.912923
      9          1           0        1.329020   -0.955485    0.853795
     10          1           0        1.376458   -0.861762   -0.916241
     11          1           0        2.163073    0.389634    0.067641
 ---------------------------------------------------------------------

 SCF Done:  E(RB3LYP) =  -119.130980314     A.U. after    9 cycles

 The electronic state is 1-A.
 Alpha  occ. eigenvalues --  -10.17548 -10.16869 -10.16335  -0.77501  -0.67885
 Alpha  occ. eigenvalues --   -0.58056  -0.45519  -0.43167  -0.40079  -0.38162
 Alpha  occ. eigenvalues --   -0.33954  -0.33239  -0.33078
 Alpha virt. eigenvalues --    0.04601   0.08421   0.08863   0.08957   0.11997
 Alpha virt. eigenvalues --    0.13412   0.13936   0.14731   0.18433   0.23070
 Alpha virt. eigenvalues --    0.37189   0.39208   0.39999   0.40862   0.41232

 Mulliken charges:
               1
     1  C   -0.225412
     2  C   -0.262955
     3  C   -0.204873
     4  H    0.087988
     5  H    0.084739
     6  H    0.088286
     7  H    0.091153
     8  H    0.090475
     9  H    0.082577
    10  H    0.083852
    11  H    0.084170
 Sum of Mulliken charges =  -0.00000

 Dipole moment (field-independent basis, Debye):
    X=              0.0180    Y=              0.0984    Z=             -0.0045  Tot=              0.1001
 Quadrupole moment (field-independent basis, Debye-Ang):
   XX=            -22.8333   YY=            -22.2556   ZZ=            -21.6017
   XY=             -0.0862   XZ=             -0.0121   YZ=              0.0318

 Normal termination of Gaussian 16 at Fri Sep 22 16:33:40 2023.
