 Gaussian 16, Revision A.03,
 Gaussian 16:  ES64L-G16RevA.03 25-Dec-2016

 ----------------------------------------------------------------------
 #p b3lyp/gen scrf=(cpcm,solvent=toluene) pop=hirshfeld empiricaldisper
 sion=gd3bj
 ----------------------------------------------------------------------

 ------------------------
 tmpdir/M3_conf_0_107.gjf
 ------------------------
 Symbolic Z-matrix:
 Charge =  0 Multiplicity = 1

                         Standard orientation:
 ---------------------------------------------------------------------
 Center     Atomic      Atomic             Coordinates (Angstroms)
 Number     Number       Type             X           Y           Z
 ---------------------------------------------------------------------
      1          6           0       -0.005767    0.003030   -0.005629
      2          1           0        0.440157    0.995875    0.114520
      3          1           0       -1.085703    0.064716   -0.267309
      4          1           0        0.577585   -0.541725   -0.757762
      5          1           0        0.102563   -0.537045    0.944326
 ---------------------------------------------------------------------

 SCF Done:  E(RB3LYP) =  -40.5135650115     A.U. after    7 cycles

 The electronic state is 1-A.
 Alpha  occ. eigenvalues --  -10.16443  -0.69253  -0.39715  -0.39130  -0.38779
 Alpha virt. eigenvalues --    0.05623   0.12336   0.12556   0.12590   0.37076
 Alpha virt. eigenvalues --    0.37403   0.38540   0.63077   0.63696   0.63806
 Alpha virt. eigenvalues --    0.67429   0.96101   1.28644   1.29305   1.83983

 Mulliken charges:
               1
     1  C   -0.355550
     2  H    0.087788
     3  H    0.095325
     4  H    0.087793
     5  H    0.084644
 Sum of Mulliken charges =   0.00000

 Dipole moment (field-independent basis, Debye):
    X=              0.0396    Y=             -0.0120    Z=              0.0275  Tot=              0.0497
 Quadrupole moment (field-independent basis, Debye-Ang):
   XX=             -8.3128   YY=             -8.5107   ZZ=             -8.5683
   XY=              0.0039   XZ=             -0.0054   YZ=              0.0089

 Normal termination of Gaussian 16 at Fri Sep 22 16:33:42 2023.
