 Gaussian 16, Revision A.03,
 Gaussian 16:  ES64L-G16RevA.03 25-Dec-2016

 ----------------------------------------------------------------------
 #p b3lyp/gen scrf=(cpcm,solvent=toluene) pop=hirshfeld empiricaldisper
 sion=gd3bj
 ----------------------------------------------------------------------

 ------------------------
 tmpdir/M3_conf_0_128.gjf
 ------------------------
 Symbolic Z-matrix:
 Charge =  0 Multiplicity = 1

                         Standard orientation:
 ---------------------------------------------------------------------
 Center     Atomic      Atomic             Coordinates (Angstroms)
 Number     Number       Type             X           Y           Z
 ---------------------------------------------------------------------
      1          6           0       -1.196036   -0.274059   -0.010418
      2          6           0        0.042568    0.669319    0.001811
      3          7           0        1.179977   -0.305796    0.008217
      4          1           0       -0.831713   -1.239976   -0.407301
      5          1           0       -1.554121   -0.404803    1.019175
      6          1           0       -2.012463    0.159267   -0.595664
      7          1           0        0.064387    1.266626    0.936079
      8          1           0        0.071228    1.283881   -0.918725
      9          1           0        2.062584   -0.007326   -0.047901
     10          1           0        0.861068   -1.288654    0.008460
 ---------------------------------------------------------------------

 SCF Done:  E(RB3LYP) =  -135.131885640     A.U. after   10 cycles

 The electronic state is 1-A.
 Alpha  occ. eigenvalues --  -14.27177 -10.19967 -10.16909  -0.86410  -0.72374
 Alpha  occ. eigenvalues --   -0.60527  -0.51402  -0.45190  -0.42156  -0.37439
 Alpha  occ. eigenvalues --   -0.35806  -0.35393  -0.21197
 Alpha virt. eigenvalues --    0.05200   0.07356   0.08568   0.09318   0.12223
 Alpha virt. eigenvalues --    0.15287   0.15718   0.20073   0.21925   0.38383
 Alpha virt. eigenvalues --    0.40905   0.43980   0.47304   0.52481   0.57539

 Mulliken charges:
               1
     1  C   -0.245575
     2  C    0.000545
     3  N   -0.498745
     4  H    0.081872
     5  H    0.094943
     6  H    0.090903
     7  H    0.089601
     8  H    0.085254
     9  H    0.126702
    10  H    0.174500
 Sum of Mulliken charges =  -0.00000

 Dipole moment (field-independent basis, Debye):
    X=             -0.1701    Y=             -0.0032    Z=             -0.0813  Tot=              0.1886
 Quadrupole moment (field-independent basis, Debye-Ang):
   XX=            -20.0422   YY=            -19.7104   ZZ=            -22.0920
   XY=             -0.0453   XZ=             -0.3138   YZ=             -0.0118

 Normal termination of Gaussian 16 at Fri Sep 22 16:35:15 2023.
