 Gaussian 16, Revision A.03,
 Gaussian 16:  ES64L-G16RevA.03 25-Dec-2016

 ----------------------------------------------------------------------
 #p b3lyp/gen scrf=(cpcm,solvent=toluene) pop=hirshfeld empiricaldisper
 sion=gd3bj
 ----------------------------------------------------------------------

 -----------------------
 tmpdir/M3_conf_0_50.gjf
 -----------------------
 Symbolic Z-matrix:
 Charge =  0 Multiplicity = 1

                         Standard orientation:
 ---------------------------------------------------------------------
 Center     Atomic      Atomic             Coordinates (Angstroms)
 Number     Number       Type             X           Y           Z
 ---------------------------------------------------------------------
      1          6           0       -0.772661    0.010016    0.001711
      2          6           0        0.768574    0.009995   -0.012453
      3          1           0       -1.203836    0.993462    0.260675
      4          1           0       -1.103351   -0.767462    0.702972
      5          1           0       -1.146022   -0.291633   -0.984371
      6          1           0        1.226007    0.860318   -0.577037
      7          1           0        1.134160   -1.033940   -0.356946
      8          1           0        1.117561    0.119194    1.019154
 ---------------------------------------------------------------------

 SCF Done:  E(RB3LYP) =  -79.8174989019     A.U. after    9 cycles

 The electronic state is 1-A.
 Alpha  occ. eigenvalues --  -10.17354 -10.16737  -0.75049  -0.61036  -0.43859
 Alpha  occ. eigenvalues --   -0.42995  -0.36435  -0.34907  -0.33743
 Alpha virt. eigenvalues --    0.04776   0.08993   0.10011   0.10593   0.13444
 Alpha virt. eigenvalues --    0.13938   0.20960   0.37444   0.38266   0.39932
 Alpha virt. eigenvalues --    0.44798   0.49473   0.57762   0.61399   0.63491

 Mulliken charges:
               1
     1  C   -0.254117
     2  C   -0.282850
     3  H    0.092896
     4  H    0.086473
     5  H    0.085420
     6  H    0.095901
     7  H    0.093436
     8  H    0.082842
 Sum of Mulliken charges =  -0.00000

 Dipole moment (field-independent basis, Debye):
    X=             -0.0360    Y=             -0.0097    Z=              0.0715  Tot=              0.0807
 Quadrupole moment (field-independent basis, Debye-Ang):
   XX=            -16.0921   YY=            -14.7598   ZZ=            -15.3224
   XY=              0.0699   XZ=              0.0508   YZ=             -0.0376

 Normal termination of Gaussian 16 at Fri Sep 22 16:32:45 2023.
