 Gaussian 16, Revision A.03,
 Gaussian 16:  ES64L-G16RevA.03 25-Dec-2016

 ----------------------------------------------------------------------
 #p b3lyp/gen scrf=(cpcm,solvent=toluene) pop=hirshfeld empiricaldisper
 sion=gd3bj
 ----------------------------------------------------------------------

 ------------------------
 tmpdir/M3_conf_0_129.gjf
 ------------------------
 Symbolic Z-matrix:
 Charge =  0 Multiplicity = 1

                         Standard orientation:
 ---------------------------------------------------------------------
 Center     Atomic      Atomic             Coordinates (Angstroms)
 Number     Number       Type             X           Y           Z
 ---------------------------------------------------------------------
      1          6           0       -1.270846   -0.278090    0.006171
      2          6           0        0.008586    0.608859    0.031097
      3          6           0        1.268814   -0.261779   -0.002928
      4          1           0       -1.970778    0.226930   -0.685406
      5          1           0       -1.009067   -1.269614   -0.385925
      6          1           0       -1.673369   -0.413078    1.014434
      7          1           0       -0.084793    1.200783   -0.982630
      8          1           0       -0.021575    1.309278    0.888069
      9          1           0        2.176103    0.345530    0.052562
     10          1           0        1.262333   -0.975739    0.828208
     11          1           0        1.281822   -0.838027   -0.935350
 ---------------------------------------------------------------------

 SCF Done:  E(RB3LYP) =  -119.121841180     A.U. after   10 cycles

 The electronic state is 1-A.
 Alpha  occ. eigenvalues --  -10.17767 -10.16398 -10.16360  -0.77857  -0.67873
 Alpha  occ. eigenvalues --   -0.57660  -0.45833  -0.43630  -0.39946  -0.38598
 Alpha  occ. eigenvalues --   -0.34216  -0.32981  -0.32063
 Alpha virt. eigenvalues --    0.04339   0.08143   0.08765   0.08966   0.12007
 Alpha virt. eigenvalues --    0.12505   0.13390   0.16438   0.19534   0.23548
 Alpha virt. eigenvalues --    0.37952   0.38654   0.39565   0.43113   0.44900

 Mulliken charges:
               1
     1  C   -0.211417
     2  C   -0.286788
     3  C   -0.202917
     4  H    0.089043
     5  H    0.078703
     6  H    0.090361
     7  H    0.089420
     8  H    0.093587
     9  H    0.087269
    10  H    0.085709
    11  H    0.087030
 Sum of Mulliken charges =   0.00000

 Dipole moment (field-independent basis, Debye):
    X=              0.0170    Y=             -0.0249    Z=              0.0270  Tot=              0.0405
 Quadrupole moment (field-independent basis, Debye-Ang):
   XX=            -23.1192   YY=            -22.4327   ZZ=            -21.4731
   XY=             -0.2102   XZ=              0.0753   YZ=              0.0747

 Normal termination of Gaussian 16 at Fri Sep 22 16:35:24 2023.
