 Gaussian 16, Revision A.03,
 Gaussian 16:  ES64L-G16RevA.03 25-Dec-2016

 ----------------------------------------------------------------------
 #p b3lyp/gen scrf=(cpcm,solvent=toluene) pop=hirshfeld empiricaldisper
 sion=gd3bj
 ----------------------------------------------------------------------

 ----------------------
 tmpdir/M3_conf_0_9.gjf
 ----------------------
 Symbolic Z-matrix:
 Charge =  0 Multiplicity = 1

                         Standard orientation:
 ---------------------------------------------------------------------
 Center     Atomic      Atomic             Coordinates (Angstroms)
 Number     Number       Type             X           Y           Z
 ---------------------------------------------------------------------
      1          8           0       -1.625897   -0.345968   -0.204243
      2          6           0       -0.515751    0.493641    0.177904
      3          6           0        0.778930   -0.239413    0.270767
      4          1           0       -2.469637    0.006270   -0.290765
      5          1           0       -0.736663    0.918019    1.168187
      6          1           0       -0.414415    1.312918   -0.541794
      7          1           0        0.745714   -1.113941    0.922881
      8          8           0        1.787888    0.014889   -0.289574
 ---------------------------------------------------------------------

 SCF Done:  E(RB3LYP) =  -228.996319355     A.U. after   12 cycles

 The electronic state is 1-A.
 Alpha  occ. eigenvalues --  -19.14194 -19.12683 -10.27608 -10.24227  -1.08875
 Alpha  occ. eigenvalues --   -1.03538  -0.75726  -0.59671  -0.54529  -0.50287
 Alpha  occ. eigenvalues --   -0.47122  -0.44587  -0.40870  -0.35307  -0.29425
 Alpha  occ. eigenvalues --   -0.27395
 Alpha virt. eigenvalues --   -0.04819   0.05038   0.07416   0.08895   0.11471
 Alpha virt. eigenvalues --    0.16654   0.22846   0.24073   0.42094   0.42418
 Alpha virt. eigenvalues --    0.46007   0.48859   0.54938   0.58481   0.59408

 Mulliken charges:
               1
     1  O   -0.482513
     2  C    0.125290
     3  C    0.210994
     4  H    0.215839
     5  H    0.107724
     6  H    0.088687
     7  H    0.050616
     8  O   -0.316636
 Sum of Mulliken charges =  -0.00000

 Dipole moment (field-independent basis, Debye):
    X=             -2.7802    Y=              1.3281    Z=              1.4758  Tot=              3.4163
 Quadrupole moment (field-independent basis, Debye-Ang):
   XX=            -24.8941   YY=            -23.6250   ZZ=            -23.2705
   XY=             -3.0159   XZ=              1.7476   YZ=             -0.1142

 Normal termination of Gaussian 16 at Fri Sep 22 16:34:09 2023.
