 Gaussian 16, Revision A.03,
 Gaussian 16:  ES64L-G16RevA.03 25-Dec-2016

 ----------------------------------------------------------------------
 #p b3lyp/gen scrf=(cpcm,solvent=toluene) pop=hirshfeld empiricaldisper
 sion=gd3bj
 ----------------------------------------------------------------------

 ------------------------
 tmpdir/M3_conf_0_132.gjf
 ------------------------
 Symbolic Z-matrix:
 Charge =  0 Multiplicity = 1

                         Standard orientation:
 ---------------------------------------------------------------------
 Center     Atomic      Atomic             Coordinates (Angstroms)
 Number     Number       Type             X           Y           Z
 ---------------------------------------------------------------------
      1          7           0        4.039510    0.066625    0.455789
      2          6           0        3.073789   -0.784186   -0.311093
      3          6           0        1.651112   -0.250663   -0.135875
      4          6           0        0.572058   -1.104825   -0.080855
      5          6           0        1.413809    1.152468   -0.093031
      6          6           0       -0.760549   -0.620532   -0.017504
      7          1           0        0.713788   -2.182140   -0.082247
      8          6           0        0.136103    1.656773   -0.061041
      9          1           0        2.251306    1.844673   -0.054945
     10          6           0       -0.990941    0.790720   -0.041447
     11          6           0       -1.875481   -1.497585    0.069255
     12          1           0       -0.021581    2.734124   -0.025689
     13          6           0       -2.326713    1.270717   -0.024359
     14          6           0       -3.158490   -1.000596    0.115785
     15          1           0       -1.698011   -2.572018    0.099093
     16          6           0       -3.385688    0.394968    0.057341
     17          1           0       -2.498623    2.341627   -0.093079
     18          1           0       -4.004865   -1.681142    0.188923
     19          1           0       -4.406198    0.772487    0.071776
     20          1           0        3.942775    0.183734    1.376747
     21          1           0        4.732606    0.530143   -0.154518
     22          1           0        3.424317   -0.637270   -1.372179
     23          1           0        3.193851   -1.844138   -0.007471
 ---------------------------------------------------------------------

 SCF Done:  E(RB3LYP) =  -480.497698696     A.U. after   12 cycles

 The electronic state is 1-A.
 Alpha  occ. eigenvalues --  -14.28321 -10.21481 -10.19093 -10.19019 -10.18825
 Alpha  occ. eigenvalues --  -10.18446 -10.18428 -10.18383 -10.18338 -10.18312
 Alpha  occ. eigenvalues --  -10.18037 -10.17958  -0.88740  -0.87125  -0.82731
 Alpha  occ. eigenvalues --   -0.78211  -0.75302  -0.73023  -0.67025  -0.62795
 Alpha  occ. eigenvalues --   -0.60353  -0.60176  -0.52631  -0.51833  -0.50623
 Alpha  occ. eigenvalues --   -0.49104  -0.45402  -0.44794  -0.43300  -0.42392
 Alpha  occ. eigenvalues --   -0.42144  -0.40428  -0.39741  -0.38616  -0.37376
 Alpha  occ. eigenvalues --   -0.34370  -0.33775  -0.33094  -0.29411  -0.25282
 Alpha  occ. eigenvalues --   -0.22683  -0.21993
 Alpha virt. eigenvalues --   -0.04956  -0.02429   0.01446   0.04268   0.05298
 Alpha virt. eigenvalues --    0.06383   0.07339   0.08536   0.08884   0.10112
 Alpha virt. eigenvalues --    0.11055   0.11485   0.14327   0.14889   0.15721

 Mulliken charges:
               1
     1  N   -0.465772
     2  C    0.166936
     3  C   -0.294852
     4  C    0.063740
     5  C    0.046696
     6  C   -0.133671
     7  H    0.029187
     8  C   -0.001137
     9  H    0.026382
    10  C   -0.134366
    11  C   -0.009495
    12  H    0.046781
    13  C    0.002192
    14  C   -0.042135
    15  H    0.046038
    16  C   -0.044003
    17  H    0.045490
    18  H    0.063432
    19  H    0.063413
    20  H    0.132745
    21  H    0.185058
    22  H    0.113186
    23  H    0.094157
 Sum of Mulliken charges =  -0.00000

 Dipole moment (field-independent basis, Debye):
    X=              0.8134    Y=              0.1311    Z=             -0.1814  Tot=              0.8437
 Quadrupole moment (field-independent basis, Debye-Ang):
   XX=            -62.0355   YY=            -64.7193   ZZ=            -75.5843
   XY=              1.7498   XZ=             -1.8463   YZ=             -0.1115

 Normal termination of Gaussian 16 at Fri Sep 22 16:35:01 2023.
