 Gaussian 16, Revision A.03,
 Gaussian 16:  ES64L-G16RevA.03 25-Dec-2016

 ----------------------------------------------------------------------
 #p b3lyp/gen scrf=(cpcm,solvent=toluene) pop=hirshfeld empiricaldisper
 sion=gd3bj
 ----------------------------------------------------------------------

 ------------------------
 tmpdir/M3_conf_0_212.gjf
 ------------------------
 Symbolic Z-matrix:
 Charge =  0 Multiplicity = 1

                         Standard orientation:
 ---------------------------------------------------------------------
 Center     Atomic      Atomic             Coordinates (Angstroms)
 Number     Number       Type             X           Y           Z
 ---------------------------------------------------------------------
      1          6           0        2.589362    0.297179   -0.368475
      2          6           0        1.525487   -0.441335    0.474199
      3          7           0        0.138992   -0.157949    0.062256
      4          6           0       -0.814271   -1.145582   -0.107547
      5          6           0       -0.494279    1.090757    0.127053
      6          6           0       -2.062989   -0.522309   -0.147950
      7          6           0       -1.843806    0.879360   -0.015500
      8          1           0       -2.611820    1.643586   -0.006509
      9          1           0        2.655409   -0.169172   -1.410686
     10          1           0        3.603476    0.222811    0.091916
     11          1           0        2.319187    1.345821   -0.494509
     12          1           0        1.611712   -0.275994    1.573495
     13          1           0        1.680905   -1.506829    0.277984
     14          1           0       -0.612187   -2.176860   -0.297921
     15          1           0        0.005126    2.043365    0.235186
     16          1           0       -3.021771   -0.969503   -0.175424
 ---------------------------------------------------------------------

 SCF Done:  E(RB3LYP) =  -288.763083658     A.U. after   12 cycles

 The electronic state is 1-A.
 Alpha  occ. eigenvalues --  -14.36379 -10.22573 -10.19476 -10.19307 -10.18515
 Alpha  occ. eigenvalues --  -10.15774 -10.15590  -0.97927  -0.80992  -0.73397
 Alpha  occ. eigenvalues --   -0.72053  -0.63847  -0.57062  -0.55359  -0.52653
 Alpha  occ. eigenvalues --   -0.46765  -0.44497  -0.42982  -0.41532  -0.39066
 Alpha  occ. eigenvalues --   -0.38183  -0.37619  -0.36386  -0.35239  -0.24110
 Alpha  occ. eigenvalues --   -0.21759
 Alpha virt. eigenvalues --    0.01489   0.04411   0.06624   0.07434   0.07630
 Alpha virt. eigenvalues --    0.08720   0.09860   0.10951   0.12169   0.13310
 Alpha virt. eigenvalues --    0.15016   0.15820   0.18729   0.22305   0.24129

 Mulliken charges:
               1
     1  C   -0.227907
     2  C    0.039776
     3  N   -0.566462
     4  C    0.147196
     5  C    0.144223
     6  C   -0.148448
     7  C   -0.155656
     8  H    0.048412
     9  H    0.102273
    10  H    0.101180
    11  H    0.099257
    12  H    0.114471
    13  H    0.097859
    14  H    0.082347
    15  H    0.083565
    16  H    0.037914
 Sum of Mulliken charges =  -0.00000

 Dipole moment (field-independent basis, Debye):
    X=              2.3908    Y=             -0.3847    Z=              0.4379  Tot=              2.4608
 Quadrupole moment (field-independent basis, Debye-Ang):
   XX=            -40.7998   YY=            -39.8570   ZZ=            -47.0059
   XY=             -0.5753   XZ=              0.8238   YZ=              0.7780

 Normal termination of Gaussian 16 at Fri Sep 22 16:36:19 2023.
