 Gaussian 16, Revision A.03,
 Gaussian 16:  ES64L-G16RevA.03 25-Dec-2016

 ----------------------------------------------------------------------
 #p b3lyp/gen scrf=(cpcm,solvent=toluene) pop=hirshfeld empiricaldisper
 sion=gd3bj
 ----------------------------------------------------------------------

 ------------------------
 tmpdir/M3_conf_0_241.gjf
 ------------------------
 Symbolic Z-matrix:
 Charge =  0 Multiplicity = 1

                         Standard orientation:
 ---------------------------------------------------------------------
 Center     Atomic      Atomic             Coordinates (Angstroms)
 Number     Number       Type             X           Y           Z
 ---------------------------------------------------------------------
      1          6           0        0.008900    0.005142    0.000600
      2          1           0       -0.326425   -0.433084    0.942694
      3          1           0        1.092557    0.118057   -0.012049
      4          1           0       -0.503615    0.963532   -0.136963
      5          1           0       -0.315917   -0.679358   -0.797280
 ---------------------------------------------------------------------

 SCF Done:  E(RB3LYP) =  -40.5138204111     A.U. after    7 cycles

 The electronic state is 1-A.
 Alpha  occ. eigenvalues --  -10.16191  -0.69434  -0.39923  -0.39222  -0.38799
 Alpha virt. eigenvalues --    0.05728   0.12536   0.12625   0.12681   0.37150
 Alpha virt. eigenvalues --    0.37560   0.38263   0.63582   0.63932   0.64393
 Alpha virt. eigenvalues --    0.68048   0.96243   1.28790   1.28971   1.84949

 Mulliken charges:
               1
     1  C   -0.348990
     2  H    0.084533
     3  H    0.091865
     4  H    0.087760
     5  H    0.084832
 Sum of Mulliken charges =  -0.00000

 Dipole moment (field-independent basis, Debye):
    X=             -0.0312    Y=             -0.0200    Z=              0.0049  Tot=              0.0374
 Quadrupole moment (field-independent basis, Debye-Ang):
   XX=             -8.3237   YY=             -8.4648   ZZ=             -8.5465
   XY=             -0.0011   XZ=             -0.0059   YZ=             -0.0124

 Normal termination of Gaussian 16 at Fri Sep 22 16:36:29 2023.
