 Gaussian 16, Revision A.03,
 Gaussian 16:  ES64L-G16RevA.03 25-Dec-2016

 ----------------------------------------------------------------------
 #p b3lyp/gen scrf=(cpcm,solvent=toluene) pop=hirshfeld empiricaldisper
 sion=gd3bj
 ----------------------------------------------------------------------

 ------------------------
 tmpdir/M3_conf_0_172.gjf
 ------------------------
 Symbolic Z-matrix:
 Charge =  0 Multiplicity = 1

                         Standard orientation:
 ---------------------------------------------------------------------
 Center     Atomic      Atomic             Coordinates (Angstroms)
 Number     Number       Type             X           Y           Z
 ---------------------------------------------------------------------
      1          1           0       -0.381304   -0.675801   -0.770846
      2          6           0        0.002137    0.004733   -0.002468
      3          1           0       -0.144385   -0.478868    0.970325
      4          1           0        1.084501    0.191367   -0.156606
      5          1           0       -0.571636    0.934906   -0.028068
 ---------------------------------------------------------------------

 SCF Done:  E(RB3LYP) =  -40.5139187018     A.U. after    7 cycles

 The electronic state is 1-A.
 Alpha  occ. eigenvalues --  -10.16359  -0.69304  -0.39523  -0.39264  -0.38952
 Alpha virt. eigenvalues --    0.05662   0.12409   0.12587   0.12622   0.37262
 Alpha virt. eigenvalues --    0.37594   0.38131   0.63309   0.63756   0.64003
 Alpha virt. eigenvalues --    0.67576   0.96115   1.28833   1.29044   1.84980

 Mulliken charges:
               1
     1  H    0.086771
     2  C   -0.353459
     3  H    0.085425
     4  H    0.092171
     5  H    0.089091
 Sum of Mulliken charges =  -0.00000

 Dipole moment (field-independent basis, Debye):
    X=             -0.0237    Y=             -0.0204    Z=              0.0123  Tot=              0.0336
 Quadrupole moment (field-independent basis, Debye-Ang):
   XX=             -8.3747   YY=             -8.4614   ZZ=             -8.5351
   XY=             -0.0117   XZ=              0.0038   YZ=              0.0030

 Normal termination of Gaussian 16 at Fri Sep 22 16:34:38 2023.
