 Gaussian 16, Revision A.03,
 Gaussian 16:  ES64L-G16RevA.03 25-Dec-2016

 ----------------------------------------------------------------------
 #p b3lyp/gen scrf=(cpcm,solvent=toluene) pop=hirshfeld empiricaldisper
 sion=gd3bj
 ----------------------------------------------------------------------

 ------------------------
 tmpdir/M3_conf_0_117.gjf
 ------------------------
 Symbolic Z-matrix:
 Charge =  0 Multiplicity = 1

                         Standard orientation:
 ---------------------------------------------------------------------
 Center     Atomic      Atomic             Coordinates (Angstroms)
 Number     Number       Type             X           Y           Z
 ---------------------------------------------------------------------
      1          6           0       -0.005292    0.001445    0.003104
      2          1           0        0.189807   -0.657561   -0.852941
      3          1           0       -1.102639    0.083544    0.172019
      4          1           0        0.436579    0.983200   -0.213067
      5          1           0        0.508003   -0.417851    0.875365
 ---------------------------------------------------------------------

 SCF Done:  E(RB3LYP) =  -40.5137378782     A.U. after    7 cycles

 The electronic state is 1-A.
 Alpha  occ. eigenvalues --  -10.16463  -0.69232  -0.39552  -0.39080  -0.38975
 Alpha virt. eigenvalues --    0.05618   0.12337   0.12553   0.12576   0.37283
 Alpha virt. eigenvalues --    0.37399   0.38322   0.63095   0.63675   0.63753
 Alpha virt. eigenvalues --    0.67326   0.96078   1.28786   1.29161   1.84656

 Mulliken charges:
               1
     1  C   -0.356116
     2  H    0.086110
     3  H    0.094607
     4  H    0.087683
     5  H    0.087716
 Sum of Mulliken charges =   0.00000

 Dipole moment (field-independent basis, Debye):
    X=              0.0381    Y=             -0.0087    Z=             -0.0139  Tot=              0.0415
 Quadrupole moment (field-independent basis, Debye-Ang):
   XX=             -8.3459   YY=             -8.5166   ZZ=             -8.5325
   XY=              0.0004   XZ=              0.0066   YZ=             -0.0058

 Normal termination of Gaussian 16 at Fri Sep 22 16:33:41 2023.
