 Gaussian 16, Revision A.03,
 Gaussian 16:  ES64L-G16RevA.03 25-Dec-2016

 ----------------------------------------------------------------------
 #p b3lyp/gen scrf=(cpcm,solvent=toluene) pop=hirshfeld empiricaldisper
 sion=gd3bj
 ----------------------------------------------------------------------

 ------------------------
 tmpdir/M3_conf_0_239.gjf
 ------------------------
 Symbolic Z-matrix:
 Charge =  0 Multiplicity = 1

                         Standard orientation:
 ---------------------------------------------------------------------
 Center     Atomic      Atomic             Coordinates (Angstroms)
 Number     Number       Type             X           Y           Z
 ---------------------------------------------------------------------
      1          1           0       -0.016426    0.939041   -0.564536
      2          6           0       -0.006809   -0.007688   -0.005116
      3          1           0        0.717492   -0.695655   -0.450392
      4          1           0       -1.010386   -0.428729    0.038571
      5          1           0        0.350173    0.231474    1.007051
 ---------------------------------------------------------------------

 SCF Done:  E(RB3LYP) =  -40.5137379879     A.U. after    7 cycles

 The electronic state is 1-A.
 Alpha  occ. eigenvalues --  -10.16242  -0.69398  -0.39967  -0.39281  -0.38635
 Alpha virt. eigenvalues --    0.05708   0.12508   0.12579   0.12678   0.37016
 Alpha virt. eigenvalues --    0.37631   0.38349   0.63438   0.63839   0.64417
 Alpha virt. eigenvalues --    0.67868   0.96204   1.28635   1.29179   1.84541

 Mulliken charges:
               1
     1  H    0.086218
     2  C   -0.350304
     3  H    0.088822
     4  H    0.091696
     5  H    0.083568
 Sum of Mulliken charges =   0.00000

 Dipole moment (field-independent basis, Debye):
    X=              0.0229    Y=              0.0243    Z=              0.0205  Tot=              0.0391
 Quadrupole moment (field-independent basis, Debye-Ang):
   XX=             -8.3236   YY=             -8.4478   ZZ=             -8.5762
   XY=              0.0074   XZ=             -0.0135   YZ=              0.0053

 Normal termination of Gaussian 16 at Fri Sep 22 16:36:25 2023.
