 Gaussian 16, Revision A.03,
 Gaussian 16:  ES64L-G16RevA.03 25-Dec-2016

 ----------------------------------------------------------------------
 #p b3lyp/gen scrf=(cpcm,solvent=toluene) pop=hirshfeld empiricaldisper
 sion=gd3bj
 ----------------------------------------------------------------------

 -----------------------
 tmpdir/M3_conf_0_59.gjf
 -----------------------
 Symbolic Z-matrix:
 Charge =  0 Multiplicity = 1

                         Standard orientation:
 ---------------------------------------------------------------------
 Center     Atomic      Atomic             Coordinates (Angstroms)
 Number     Number       Type             X           Y           Z
 ---------------------------------------------------------------------
      1          6           0        0.004446    0.000604    0.001062
      2          1           0       -0.600939   -0.333223   -0.856347
      3          1           0        0.436838    0.996516   -0.201191
      4          1           0        0.812939   -0.729677    0.190349
      5          1           0       -0.675517    0.062760    0.860814
 ---------------------------------------------------------------------

 SCF Done:  E(RB3LYP) =  -40.5138651258     A.U. after    7 cycles

 The electronic state is 1-A.
 Alpha  occ. eigenvalues --  -10.16512  -0.69188  -0.39575  -0.39250  -0.38734
 Alpha virt. eigenvalues --    0.05604   0.12399   0.12477   0.12520   0.37047
 Alpha virt. eigenvalues --    0.37796   0.38196   0.63299   0.63473   0.63657
 Alpha virt. eigenvalues --    0.67003   0.95956   1.28581   1.29466   1.85178

 Mulliken charges:
               1
     1  C   -0.357541
     2  H    0.087266
     3  H    0.090954
     4  H    0.091753
     5  H    0.087567
 Sum of Mulliken charges =  -0.00000

 Dipole moment (field-independent basis, Debye):
    X=             -0.0257    Y=             -0.0023    Z=             -0.0017  Tot=              0.0259
 Quadrupole moment (field-independent basis, Debye-Ang):
   XX=             -8.3925   YY=             -8.4378   ZZ=             -8.5760
   XY=             -0.0008   XZ=             -0.0058   YZ=             -0.0015

 Normal termination of Gaussian 16 at Fri Sep 22 16:32:38 2023.
