 Gaussian 16, Revision A.03,
 Gaussian 16:  ES64L-G16RevA.03 25-Dec-2016

 ----------------------------------------------------------------------
 #p b3lyp/gen scrf=(cpcm,solvent=toluene) pop=hirshfeld empiricaldisper
 sion=gd3bj
 ----------------------------------------------------------------------

 ------------------------
 tmpdir/M3_conf_0_217.gjf
 ------------------------
 Symbolic Z-matrix:
 Charge =  0 Multiplicity = 1

                         Standard orientation:
 ---------------------------------------------------------------------
 Center     Atomic      Atomic             Coordinates (Angstroms)
 Number     Number       Type             X           Y           Z
 ---------------------------------------------------------------------
      1          6           0        0.571457   -0.011548   -0.026207
      2          1           0        1.035294    0.971272    0.050807
      3          1           0        1.175408   -0.851864    0.059717
      4          8           0       -0.704931   -0.006265    0.005840
 ---------------------------------------------------------------------

 SCF Done:  E(RB3LYP) =  -114.476865199     A.U. after   10 cycles

 The electronic state is 1-A.
 Alpha  occ. eigenvalues --  -19.14361 -10.28076  -1.03374  -0.65838  -0.50245
 Alpha  occ. eigenvalues --   -0.44708  -0.38582  -0.27708
 Alpha virt. eigenvalues --   -0.07173   0.06288   0.11441   0.16968   0.40536
 Alpha virt. eigenvalues --    0.47357   0.51210   0.54692   0.60580   0.72042
 Alpha virt. eigenvalues --    0.79901   0.87312   0.96788   1.32565   1.48084

 Mulliken charges:
               1
     1  C    0.218416
     2  H    0.090326
     3  H    0.091943
     4  O   -0.400686
 Sum of Mulliken charges =   0.00000

 Dipole moment (field-independent basis, Debye):
    X=              3.0137    Y=             -0.0550    Z=              0.0236  Tot=              3.0143
 Quadrupole moment (field-independent basis, Debye-Ang):
   XX=            -11.8997   YY=            -11.5142   ZZ=            -11.6739
   XY=             -0.2164   XZ=              0.0605   YZ=              0.0115

 Normal termination of Gaussian 16 at Fri Sep 22 16:37:14 2023.
