 Gaussian 16, Revision A.03,
 Gaussian 16:  ES64L-G16RevA.03 25-Dec-2016

 ----------------------------------------------------------------------
 #p b3lyp/gen scrf=(cpcm,solvent=toluene) pop=hirshfeld empiricaldisper
 sion=gd3bj
 ----------------------------------------------------------------------

 ------------------------
 tmpdir/M3_conf_0_196.gjf
 ------------------------
 Symbolic Z-matrix:
 Charge =  0 Multiplicity = 1

                         Standard orientation:
 ---------------------------------------------------------------------
 Center     Atomic      Atomic             Coordinates (Angstroms)
 Number     Number       Type             X           Y           Z
 ---------------------------------------------------------------------
      1          8           0        0.745951   -0.115570    0.008663
      2          6           0       -0.690507    0.016700   -0.005009
      3          1           0       -0.971018    0.861751   -0.641509
      4          1           0        1.264013    0.651153   -0.046874
      5          1           0       -1.021811    0.244748    1.016675
      6          1           0       -1.095751   -0.933297   -0.367541
 ---------------------------------------------------------------------

 SCF Done:  E(RB3LYP) =  -115.700836468     A.U. after    9 cycles

 The electronic state is 1-A.
 Alpha  occ. eigenvalues --  -19.10436 -10.22051  -1.01126  -0.69050  -0.50762
 Alpha  occ. eigenvalues --   -0.43803  -0.43119  -0.32443  -0.27124
 Alpha virt. eigenvalues --    0.04746   0.07755   0.11751   0.11986   0.16973
 Alpha virt. eigenvalues --    0.41464   0.42726   0.44598   0.58841   0.60913
 Alpha virt. eigenvalues --    0.63678   0.65929   0.86630   0.86782   0.90590

 Mulliken charges:
               1
     1  O   -0.510339
     2  C    0.052386
     3  H    0.077568
     4  H    0.205889
     5  H    0.076112
     6  H    0.098384
 Sum of Mulliken charges =   0.00000

 Dipole moment (field-independent basis, Debye):
    X=             -0.8811    Y=              1.6103    Z=             -0.1597  Tot=              1.8425
 Quadrupole moment (field-independent basis, Debye-Ang):
   XX=            -12.1699   YY=            -12.3469   ZZ=            -13.6875
   XY=              2.3090   XZ=             -0.0946   YZ=              0.0046

 Normal termination of Gaussian 16 at Fri Sep 22 16:35:56 2023.
