 Gaussian 16, Revision A.03,
 Gaussian 16:  ES64L-G16RevA.03 25-Dec-2016

 ----------------------------------------------------------------------
 #p b3lyp/gen scrf=(cpcm,solvent=toluene) pop=hirshfeld empiricaldisper
 sion=gd3bj
 ----------------------------------------------------------------------

 ------------------------
 tmpdir/M3_conf_0_224.gjf
 ------------------------
 Symbolic Z-matrix:
 Charge =  0 Multiplicity = 1

                         Standard orientation:
 ---------------------------------------------------------------------
 Center     Atomic      Atomic             Coordinates (Angstroms)
 Number     Number       Type             X           Y           Z
 ---------------------------------------------------------------------
      1          6           0        1.163404   -0.142751    0.007921
      2          6           0       -0.236093    0.370610    0.015353
      3          1           0       -0.327502    1.458145    0.023859
      4          1           0        1.699994    0.378982   -0.911081
      5          1           0        1.702275    0.144147    0.922725
      6          1           0        1.219636   -1.230407   -0.107450
      7          8           0       -1.232284   -0.264753   -0.008462
 ---------------------------------------------------------------------

 SCF Done:  E(RB3LYP) =  -153.809064006     A.U. after   10 cycles

 The electronic state is 1-A.
 Alpha  occ. eigenvalues --  -19.12710 -10.26886 -10.19336  -1.07620  -0.75605
 Alpha  occ. eigenvalues --   -0.58536  -0.48730  -0.45343  -0.44732  -0.39850
 Alpha  occ. eigenvalues --   -0.37604  -0.26503
 Alpha virt. eigenvalues --   -0.02554   0.04797   0.08211   0.10081   0.11706
 Alpha virt. eigenvalues --    0.21503   0.22563   0.41395   0.42219   0.44517
 Alpha virt. eigenvalues --    0.45865   0.54748   0.56303   0.59274   0.63136

 Mulliken charges:
               1
     1  C   -0.252326
     2  C    0.177429
     3  H    0.041169
     4  H    0.129775
     5  H    0.129328
     6  H    0.108014
     7  O   -0.333389
 Sum of Mulliken charges =  -0.00000

 Dipole moment (field-independent basis, Debye):
    X=              2.7675    Y=              1.2194    Z=              0.0796  Tot=              3.0252
 Quadrupole moment (field-independent basis, Debye-Ang):
   XX=            -21.3241   YY=            -18.2893   ZZ=            -17.8336
   XY=             -0.9460   XZ=              0.0675   YZ=             -0.0757

 Normal termination of Gaussian 16 at Fri Sep 22 16:36:20 2023.
