 Gaussian 16, Revision A.03,
 Gaussian 16:  ES64L-G16RevA.03 25-Dec-2016

 ----------------------------------------------------------------------
 #p b3lyp/gen scrf=(cpcm,solvent=toluene) pop=hirshfeld empiricaldisper
 sion=gd3bj
 ----------------------------------------------------------------------

 -----------------------
 tmpdir/M3_conf_0_62.gjf
 -----------------------
 Symbolic Z-matrix:
 Charge =  0 Multiplicity = 1

                         Standard orientation:
 ---------------------------------------------------------------------
 Center     Atomic      Atomic             Coordinates (Angstroms)
 Number     Number       Type             X           Y           Z
 ---------------------------------------------------------------------
      1          6           0       -0.758148    0.001583   -0.003683
      2          6           0        0.767441    0.005848    0.000256
      3          1           0        1.153332   -0.070026   -1.028540
      4          1           0       -1.213952    0.875611   -0.527333
      5          1           0       -1.115155    0.000283    1.037409
      6          1           0       -1.156466   -0.910105   -0.467010
      7          1           0        1.140388    0.936436    0.466844
      8          1           0        1.136090   -0.876782    0.539188
 ---------------------------------------------------------------------

 SCF Done:  E(RB3LYP) =  -79.8213731490     A.U. after    9 cycles

 The electronic state is 1-A.
 Alpha  occ. eigenvalues --  -10.16700 -10.16656  -0.75398  -0.61221  -0.43770
 Alpha  occ. eigenvalues --   -0.43450  -0.36829  -0.34558  -0.34110
 Alpha virt. eigenvalues --    0.04981   0.09188   0.10434   0.10629   0.13641
 Alpha virt. eigenvalues --    0.13828   0.21589   0.37209   0.39033   0.39476
 Alpha virt. eigenvalues --    0.45869   0.47682   0.58920   0.63886   0.64140

 Mulliken charges:
               1
     1  C   -0.268661
     2  C   -0.254282
     3  H    0.085967
     4  H    0.090201
     5  H    0.083831
     6  H    0.084407
     7  H    0.091242
     8  H    0.087295
 Sum of Mulliken charges =  -0.00000

 Dipole moment (field-independent basis, Debye):
    X=             -0.0016    Y=             -0.0470    Z=              0.0120  Tot=              0.0486
 Quadrupole moment (field-independent basis, Debye-Ang):
   XX=            -15.9836   YY=            -14.9293   ZZ=            -15.0994
   XY=             -0.0424   XZ=              0.0393   YZ=              0.0070

 Normal termination of Gaussian 16 at Fri Sep 22 16:32:56 2023.
