 Gaussian 16, Revision A.03,
 Gaussian 16:  ES64L-G16RevA.03 25-Dec-2016

 ----------------------------------------------------------------------
 #p b3lyp/gen scrf=(cpcm,solvent=toluene) pop=hirshfeld empiricaldisper
 sion=gd3bj
 ----------------------------------------------------------------------

 ----------------------
 tmpdir/M3_conf_0_5.gjf
 ----------------------
 Symbolic Z-matrix:
 Charge =  0 Multiplicity = 1

                         Standard orientation:
 ---------------------------------------------------------------------
 Center     Atomic      Atomic             Coordinates (Angstroms)
 Number     Number       Type             X           Y           Z
 ---------------------------------------------------------------------
      1          6           0       -0.015162    0.010189   -0.005023
      2          1           0       -0.644815   -0.483738   -0.750511
      3          1           0        1.036491   -0.534059    0.045171
      4          1           0       -0.493431   -0.084788    0.980770
      5          1           0        0.192727    1.041453   -0.245294
 ---------------------------------------------------------------------

 SCF Done:  E(RB3LYP) =  -40.5095541114     A.U. after    8 cycles

 The electronic state is 1-A.
 Alpha  occ. eigenvalues --  -10.16990  -0.68932  -0.40331  -0.39255  -0.37493
 Alpha virt. eigenvalues --    0.05333   0.11282   0.12524   0.12781   0.37252
 Alpha virt. eigenvalues --    0.37336   0.38722   0.59196   0.63633   0.64675
 Alpha virt. eigenvalues --    0.66737   0.95592   1.28844   1.30032   1.81530

 Mulliken charges:
               1
     1  C   -0.365305
     2  H    0.093453
     3  H    0.089147
     4  H    0.091175
     5  H    0.091530
 Sum of Mulliken charges =  -0.00000

 Dipole moment (field-independent basis, Debye):
    X=             -0.0306    Y=              0.0255    Z=              0.0078  Tot=              0.0406
 Quadrupole moment (field-independent basis, Debye-Ang):
   XX=             -8.4797   YY=             -8.5094   ZZ=             -8.5363
   XY=              0.1358   XZ=             -0.0003   YZ=             -0.0007

 Normal termination of Gaussian 16 at Fri Sep 22 16:33:49 2023.
