 Gaussian 16, Revision A.03,
 Gaussian 16:  ES64L-G16RevA.03 25-Dec-2016

 ----------------------------------------------------------------------
 #p b3lyp/gen scrf=(cpcm,solvent=toluene) pop=hirshfeld empiricaldisper
 sion=gd3bj
 ----------------------------------------------------------------------

 ------------------------
 tmpdir/M3_conf_0_214.gjf
 ------------------------
 Symbolic Z-matrix:
 Charge =  0 Multiplicity = 1

                         Standard orientation:
 ---------------------------------------------------------------------
 Center     Atomic      Atomic             Coordinates (Angstroms)
 Number     Number       Type             X           Y           Z
 ---------------------------------------------------------------------
      1          6           0        2.278398    0.248504    0.720413
      2          6           0        1.612385   -0.280663   -0.563695
      3          7           0        0.152869   -0.128836   -0.425280
      4          6           0       -0.678553   -1.160469   -0.028512
      5          6           0       -0.536707    1.087115   -0.323227
      6          6           0       -1.904523   -0.597731    0.331619
      7          6           0       -1.804243    0.808706    0.126289
      8          1           0       -2.586364    1.534671    0.313986
      9          1           0        3.381938    0.229560    0.675907
     10          1           0        1.903130   -0.345479    1.564190
     11          1           0        1.948995    1.278363    0.903824
     12          1           0        2.027989    0.146523   -1.510172
     13          1           0        1.794608   -1.358347   -0.621326
     14          1           0       -0.455865   -2.202042   -0.107053
     15          1           0       -0.140799    2.057739   -0.587243
     16          1           0       -2.744256   -1.071913    0.767519
 ---------------------------------------------------------------------

 SCF Done:  E(RB3LYP) =  -288.764398169     A.U. after   12 cycles

 The electronic state is 1-A.
 Alpha  occ. eigenvalues --  -14.36408 -10.22558 -10.19500 -10.19308 -10.17721
 Alpha  occ. eigenvalues --  -10.15754 -10.15581  -0.98020  -0.81103  -0.73271
 Alpha  occ. eigenvalues --   -0.72113  -0.63969  -0.57092  -0.55521  -0.52761
 Alpha  occ. eigenvalues --   -0.46439  -0.45064  -0.42546  -0.41348  -0.39078
 Alpha  occ. eigenvalues --   -0.38486  -0.37377  -0.36723  -0.35337  -0.24082
 Alpha  occ. eigenvalues --   -0.21751
 Alpha virt. eigenvalues --    0.01734   0.04765   0.06610   0.07419   0.07607
 Alpha virt. eigenvalues --    0.08715   0.10161   0.11119   0.12481   0.13181
 Alpha virt. eigenvalues --    0.14604   0.15190   0.19605   0.21773   0.23671

 Mulliken charges:
               1
     1  C   -0.207310
     2  C    0.026159
     3  N   -0.555115
     4  C    0.147540
     5  C    0.142784
     6  C   -0.147343
     7  C   -0.153534
     8  H    0.048201
     9  H    0.098718
    10  H    0.097292
    11  H    0.096350
    12  H    0.112697
    13  H    0.094788
    14  H    0.081552
    15  H    0.079487
    16  H    0.037735
 Sum of Mulliken charges =  -0.00000

 Dipole moment (field-independent basis, Debye):
    X=              2.4045    Y=             -0.1999    Z=             -0.2342  Tot=              2.4241
 Quadrupole moment (field-independent basis, Debye-Ang):
   XX=            -41.2590   YY=            -39.8713   ZZ=            -46.5177
   XY=             -0.5928   XZ=             -2.5567   YZ=             -0.6117

 Normal termination of Gaussian 16 at Fri Sep 22 16:36:52 2023.
