 Gaussian 16, Revision A.03,
 Gaussian 16:  ES64L-G16RevA.03 25-Dec-2016

 ----------------------------------------------------------------------
 #p b3lyp/gen scrf=(cpcm,solvent=toluene) pop=hirshfeld empiricaldisper
 sion=gd3bj
 ----------------------------------------------------------------------

 ------------------------
 tmpdir/M3_conf_0_133.gjf
 ------------------------
 Symbolic Z-matrix:
 Charge =  0 Multiplicity = 1

                         Standard orientation:
 ---------------------------------------------------------------------
 Center     Atomic      Atomic             Coordinates (Angstroms)
 Number     Number       Type             X           Y           Z
 ---------------------------------------------------------------------
      1          6           0       -3.665244   -1.246074   -0.172418
      2          6           0       -3.205238    0.169917    0.189100
      3          6           0       -1.696862    0.375472    0.041068
      4          6           0       -0.827394   -0.692522    0.060614
      5          6           0       -1.160331    1.690784   -0.053876
      6          6           0        0.579631   -0.510067    0.023233
      7          1           0       -1.199066   -1.712688    0.103316
      8          6           0        0.196653    1.906147   -0.062736
      9          1           0       -1.826826    2.544203   -0.151143
     10          6           0        1.109520    0.818005   -0.005424
     11          6           0        1.479954   -1.609670    0.013325
     12          1           0        0.584749    2.921214   -0.138951
     13          6           0        2.517551    0.997913    0.003693
     14          6           0        2.840910   -1.403330   -0.009533
     15          1           0        1.074802   -2.620883    0.023472
     16          6           0        3.363432   -0.088123   -0.002962
     17          1           0        2.915537    2.008813    0.032160
     18          1           0        3.521345   -2.252816   -0.023683
     19          1           0        4.441525    0.059788    0.002150
     20          1           0       -3.314636   -1.539169   -1.165523
     21          1           0       -3.297888   -1.967236    0.566184
     22          1           0       -4.760704   -1.282767   -0.155725
     23          1           0       -3.542448    0.438691    1.230453
     24          1           0       -3.791877    0.952127   -0.467212
 ---------------------------------------------------------------------

 SCF Done:  E(RB3LYP) =  -464.483987851     A.U. after   12 cycles

 The electronic state is 1-A.
 Alpha  occ. eigenvalues --  -10.19227 -10.19191 -10.19177 -10.19095 -10.18498
 Alpha  occ. eigenvalues --  -10.18496 -10.18488 -10.18434 -10.18381 -10.18284
 Alpha  occ. eigenvalues --  -10.17997 -10.17068  -0.88518  -0.83713  -0.78966
 Alpha  occ. eigenvalues --   -0.77291  -0.74075  -0.71850  -0.64974  -0.62326
 Alpha  occ. eigenvalues --   -0.60557  -0.58795  -0.52158  -0.51355  -0.48968
 Alpha  occ. eigenvalues --   -0.45700  -0.45247  -0.44680  -0.42881  -0.42482
 Alpha  occ. eigenvalues --   -0.41239  -0.39986  -0.39014  -0.36956  -0.36462
 Alpha  occ. eigenvalues --   -0.35379  -0.34055  -0.33433  -0.32504  -0.29450
 Alpha  occ. eigenvalues --   -0.24973  -0.22556
 Alpha virt. eigenvalues --   -0.05001  -0.02398   0.01381   0.04805   0.05363
 Alpha virt. eigenvalues --    0.05960   0.07122   0.07835   0.08484   0.10445
 Alpha virt. eigenvalues --    0.10941   0.11296   0.12277   0.14222   0.15184

 Mulliken charges:
               1
     1  C   -0.188466
     2  C   -0.143940
     3  C   -0.231292
     4  C    0.061977
     5  C    0.002029
     6  C   -0.126747
     7  H    0.036656
     8  C   -0.004690
     9  H    0.041932
    10  C   -0.133578
    11  C   -0.013824
    12  H    0.048215
    13  C    0.002517
    14  C   -0.039748
    15  H    0.046583
    16  C   -0.043730
    17  H    0.045943
    18  H    0.062937
    19  H    0.063737
    20  H    0.097661
    21  H    0.099344
    22  H    0.092584
    23  H    0.119531
    24  H    0.104366
 Sum of Mulliken charges =  -0.00000

 Dipole moment (field-independent basis, Debye):
    X=             -0.6532    Y=             -0.0203    Z=              0.0981  Tot=              0.6609
 Quadrupole moment (field-independent basis, Debye-Ang):
   XX=            -63.4828   YY=            -65.3607   ZZ=            -78.2079
   XY=             -0.0842   XZ=             -0.4742   YZ=             -0.4558

 Normal termination of Gaussian 16 at Fri Sep 22 16:36:15 2023.
