 Gaussian 16, Revision A.03,
 Gaussian 16:  ES64L-G16RevA.03 25-Dec-2016

 ----------------------------------------------------------------------
 #p b3lyp/gen scrf=(cpcm,solvent=toluene) pop=hirshfeld empiricaldisper
 sion=gd3bj
 ----------------------------------------------------------------------

 ------------------------
 tmpdir/M3_conf_0_100.gjf
 ------------------------
 Symbolic Z-matrix:
 Charge =  0 Multiplicity = 1

                         Standard orientation:
 ---------------------------------------------------------------------
 Center     Atomic      Atomic             Coordinates (Angstroms)
 Number     Number       Type             X           Y           Z
 ---------------------------------------------------------------------
      1          6           0        0.773418    0.005687   -0.006287
      2          6           0       -0.763250   -0.002595   -0.000841
      3          1           0       -1.179275    0.159627   -1.003172
      4          1           0        1.136516   -0.855217   -0.646609
      5          1           0        1.134094    0.994237   -0.368540
      6          1           0        1.141416   -0.170268    1.029595
      7          1           0       -1.158404   -0.950324    0.387535
      8          1           0       -1.135356    0.803390    0.643961
 ---------------------------------------------------------------------

 SCF Done:  E(RB3LYP) =  -79.8203311969     A.U. after    9 cycles

 The electronic state is 1-A.
 Alpha  occ. eigenvalues --  -10.17272 -10.16509  -0.75157  -0.60996  -0.43818
 Alpha  occ. eigenvalues --   -0.43301  -0.36379  -0.34698  -0.34097
 Alpha virt. eigenvalues --    0.04834   0.09190   0.10407   0.10521   0.13453
 Alpha virt. eigenvalues --    0.13702   0.21043   0.37330   0.38954   0.39897
 Alpha virt. eigenvalues --    0.46040   0.47041   0.58108   0.62969   0.63791

 Mulliken charges:
               1
     1  C   -0.272472
     2  C   -0.260666
     3  H    0.086852
     4  H    0.092562
     5  H    0.094472
     6  H    0.089283
     7  H    0.086161
     8  H    0.083809
 Sum of Mulliken charges =  -0.00000

 Dipole moment (field-independent basis, Debye):
    X=             -0.0457    Y=              0.0080    Z=              0.0355  Tot=              0.0584
 Quadrupole moment (field-independent basis, Debye-Ang):
   XX=            -16.1527   YY=            -14.9022   ZZ=            -15.0996
   XY=              0.0212   XZ=              0.0804   YZ=             -0.0344

 Normal termination of Gaussian 16 at Fri Sep 22 16:33:21 2023.
