 Gaussian 16, Revision A.03,
 Gaussian 16:  ES64L-G16RevA.03 25-Dec-2016

 ----------------------------------------------------------------------
 #p b3lyp/gen scrf=(cpcm,solvent=toluene) pop=hirshfeld empiricaldisper
 sion=gd3bj
 ----------------------------------------------------------------------

 ------------------------
 tmpdir/M3_conf_0_136.gjf
 ------------------------
 Symbolic Z-matrix:
 Charge =  0 Multiplicity = 1

                         Standard orientation:
 ---------------------------------------------------------------------
 Center     Atomic      Atomic             Coordinates (Angstroms)
 Number     Number       Type             X           Y           Z
 ---------------------------------------------------------------------
      1          6           0       -0.015968   -0.000665    0.007465
      2          1           0       -0.652402    0.866845    0.195291
      3          1           0        0.554446   -0.314809    0.899082
      4          1           0       -0.624059   -0.824073   -0.389257
      5          1           0        0.817823    0.276028   -0.749904
 ---------------------------------------------------------------------

 SCF Done:  E(RB3LYP) =  -40.5110003682     A.U. after    7 cycles

 The electronic state is 1-A.
 Alpha  occ. eigenvalues --  -10.16959  -0.68913  -0.40210  -0.39416  -0.37443
 Alpha virt. eigenvalues --    0.05394   0.11571   0.12487   0.12574   0.36697
 Alpha virt. eigenvalues --    0.37484   0.39187   0.60448   0.63662   0.63954
 Alpha virt. eigenvalues --    0.66100   0.95411   1.28601   1.30311   1.81256

 Mulliken charges:
               1
     1  C   -0.366922
     2  H    0.094174
     3  H    0.090969
     4  H    0.093253
     5  H    0.088526
 Sum of Mulliken charges =   0.00000

 Dipole moment (field-independent basis, Debye):
    X=              0.0115    Y=             -0.0095    Z=              0.0161  Tot=              0.0220
 Quadrupole moment (field-independent basis, Debye-Ang):
   XX=             -8.3211   YY=             -8.5030   ZZ=             -8.6947
   XY=             -0.0446   XZ=              0.0910   YZ=              0.0487

 Normal termination of Gaussian 16 at Fri Sep 22 16:36:25 2023.
