 Gaussian 16, Revision A.03,
 Gaussian 16:  ES64L-G16RevA.03 25-Dec-2016

 ----------------------------------------------------------------------
 #p b3lyp/gen scrf=(cpcm,solvent=toluene) pop=hirshfeld empiricaldisper
 sion=gd3bj
 ----------------------------------------------------------------------

 ------------------------
 tmpdir/M3_conf_0_115.gjf
 ------------------------
 Symbolic Z-matrix:
 Charge =  0 Multiplicity = 1

                         Standard orientation:
 ---------------------------------------------------------------------
 Center     Atomic      Atomic             Coordinates (Angstroms)
 Number     Number       Type             X           Y           Z
 ---------------------------------------------------------------------
      1          6           0        0.005288    0.001328   -0.003144
      2          1           0       -0.437232    0.988958    0.184012
      3          1           0        1.102537    0.079170   -0.174692
      4          1           0       -0.507931   -0.444072   -0.862411
      5          1           0       -0.189099   -0.632024    0.871956
 ---------------------------------------------------------------------

 SCF Done:  E(RB3LYP) =  -40.5137378065     A.U. after    7 cycles

 The electronic state is 1-A.
 Alpha  occ. eigenvalues --  -10.16463  -0.69232  -0.39552  -0.39079  -0.38977
 Alpha virt. eigenvalues --    0.05618   0.12337   0.12552   0.12577   0.37281
 Alpha virt. eigenvalues --    0.37401   0.38321   0.63096   0.63672   0.63756
 Alpha virt. eigenvalues --    0.67326   0.96078   1.28786   1.29161   1.84655

 Mulliken charges:
               1
     1  C   -0.356114
     2  H    0.087706
     3  H    0.094603
     4  H    0.087721
     5  H    0.086084
 Sum of Mulliken charges =   0.00000

 Dipole moment (field-independent basis, Debye):
    X=             -0.0381    Y=             -0.0086    Z=              0.0142  Tot=              0.0415
 Quadrupole moment (field-independent basis, Debye-Ang):
   XX=             -8.3459   YY=             -8.5161   ZZ=             -8.5330
   XY=              0.0000   XZ=              0.0066   YZ=              0.0055

 Normal termination of Gaussian 16 at Fri Sep 22 16:33:36 2023.
