 Gaussian 16, Revision A.03,
 Gaussian 16:  ES64L-G16RevA.03 25-Dec-2016

 ----------------------------------------------------------------------
 #p b3lyp/gen scrf=(cpcm,solvent=toluene) pop=hirshfeld empiricaldisper
 sion=gd3bj
 ----------------------------------------------------------------------

 -----------------------
 tmpdir/M3_conf_0_89.gjf
 -----------------------
 Symbolic Z-matrix:
 Charge =  0 Multiplicity = 1

                         Standard orientation:
 ---------------------------------------------------------------------
 Center     Atomic      Atomic             Coordinates (Angstroms)
 Number     Number       Type             X           Y           Z
 ---------------------------------------------------------------------
      1          6           0       -0.769111    0.000806   -0.000560
      2          6           0        0.768672   -0.004521   -0.005411
      3          1           0       -1.212563   -0.734946   -0.738822
      4          1           0       -1.133494    1.020654   -0.254655
      5          1           0       -1.141253   -0.276366    1.011425
      6          1           0        1.185279   -0.994931    0.214292
      7          1           0        1.172757    0.326583   -0.967871
      8          1           0        1.131912    0.681299    0.771461
 ---------------------------------------------------------------------

 SCF Done:  E(RB3LYP) =  -79.8210460500     A.U. after    9 cycles

 The electronic state is 1-A.
 Alpha  occ. eigenvalues --  -10.17261 -10.16603  -0.75081  -0.61205  -0.43543
 Alpha  occ. eigenvalues --   -0.43246  -0.36706  -0.34541  -0.34222
 Alpha virt. eigenvalues --    0.04917   0.09034   0.10402   0.10518   0.13607
 Alpha virt. eigenvalues --    0.13746   0.21220   0.37449   0.38849   0.39149
 Alpha virt. eigenvalues --    0.46893   0.47126   0.57970   0.63034   0.63804

 Mulliken charges:
               1
     1  C   -0.277415
     2  C   -0.254325
     3  H    0.091847
     4  H    0.090597
     5  H    0.089611
     6  H    0.086895
     7  H    0.087345
     8  H    0.085444
 Sum of Mulliken charges =  -0.00000

 Dipole moment (field-independent basis, Debye):
    X=              0.0401    Y=              0.0210    Z=              0.0277  Tot=              0.0531
 Quadrupole moment (field-independent basis, Debye-Ang):
   XX=            -15.9522   YY=            -15.0463   ZZ=            -15.0593
   XY=              0.0052   XZ=              0.0060   YZ=             -0.0299

 Normal termination of Gaussian 16 at Fri Sep 22 16:33:18 2023.
