 Gaussian 16, Revision A.03,
 Gaussian 16:  ES64L-G16RevA.03 25-Dec-2016

 ----------------------------------------------------------------------
 #p b3lyp/gen scrf=(cpcm,solvent=toluene) pop=hirshfeld empiricaldisper
 sion=gd3bj
 ----------------------------------------------------------------------

 ------------------------
 tmpdir/M3_conf_0_248.gjf
 ------------------------
 Symbolic Z-matrix:
 Charge =  0 Multiplicity = 1

                         Standard orientation:
 ---------------------------------------------------------------------
 Center     Atomic      Atomic             Coordinates (Angstroms)
 Number     Number       Type             X           Y           Z
 ---------------------------------------------------------------------
      1          1           0       -0.694365    0.767115    0.377812
      2          6           0        0.002685    0.006454   -0.003363
      3          1           0        0.297597   -0.679117    0.805138
      4          1           0        0.900896    0.470561   -0.409626
      5          1           0       -0.520241   -0.597282   -0.753147
 ---------------------------------------------------------------------

 SCF Done:  E(RB3LYP) =  -40.5138293380     A.U. after    7 cycles

 The electronic state is 1-A.
 Alpha  occ. eigenvalues --  -10.16273  -0.69370  -0.39855  -0.39373  -0.38620
 Alpha virt. eigenvalues --    0.05697   0.12512   0.12533   0.12678   0.36866
 Alpha virt. eigenvalues --    0.37881   0.38282   0.63479   0.63732   0.64339
 Alpha virt. eigenvalues --    0.67742   0.96059   1.28353   1.29571   1.84847

 Mulliken charges:
               1
     1  H    0.089429
     2  C   -0.351229
     3  H    0.085242
     4  H    0.090176
     5  H    0.086382
 Sum of Mulliken charges =   0.00000

 Dipole moment (field-independent basis, Debye):
    X=             -0.0049    Y=             -0.0254    Z=              0.0064  Tot=              0.0266
 Quadrupole moment (field-independent basis, Debye-Ang):
   XX=             -8.3553   YY=             -8.4173   ZZ=             -8.5803
   XY=              0.0163   XZ=             -0.0153   YZ=              0.0034

 Normal termination of Gaussian 16 at Fri Sep 22 16:36:27 2023.
