 Gaussian 16, Revision A.03,
 Gaussian 16:  ES64L-G16RevA.03 25-Dec-2016

 ----------------------------------------------------------------------
 #p b3lyp/gen scrf=(cpcm,solvent=toluene) pop=hirshfeld empiricaldisper
 sion=gd3bj
 ----------------------------------------------------------------------

 -----------------------
 tmpdir/M3_conf_0_10.gjf
 -----------------------
 Symbolic Z-matrix:
 Charge =  0 Multiplicity = 1

                         Standard orientation:
 ---------------------------------------------------------------------
 Center     Atomic      Atomic             Coordinates (Angstroms)
 Number     Number       Type             X           Y           Z
 ---------------------------------------------------------------------
      1          1           0       -0.488077   -0.074269    0.983834
      2          6           0       -0.014562    0.010673   -0.005170
      3          1           0       -0.663183   -0.472704   -0.743473
      4          1           0        1.026309   -0.554487    0.038237
      5          1           0        0.212323    1.037423   -0.247577
 ---------------------------------------------------------------------

 SCF Done:  E(RB3LYP) =  -40.5095208356     A.U. after    8 cycles

 The electronic state is 1-A.
 Alpha  occ. eigenvalues --  -10.17005  -0.68921  -0.40358  -0.39199  -0.37501
 Alpha virt. eigenvalues --    0.05327   0.11279   0.12508   0.12775   0.37246
 Alpha virt. eigenvalues --    0.37283   0.38794   0.59193   0.63581   0.64654
 Alpha virt. eigenvalues --    0.66693   0.95567   1.28822   1.30081   1.81457

 Mulliken charges:
               1
     1  H    0.090966
     2  C   -0.365707
     3  H    0.093660
     4  H    0.089348
     5  H    0.091732
 Sum of Mulliken charges =  -0.00000

 Dipole moment (field-independent basis, Debye):
    X=             -0.0308    Y=              0.0259    Z=              0.0101  Tot=              0.0415
 Quadrupole moment (field-independent basis, Debye-Ang):
   XX=             -8.4680   YY=             -8.5138   ZZ=             -8.5469
   XY=              0.1388   XZ=             -0.0000   YZ=             -0.0030

 Normal termination of Gaussian 16 at Fri Sep 22 16:34:11 2023.
