 Gaussian 16, Revision A.03,
 Gaussian 16:  ES64L-G16RevA.03 25-Dec-2016

 ----------------------------------------------------------------------
 #p b3lyp/gen scrf=(cpcm,solvent=toluene) pop=hirshfeld empiricaldisper
 sion=gd3bj
 ----------------------------------------------------------------------

 ------------------------
 tmpdir/M3_conf_0_144.gjf
 ------------------------
 Symbolic Z-matrix:
 Charge =  0 Multiplicity = 1

                         Standard orientation:
 ---------------------------------------------------------------------
 Center     Atomic      Atomic             Coordinates (Angstroms)
 Number     Number       Type             X           Y           Z
 ---------------------------------------------------------------------
      1          6           0        0.761260   -0.013839    0.006309
      2          6           0       -0.765994   -0.006109   -0.002691
      3          1           0        1.069117    1.031998    0.292315
      4          1           0        1.139255   -0.233385   -1.000817
      5          1           0        1.190785   -0.749815    0.692378
      6          1           0       -1.012672    1.001341   -0.381138
      7          1           0       -1.190510   -0.794470   -0.633347
      8          1           0       -1.167574   -0.135980    1.008899
 ---------------------------------------------------------------------

 SCF Done:  E(RB3LYP) =  -79.8171113785     A.U. after    9 cycles

 The electronic state is 1-A.
 Alpha  occ. eigenvalues --  -10.16657 -10.16470  -0.75541  -0.60909  -0.44438
 Alpha  occ. eigenvalues --   -0.43580  -0.36129  -0.34374  -0.34230
 Alpha virt. eigenvalues --    0.04814   0.09374   0.09683   0.10069   0.14759
 Alpha virt. eigenvalues --    0.14874   0.21270   0.36885   0.38743   0.40562
 Alpha virt. eigenvalues --    0.46950   0.48133   0.58842   0.62526   0.64195

 Mulliken charges:
               1
     1  C   -0.269300
     2  C   -0.255833
     3  H    0.088139
     4  H    0.086151
     5  H    0.088385
     6  H    0.087089
     7  H    0.088724
     8  H    0.086646
 Sum of Mulliken charges =  -0.00000

 Dipole moment (field-independent basis, Debye):
    X=             -0.0073    Y=             -0.0079    Z=             -0.0124  Tot=              0.0165
 Quadrupole moment (field-independent basis, Debye-Ang):
   XX=            -16.2931   YY=            -14.8133   ZZ=            -15.0436
   XY=              0.0406   XZ=             -0.0909   YZ=             -0.0166

 Normal termination of Gaussian 16 at Fri Sep 22 16:34:04 2023.
