 Gaussian 16, Revision A.03,
 Gaussian 16:  ES64L-G16RevA.03 25-Dec-2016

 ----------------------------------------------------------------------
 #p b3lyp/gen scrf=(cpcm,solvent=toluene) pop=hirshfeld empiricaldisper
 sion=gd3bj
 ----------------------------------------------------------------------

 -----------------------
 tmpdir/M3_conf_0_68.gjf
 -----------------------
 Symbolic Z-matrix:
 Charge =  0 Multiplicity = 1

                         Standard orientation:
 ---------------------------------------------------------------------
 Center     Atomic      Atomic             Coordinates (Angstroms)
 Number     Number       Type             X           Y           Z
 ---------------------------------------------------------------------
      1          6           0        1.246974   -0.267636    0.000554
      2          6           0       -0.002964    0.607527   -0.010220
      3          6           0       -1.251626   -0.272575    0.000670
      4          1           0        2.159840    0.340058   -0.054090
      5          1           0        1.295643   -0.803530    0.956169
      6          1           0        1.274133   -1.002203   -0.837835
      7          1           0        0.014346    1.283207    0.855087
      8          1           0       -0.010055    1.243758   -0.909240
      9          1           0       -1.257737   -0.928052   -0.888159
     10          1           0       -2.162164    0.340775    0.011381
     11          1           0       -1.268311   -0.877907    0.920661
 ---------------------------------------------------------------------

 SCF Done:  E(RB3LYP) =  -119.132177829     A.U. after   10 cycles

 The electronic state is 1-A.
 Alpha  occ. eigenvalues --  -10.16916 -10.16389 -10.16387  -0.78357  -0.67809
 Alpha  occ. eigenvalues --   -0.58292  -0.46052  -0.43833  -0.39538  -0.38221
 Alpha  occ. eigenvalues --   -0.34115  -0.33521  -0.33028
 Alpha virt. eigenvalues --    0.04727   0.08658   0.08762   0.08905   0.11781
 Alpha virt. eigenvalues --    0.13611   0.14394   0.15338   0.19462   0.23433
 Alpha virt. eigenvalues --    0.37341   0.38427   0.40296   0.40805   0.41089

 Mulliken charges:
               1
     1  C   -0.218492
     2  C   -0.246832
     3  C   -0.211551
     4  H    0.082911
     5  H    0.081157
     6  H    0.086820
     7  H    0.086862
     8  H    0.086080
     9  H    0.086870
    10  H    0.084397
    11  H    0.081779
 Sum of Mulliken charges =  -0.00000

 Dipole moment (field-independent basis, Debye):
    X=              0.0077    Y=              0.1125    Z=              0.0384  Tot=              0.1191
 Quadrupole moment (field-independent basis, Debye-Ang):
   XX=            -22.7760   YY=            -22.3086   ZZ=            -21.5561
   XY=             -0.0432   XZ=             -0.0183   YZ=              0.1557

 Normal termination of Gaussian 16 at Fri Sep 22 16:33:19 2023.
