 Gaussian 16, Revision A.03,
 Gaussian 16:  ES64L-G16RevA.03 25-Dec-2016

 ----------------------------------------------------------------------
 #p b3lyp/gen scrf=(cpcm,solvent=toluene) pop=hirshfeld empiricaldisper
 sion=gd3bj
 ----------------------------------------------------------------------

 -----------------------
 tmpdir/M3_conf_0_54.gjf
 -----------------------
 Symbolic Z-matrix:
 Charge =  0 Multiplicity = 1

                         Standard orientation:
 ---------------------------------------------------------------------
 Center     Atomic      Atomic             Coordinates (Angstroms)
 Number     Number       Type             X           Y           Z
 ---------------------------------------------------------------------
      1          1           0        0.269797    0.670547   -0.819564
      2          6           0       -0.004658   -0.009259   -0.002164
      3          1           0       -0.116714    0.620266    0.888848
      4          1           0       -0.965493   -0.514595   -0.206058
      5          1           0        0.840356   -0.720664    0.149756
 ---------------------------------------------------------------------

 SCF Done:  E(RB3LYP) =  -40.5133190415     A.U. after    7 cycles

 The electronic state is 1-A.
 Alpha  occ. eigenvalues --  -10.16559  -0.69172  -0.39789  -0.39069  -0.38622
 Alpha virt. eigenvalues --    0.05575   0.12297   0.12456   0.12554   0.36902
 Alpha virt. eigenvalues --    0.37516   0.38628   0.62929   0.63422   0.63675
 Alpha virt. eigenvalues --    0.67098   0.96058   1.28624   1.29409   1.83155

 Mulliken charges:
               1
     1  H    0.085872
     2  C   -0.358498
     3  H    0.084874
     4  H    0.094890
     5  H    0.092861
 Sum of Mulliken charges =   0.00000

 Dipole moment (field-independent basis, Debye):
    X=              0.0113    Y=              0.0554    Z=              0.0092  Tot=              0.0573
 Quadrupole moment (field-independent basis, Debye-Ang):
   XX=             -8.3144   YY=             -8.4831   ZZ=             -8.6220
   XY=              0.0191   XZ=              0.0009   YZ=              0.0038

 Normal termination of Gaussian 16 at Fri Sep 22 16:33:06 2023.
