 Gaussian 16, Revision A.03,
 Gaussian 16:  ES64L-G16RevA.03 25-Dec-2016

 ----------------------------------------------------------------------
 #p b3lyp/gen scrf=(cpcm,solvent=toluene) pop=hirshfeld empiricaldisper
 sion=gd3bj
 ----------------------------------------------------------------------

 ------------------------
 tmpdir/M3_conf_0_169.gjf
 ------------------------
 Symbolic Z-matrix:
 Charge =  0 Multiplicity = 1

                         Standard orientation:
 ---------------------------------------------------------------------
 Center     Atomic      Atomic             Coordinates (Angstroms)
 Number     Number       Type             X           Y           Z
 ---------------------------------------------------------------------
      1          6           0        0.760807   -0.025689    0.002179
      2          6           0       -0.771093   -0.001660   -0.003785
      3          1           0       -1.113276    1.037234    0.068739
      4          1           0        1.156663    0.400340    0.967663
      5          1           0        1.167957    0.744713   -0.789937
      6          1           0        1.189815   -1.029356   -0.183569
      7          1           0       -1.174516   -0.446472   -0.917282
      8          1           0       -1.164932   -0.542365    0.864024
 ---------------------------------------------------------------------

 SCF Done:  E(RB3LYP) =  -79.8172898799     A.U. after    9 cycles

 The electronic state is 1-A.
 Alpha  occ. eigenvalues --  -10.17689 -10.16625  -0.75113  -0.60934  -0.43933
 Alpha  occ. eigenvalues --   -0.42899  -0.36814  -0.34878  -0.33393
 Alpha virt. eigenvalues --    0.04738   0.08918   0.09936   0.10361   0.13396
 Alpha virt. eigenvalues --    0.13948   0.21315   0.37355   0.38289   0.39407
 Alpha virt. eigenvalues --    0.46412   0.48250   0.58058   0.60765   0.63342

 Mulliken charges:
               1
     1  C   -0.295810
     2  C   -0.242288
     3  H    0.086651
     4  H    0.089148
     5  H    0.087387
     6  H    0.097675
     7  H    0.089811
     8  H    0.087427
 Sum of Mulliken charges =   0.00000

 Dipole moment (field-independent basis, Debye):
    X=             -0.0670    Y=              0.0166    Z=              0.0489  Tot=              0.0846
 Quadrupole moment (field-independent basis, Debye-Ang):
   XX=            -16.0467   YY=            -14.9237   ZZ=            -15.2428
   XY=             -0.0133   XZ=              0.0634   YZ=              0.0983

 Normal termination of Gaussian 16 at Fri Sep 22 16:34:31 2023.
