 Gaussian 16, Revision A.03,
 Gaussian 16:  ES64L-G16RevA.03 25-Dec-2016

 ----------------------------------------------------------------------
 #p b3lyp/gen scrf=(cpcm,solvent=toluene) pop=hirshfeld empiricaldisper
 sion=gd3bj
 ----------------------------------------------------------------------

 ------------------------
 tmpdir/M3_conf_0_181.gjf
 ------------------------
 Symbolic Z-matrix:
 Charge =  0 Multiplicity = 1

                         Standard orientation:
 ---------------------------------------------------------------------
 Center     Atomic      Atomic             Coordinates (Angstroms)
 Number     Number       Type             X           Y           Z
 ---------------------------------------------------------------------
      1          6           0       -0.658612    0.030089   -0.008407
      2          6           0       -2.151267   -0.009368    0.010853
      3          1           0       -2.528492   -0.374147    0.974550
      4          7           0        0.185814   -1.088475    0.006688
      5          6           0        0.136298    1.150025    0.000788
      6          6           0        1.502978   -0.666568    0.012330
      7          6           0        1.497444    0.729539   -0.002511
      8          1           0       -0.210627    2.176425   -0.010382
      9          1           0       -2.522492    1.010904   -0.133030
     10          1           0       -2.581069   -0.632023   -0.782247
     11          1           0       -0.094040   -2.057129   -0.213357
     12          1           0        2.356129   -1.297543    0.133306
     13          1           0        2.318854    1.390535   -0.093972
 ---------------------------------------------------------------------

 SCF Done:  E(RB3LYP) =  -249.463495759     A.U. after   12 cycles

 The electronic state is 1-A.
 Alpha  occ. eigenvalues --  -14.35946 -10.20047 -10.19398 -10.17939 -10.15530
 Alpha  occ. eigenvalues --  -10.15326  -0.96994  -0.77518  -0.75982  -0.67226
 Alpha  occ. eigenvalues --   -0.58545  -0.56574  -0.51574  -0.44095  -0.43072
 Alpha  occ. eigenvalues --   -0.42612  -0.39626  -0.38602  -0.38245  -0.35878
 Alpha  occ. eigenvalues --   -0.24878  -0.20921
 Alpha virt. eigenvalues --    0.02155   0.04263   0.07105   0.07131   0.08674
 Alpha virt. eigenvalues --    0.10075   0.11366   0.12782   0.13753   0.19300
 Alpha virt. eigenvalues --    0.21384   0.23393   0.29341   0.32007   0.37185

 Mulliken charges:
               1
     1  C   -0.029919
     2  C   -0.033346
     3  H    0.107617
     4  N   -0.426137
     5  C   -0.144459
     6  C    0.117385
     7  C   -0.128820
     8  H    0.035581
     9  H    0.100090
    10  H    0.100038
    11  H    0.195070
    12  H    0.069233
    13  H    0.037666
 Sum of Mulliken charges =  -0.00000

 Dipole moment (field-independent basis, Debye):
    X=             -1.1090    Y=             -1.8885    Z=             -0.3075  Tot=              2.2115
 Quadrupole moment (field-independent basis, Debye-Ang):
   XX=            -33.8896   YY=            -30.7632   ZZ=            -40.6068
   XY=             -0.4456   XZ=              0.1713   YZ=              0.4928

 Normal termination of Gaussian 16 at Fri Sep 22 16:35:25 2023.
