 Gaussian 16, Revision A.03,
 Gaussian 16:  ES64L-G16RevA.03 25-Dec-2016

 ----------------------------------------------------------------------
 #p b3lyp/gen scrf=(cpcm,solvent=toluene) pop=hirshfeld empiricaldisper
 sion=gd3bj
 ----------------------------------------------------------------------

 -----------------------
 tmpdir/M3_conf_0_15.gjf
 -----------------------
 Symbolic Z-matrix:
 Charge =  0 Multiplicity = 1

                         Standard orientation:
 ---------------------------------------------------------------------
 Center     Atomic      Atomic             Coordinates (Angstroms)
 Number     Number       Type             X           Y           Z
 ---------------------------------------------------------------------
      1          6           0       -1.086461   -0.002148   -0.002146
      2         16           0        0.616236   -0.000236    0.000206
      3          1           0       -1.661400    0.896324    0.004733
      4          1           0       -1.679616   -0.879653    0.004853
 ---------------------------------------------------------------------

 SCF Done:  E(RB3LYP) =  -437.458494644     A.U. after   10 cycles

 The electronic state is 1-A.
 Alpha  occ. eigenvalues --  -88.85982 -10.26120  -7.94268  -5.91083  -5.91035
 Alpha  occ. eigenvalues --   -5.90075  -0.78877  -0.62268  -0.47125  -0.40217
 Alpha  occ. eigenvalues --   -0.31780  -0.24564
 Alpha virt. eigenvalues --   -0.11530   0.04218   0.09492   0.10119   0.29512
 Alpha virt. eigenvalues --    0.30630   0.31328   0.33694   0.40366   0.44394
 Alpha virt. eigenvalues --    0.44867   0.61255   0.61637   0.66678   0.67235

 Mulliken charges:
               1
     1  C   -0.167078
     2  S   -0.123306
     3  H    0.145911
     4  H    0.144473
 Sum of Mulliken charges =   0.00000

 Dipole moment (field-independent basis, Debye):
    X=             -2.3150    Y=              0.0091    Z=              0.0104  Tot=              2.3150
 Quadrupole moment (field-independent basis, Debye-Ang):
   XX=            -16.6549   YY=            -20.8819   ZZ=            -20.0757
   XY=              0.0259   XZ=             -0.0085   YZ=              0.0002

 Normal termination of Gaussian 16 at Fri Sep 22 16:32:40 2023.
