 Gaussian 16, Revision A.03,
 Gaussian 16:  ES64L-G16RevA.03 25-Dec-2016

 ----------------------------------------------------------------------
 #p b3lyp/gen scrf=(cpcm,solvent=toluene) pop=hirshfeld empiricaldisper
 sion=gd3bj
 ----------------------------------------------------------------------

 ------------------------
 tmpdir/M3_conf_0_138.gjf
 ------------------------
 Symbolic Z-matrix:
 Charge =  0 Multiplicity = 1

                         Standard orientation:
 ---------------------------------------------------------------------
 Center     Atomic      Atomic             Coordinates (Angstroms)
 Number     Number       Type             X           Y           Z
 ---------------------------------------------------------------------
      1          6           0        0.765184   -0.005414   -0.004779
      2          6           0       -0.759930   -0.020513    0.000957
      3          1           0       -1.160598   -0.295906   -0.983311
      4          1           0        1.008216    0.992136   -0.415958
      5          1           0        1.179554   -0.823482   -0.603542
      6          1           0        1.145560   -0.114592    1.017394
      7          1           0       -1.174777   -0.683728    0.764308
      8          1           0       -1.029478    1.081136    0.244040
 ---------------------------------------------------------------------

 SCF Done:  E(RB3LYP) =  -79.8138050528     A.U. after    9 cycles

 The electronic state is 1-A.
 Alpha  occ. eigenvalues --  -10.16915 -10.16475  -0.75581  -0.60600  -0.44489
 Alpha  occ. eigenvalues --   -0.43801  -0.35922  -0.34484  -0.33807
 Alpha virt. eigenvalues --    0.04601   0.09230   0.09556   0.09900   0.14722
 Alpha virt. eigenvalues --    0.15063   0.21132   0.36686   0.38923   0.40789
 Alpha virt. eigenvalues --    0.46461   0.48762   0.58873   0.61061   0.64033

 Mulliken charges:
               1
     1  C   -0.252982
     2  C   -0.277819
     3  H    0.090331
     4  H    0.089397
     5  H    0.088007
     6  H    0.087054
     7  H    0.089275
     8  H    0.086737
 Sum of Mulliken charges =  -0.00000

 Dipole moment (field-independent basis, Debye):
    X=              0.0254    Y=             -0.0375    Z=              0.0053  Tot=              0.0456
 Quadrupole moment (field-independent basis, Debye-Ang):
   XX=            -16.4955   YY=            -14.8449   ZZ=            -14.9805
   XY=              0.0412   XZ=              0.1268   YZ=             -0.0403

 Normal termination of Gaussian 16 at Fri Sep 22 16:36:33 2023.
