 Gaussian 16, Revision A.03,
 Gaussian 16:  ES64L-G16RevA.03 25-Dec-2016

 ----------------------------------------------------------------------
 #p b3lyp/gen scrf=(cpcm,solvent=toluene) pop=hirshfeld empiricaldisper
 sion=gd3bj
 ----------------------------------------------------------------------

 -----------------------
 tmpdir/M3_conf_0_37.gjf
 -----------------------
 Symbolic Z-matrix:
 Charge =  0 Multiplicity = 1

                         Standard orientation:
 ---------------------------------------------------------------------
 Center     Atomic      Atomic             Coordinates (Angstroms)
 Number     Number       Type             X           Y           Z
 ---------------------------------------------------------------------
      1          1           0        1.130469   -0.270045   -1.011184
      2          6           0        0.774611    0.003858   -0.017766
      3          6           0       -0.770371    0.010239    0.000299
      4          1           0        1.178782   -0.771972    0.718975
      5          1           0        1.202053    0.992381    0.275516
      6          1           0       -1.232892    0.925449   -0.437520
      7          1           0       -1.250342   -0.919365   -0.497279
      8          1           0       -1.053511   -0.041028    1.056294
 ---------------------------------------------------------------------

 SCF Done:  E(RB3LYP) =  -79.8163186899     A.U. after    9 cycles

 The electronic state is 1-A.
 Alpha  occ. eigenvalues --  -10.17392 -10.17321  -0.74791  -0.60995  -0.43379
 Alpha  occ. eigenvalues --   -0.42931  -0.36850  -0.34225  -0.33960
 Alpha virt. eigenvalues --    0.04762   0.08500   0.09651   0.10205   0.13988
 Alpha virt. eigenvalues --    0.14198   0.20972   0.37626   0.37751   0.39127
 Alpha virt. eigenvalues --    0.46040   0.50504   0.57494   0.61468   0.61970

 Mulliken charges:
               1
     1  H    0.089470
     2  C   -0.268971
     3  C   -0.279893
     4  H    0.091077
     5  H    0.094313
     6  H    0.095369
     7  H    0.093619
     8  H    0.085016
 Sum of Mulliken charges =  -0.00000

 Dipole moment (field-independent basis, Debye):
    X=              0.0103    Y=              0.0216    Z=              0.0487  Tot=              0.0542
 Quadrupole moment (field-independent basis, Debye-Ang):
   XX=            -15.9552   YY=            -15.0494   ZZ=            -15.2020
   XY=              0.0270   XZ=              0.1450   YZ=              0.0021

 Normal termination of Gaussian 16 at Fri Sep 22 16:32:50 2023.
