 Gaussian 16, Revision A.03,
 Gaussian 16:  ES64L-G16RevA.03 25-Dec-2016

 ----------------------------------------------------------------------
 #p b3lyp/gen scrf=(cpcm,solvent=toluene) pop=hirshfeld empiricaldisper
 sion=gd3bj
 ----------------------------------------------------------------------

 ------------------------
 tmpdir/M3_conf_0_221.gjf
 ------------------------
 Symbolic Z-matrix:
 Charge =  0 Multiplicity = 1

                         Standard orientation:
 ---------------------------------------------------------------------
 Center     Atomic      Atomic             Coordinates (Angstroms)
 Number     Number       Type             X           Y           Z
 ---------------------------------------------------------------------
      1          1           0        0.968542    0.995050    0.050188
      2          6           0        0.572325   -0.012500   -0.026935
      3          8           0       -0.704050   -0.013622    0.006021
      4          1           0        1.229910   -0.811072    0.063255
 ---------------------------------------------------------------------

 SCF Done:  E(RB3LYP) =  -114.473996206     A.U. after   10 cycles

 The electronic state is 1-A.
 Alpha  occ. eigenvalues --  -19.14345 -10.28041  -1.03399  -0.65901  -0.50313
 Alpha  occ. eigenvalues --   -0.44678  -0.38588  -0.27560
 Alpha virt. eigenvalues --   -0.07183   0.06336   0.11221   0.17025   0.40534
 Alpha virt. eigenvalues --    0.47307   0.51094   0.54419   0.61328   0.72044
 Alpha virt. eigenvalues --    0.80085   0.87292   0.96497   1.32585   1.48021

 Mulliken charges:
               1
     1  H    0.086401
     2  C    0.218263
     3  O   -0.400510
     4  H    0.095845
 Sum of Mulliken charges =   0.00000

 Dipole moment (field-independent basis, Debye):
    X=              3.0143    Y=             -0.0442    Z=              0.0253  Tot=              3.0147
 Quadrupole moment (field-independent basis, Debye-Ang):
   XX=            -11.8729   YY=            -11.5440   ZZ=            -11.6712
   XY=             -0.3362   XZ=              0.0633   YZ=              0.0176

 Normal termination of Gaussian 16 at Fri Sep 22 16:36:09 2023.
