 Gaussian 16, Revision A.03,
 Gaussian 16:  ES64L-G16RevA.03 25-Dec-2016

 ----------------------------------------------------------------------
 #p b3lyp/gen scrf=(cpcm,solvent=toluene) pop=hirshfeld empiricaldisper
 sion=gd3bj
 ----------------------------------------------------------------------

 ------------------------
 tmpdir/M3_conf_0_187.gjf
 ------------------------
 Symbolic Z-matrix:
 Charge =  0 Multiplicity = 1

                         Standard orientation:
 ---------------------------------------------------------------------
 Center     Atomic      Atomic             Coordinates (Angstroms)
 Number     Number       Type             X           Y           Z
 ---------------------------------------------------------------------
      1          6           0       -0.001679    0.033449    0.078550
      2          6           0        1.456597    0.121382    0.022490
      3          8           0        2.043806   -1.074996   -0.190912
      4          6           0       -0.801232   -1.108915    0.149890
      5          6           0       -0.870754    1.153279   -0.062517
      6          7           0       -2.118669   -0.702988    0.037833
      7          6           0       -2.163333    0.690684   -0.100843
      8          1           0       -0.562783    2.188619   -0.147329
      9          8           0        2.090203    1.160637    0.134311
     10          1           0        3.033277   -1.122486   -0.210367
     11          1           0       -0.474450   -2.100348    0.375481
     12          1           0       -2.892550   -1.353849   -0.168343
     13          1           0       -3.062472    1.284576   -0.186882
 ---------------------------------------------------------------------

 SCF Done:  E(RB3LYP) =  -398.704488913     A.U. after   12 cycles

 The electronic state is 1-A.
 Alpha  occ. eigenvalues --  -19.16665 -19.10642 -14.38434 -10.31391 -10.22253
 Alpha  occ. eigenvalues --  -10.21371 -10.18416 -10.17632  -1.10295  -1.01474
 Alpha  occ. eigenvalues --   -0.99091  -0.80399  -0.74807  -0.67596  -0.60846
 Alpha  occ. eigenvalues --   -0.57548  -0.56160  -0.49270  -0.47233  -0.45487
 Alpha  occ. eigenvalues --   -0.44667  -0.42802  -0.41525  -0.39256  -0.38671
 Alpha  occ. eigenvalues --   -0.32487  -0.28431  -0.26744  -0.23856
 Alpha virt. eigenvalues --   -0.03176   0.01698   0.03535   0.04404   0.08188
 Alpha virt. eigenvalues --    0.09569   0.10741   0.11123   0.18698   0.19563
 Alpha virt. eigenvalues --    0.22869   0.24964   0.26086   0.30283   0.33156

 Mulliken charges:
               1
     1  C   -0.318242
     2  C    0.514400
     3  O   -0.395408
     4  C    0.241268
     5  C   -0.082814
     6  N   -0.391700
     7  C    0.161052
     8  H    0.047810
     9  O   -0.418069
    10  H    0.259366
    11  H    0.079575
    12  H    0.212020
    13  H    0.090741
 Sum of Mulliken charges =  -0.00000

 Dipole moment (field-independent basis, Debye):
    X=             -3.3869    Y=             -3.4592    Z=             -0.5063  Tot=              4.8676
 Quadrupole moment (field-independent basis, Debye-Ang):
   XX=            -33.1764   YY=            -43.9424   ZZ=            -49.0386
   XY=             -4.0278   XZ=              0.3746   YZ=             -1.0823

 Normal termination of Gaussian 16 at Fri Sep 22 16:35:04 2023.
