 Gaussian 16, Revision A.03,
 Gaussian 16:  ES64L-G16RevA.03 25-Dec-2016

 ----------------------------------------------------------------------
 #p b3lyp/gen scrf=(cpcm,solvent=toluene) pop=hirshfeld empiricaldisper
 sion=gd3bj
 ----------------------------------------------------------------------

 ------------------------
 tmpdir/M3_conf_0_211.gjf
 ------------------------
 Symbolic Z-matrix:
 Charge =  0 Multiplicity = 1

                         Standard orientation:
 ---------------------------------------------------------------------
 Center     Atomic      Atomic             Coordinates (Angstroms)
 Number     Number       Type             X           Y           Z
 ---------------------------------------------------------------------
      1          6           0        1.297419   -0.261569    0.020928
      2          6           0       -0.004182    0.570053   -0.018733
      3          6           0       -1.295674   -0.269160   -0.001262
      4          1           0        2.179941    0.376629   -0.328229
      5          1           0        1.241073   -1.146851   -0.656574
      6          1           0        1.512076   -0.590418    1.037935
      7          1           0       -0.074589    1.373278    0.813127
      8          1           0        0.028123    1.124182   -0.962035
      9          1           0       -1.281668   -1.101564   -0.727239
     10          1           0       -2.140076    0.407720   -0.186778
     11          1           0       -1.450262   -0.678923    1.004195
 ---------------------------------------------------------------------

 SCF Done:  E(RB3LYP) =  -119.126854829     A.U. after   10 cycles

 The electronic state is 1-A.
 Alpha  occ. eigenvalues --  -10.17627 -10.17044 -10.16512  -0.77616  -0.67932
 Alpha  occ. eigenvalues --   -0.57859  -0.45407  -0.43192  -0.39890  -0.38513
 Alpha  occ. eigenvalues --   -0.34108  -0.33377  -0.32319
 Alpha virt. eigenvalues --    0.04439   0.08024   0.08583   0.09031   0.11633
 Alpha virt. eigenvalues --    0.13342   0.14076   0.14711   0.19055   0.23729
 Alpha virt. eigenvalues --    0.36739   0.38339   0.40026   0.41074   0.42128

 Mulliken charges:
               1
     1  C   -0.220839
     2  C   -0.277124
     3  C   -0.204448
     4  H    0.090122
     5  H    0.088643
     6  H    0.087410
     7  H    0.093824
     8  H    0.085172
     9  H    0.088739
    10  H    0.085845
    11  H    0.082654
 Sum of Mulliken charges =  -0.00000

 Dipole moment (field-independent basis, Debye):
    X=             -0.0373    Y=              0.0537    Z=             -0.0301  Tot=              0.0720
 Quadrupole moment (field-independent basis, Debye-Ang):
   XX=            -22.8445   YY=            -22.2076   ZZ=            -21.7686
   XY=             -0.1222   XZ=             -0.1514   YZ=              0.2143

 Normal termination of Gaussian 16 at Fri Sep 22 16:35:50 2023.
