 Gaussian 16, Revision A.03,
 Gaussian 16:  ES64L-G16RevA.03 25-Dec-2016

 ----------------------------------------------------------------------
 #p b3lyp/gen scrf=(cpcm,solvent=toluene) pop=hirshfeld empiricaldisper
 sion=gd3bj
 ----------------------------------------------------------------------

 -----------------------
 tmpdir/M3_conf_0_36.gjf
 -----------------------
 Symbolic Z-matrix:
 Charge =  0 Multiplicity = 1

                         Standard orientation:
 ---------------------------------------------------------------------
 Center     Atomic      Atomic             Coordinates (Angstroms)
 Number     Number       Type             X           Y           Z
 ---------------------------------------------------------------------
      1          6           0       -1.277059   -0.276039   -0.005483
      2          6           0       -0.005446    0.595548   -0.033625
      3          6           0        1.278668   -0.263048    0.000840
      4          1           0       -1.267372   -1.109473   -0.730041
      5          1           0       -1.388059   -0.689491    1.008452
      6          1           0       -2.138530    0.385055   -0.164609
      7          1           0       -0.042315    1.278578    0.882973
      8          1           0       -0.016233    1.232536   -0.918307
      9          1           0        1.250457   -1.161583   -0.658763
     10          1           0        2.247417    0.330400   -0.226004
     11          1           0        1.377655   -0.604786    1.035904
 ---------------------------------------------------------------------

 SCF Done:  E(RB3LYP) =  -119.126100076     A.U. after   10 cycles

 The electronic state is 1-A.
 Alpha  occ. eigenvalues --  -10.17559 -10.17127 -10.16564  -0.77752  -0.67681
 Alpha  occ. eigenvalues --   -0.58024  -0.45615  -0.43274  -0.39815  -0.38056
 Alpha  occ. eigenvalues --   -0.34174  -0.33330  -0.32578
 Alpha virt. eigenvalues --    0.04414   0.08118   0.08595   0.08764   0.11518
 Alpha virt. eigenvalues --    0.13683   0.14048   0.14896   0.19045   0.23406
 Alpha virt. eigenvalues --    0.36608   0.38365   0.39753   0.41169   0.42623

 Mulliken charges:
               1
     1  C   -0.212993
     2  C   -0.259563
     3  C   -0.234597
     4  H    0.090973
     5  H    0.082137
     6  H    0.086123
     7  H    0.092981
     8  H    0.088615
     9  H    0.090951
    10  H    0.093347
    11  H    0.082026
 Sum of Mulliken charges =  -0.00000

 Dipole moment (field-independent basis, Debye):
    X=             -0.0703    Y=              0.0461    Z=              0.0581  Tot=              0.1022
 Quadrupole moment (field-independent basis, Debye-Ang):
   XX=            -22.8619   YY=            -22.2295   ZZ=            -21.7884
   XY=             -0.1370   XZ=             -0.0659   YZ=              0.2295

 Normal termination of Gaussian 16 at Fri Sep 22 16:32:45 2023.
