 Gaussian 16, Revision A.03,
 Gaussian 16:  ES64L-G16RevA.03 25-Dec-2016

 ----------------------------------------------------------------------
 #p b3lyp/gen scrf=(cpcm,solvent=toluene) pop=hirshfeld empiricaldisper
 sion=gd3bj
 ----------------------------------------------------------------------

 ------------------------
 tmpdir/M3_conf_0_147.gjf
 ------------------------
 Symbolic Z-matrix:
 Charge =  0 Multiplicity = 1

                         Standard orientation:
 ---------------------------------------------------------------------
 Center     Atomic      Atomic             Coordinates (Angstroms)
 Number     Number       Type             X           Y           Z
 ---------------------------------------------------------------------
      1          6           0       -1.236288   -0.276974    0.012255
      2          6           0        0.011387    0.654434    0.006119
      3          6           0        1.218520   -0.282206    0.001186
      4          1           0       -0.794540   -1.279831   -0.418874
      5          1           0       -2.012281    0.111698   -0.678295
      6          1           0       -1.599793   -0.431712    1.046570
      7          1           0        0.000934    1.257486   -0.911273
      8          1           0       -0.008409    1.341050    0.857592
      9          1           0        0.881593   -1.127472   -0.624149
     10          1           0        2.120404    0.190241   -0.402364
     11          1           0        1.450377   -0.632980    1.013433
 ---------------------------------------------------------------------

 SCF Done:  E(RB3LYP) =  -119.113932860     A.U. after   10 cycles

 The electronic state is 1-A.
 Alpha  occ. eigenvalues --  -10.17183 -10.16825 -10.16277  -0.78483  -0.66905
 Alpha  occ. eigenvalues --   -0.58336  -0.46420  -0.44733  -0.39186  -0.36672
 Alpha  occ. eigenvalues --   -0.34307  -0.33104  -0.32816
 Alpha virt. eigenvalues --    0.04670   0.07837   0.08115   0.08937   0.11232
 Alpha virt. eigenvalues --    0.13517   0.15393   0.16778   0.19675   0.24250
 Alpha virt. eigenvalues --    0.36374   0.37676   0.40435   0.42618   0.45047

 Mulliken charges:
               1
     1  C   -0.244245
     2  C   -0.244874
     3  C   -0.214072
     4  H    0.079101
     5  H    0.092769
     6  H    0.097814
     7  H    0.086821
     8  H    0.090833
     9  H    0.081968
    10  H    0.085054
    11  H    0.088831
 Sum of Mulliken charges =   0.00000

 Dipole moment (field-independent basis, Debye):
    X=              0.0450    Y=              0.1682    Z=              0.0194  Tot=              0.1752
 Quadrupole moment (field-independent basis, Debye-Ang):
   XX=            -23.1398   YY=            -22.6134   ZZ=            -21.4337
   XY=             -0.1583   XZ=              0.0856   YZ=             -0.0517

 Normal termination of Gaussian 16 at Fri Sep 22 16:34:17 2023.
