 Gaussian 16, Revision A.03,
 Gaussian 16:  ES64L-G16RevA.03 25-Dec-2016

 ----------------------------------------------------------------------
 #p b3lyp/gen scrf=(cpcm,solvent=toluene) pop=hirshfeld empiricaldisper
 sion=gd3bj
 ----------------------------------------------------------------------

 -----------------------
 tmpdir/M3_conf_0_48.gjf
 -----------------------
 Symbolic Z-matrix:
 Charge =  0 Multiplicity = 1

                         Standard orientation:
 ---------------------------------------------------------------------
 Center     Atomic      Atomic             Coordinates (Angstroms)
 Number     Number       Type             X           Y           Z
 ---------------------------------------------------------------------
      1          6           0       -0.004569   -0.009046   -0.002377
      2          1           0        0.270118    0.675601   -0.815108
      3          1           0       -0.963791   -0.515419   -0.211253
      4          1           0       -0.120622    0.613465    0.893034
      5          1           0        0.841708   -0.719370    0.147588
 ---------------------------------------------------------------------

 SCF Done:  E(RB3LYP) =  -40.5133340005     A.U. after    7 cycles

 The electronic state is 1-A.
 Alpha  occ. eigenvalues --  -10.16555  -0.69175  -0.39790  -0.39051  -0.38644
 Alpha virt. eigenvalues --    0.05576   0.12298   0.12456   0.12559   0.36919
 Alpha virt. eigenvalues --    0.37494   0.38633   0.62930   0.63424   0.63691
 Alpha virt. eigenvalues --    0.67109   0.96057   1.28627   1.29405   1.83156

 Mulliken charges:
               1
     1  C   -0.358399
     2  H    0.085938
     3  H    0.094810
     4  H    0.084864
     5  H    0.092787
 Sum of Mulliken charges =  -0.00000

 Dipole moment (field-independent basis, Debye):
    X=              0.0110    Y=              0.0547    Z=              0.0099  Tot=              0.0567
 Quadrupole moment (field-independent basis, Debye-Ang):
   XX=             -8.3143   YY=             -8.4863   ZZ=             -8.6179
   XY=              0.0193   XZ=              0.0006   YZ=              0.0031

 Normal termination of Gaussian 16 at Fri Sep 22 16:32:37 2023.
