 Gaussian 16, Revision A.03,
 Gaussian 16:  ES64L-G16RevA.03 25-Dec-2016

 ----------------------------------------------------------------------
 #p b3lyp/gen scrf=(cpcm,solvent=toluene) pop=hirshfeld empiricaldisper
 sion=gd3bj
 ----------------------------------------------------------------------

 ------------------------
 tmpdir/M3_conf_0_179.gjf
 ------------------------
 Symbolic Z-matrix:
 Charge =  0 Multiplicity = 1

                         Standard orientation:
 ---------------------------------------------------------------------
 Center     Atomic      Atomic             Coordinates (Angstroms)
 Number     Number       Type             X           Y           Z
 ---------------------------------------------------------------------
      1          6           0       -0.658677    0.030086   -0.008378
      2          6           0       -2.151332   -0.009357    0.010874
      3          1           0       -2.520564    1.011624   -0.133056
      4          7           0        0.185737   -1.088490    0.006637
      5          6           0        0.136243    1.150012    0.000709
      6          6           0        1.502905   -0.666593    0.012314
      7          6           0        1.497387    0.729517   -0.002427
      8          1           0       -0.210673    2.176415   -0.010572
      9          1           0       -2.581134   -0.632082   -0.782168
     10          1           0       -2.527667   -0.374301    0.974858
     11          1           0       -0.094127   -2.057128   -0.213483
     12          1           0        2.356049   -1.297587    0.133246
     13          1           0        2.318805    1.390503   -0.093837
 ---------------------------------------------------------------------

 SCF Done:  E(RB3LYP) =  -249.463489241     A.U. after   12 cycles

 The electronic state is 1-A.
 Alpha  occ. eigenvalues --  -14.35944 -10.20044 -10.19397 -10.17940 -10.15529
 Alpha  occ. eigenvalues --  -10.15325  -0.96993  -0.77519  -0.75983  -0.67224
 Alpha  occ. eigenvalues --   -0.58544  -0.56575  -0.51567  -0.44098  -0.43077
 Alpha  occ. eigenvalues --   -0.42613  -0.39616  -0.38603  -0.38246  -0.35882
 Alpha  occ. eigenvalues --   -0.24877  -0.20920
 Alpha virt. eigenvalues --    0.02156   0.04263   0.07106   0.07133   0.08672
 Alpha virt. eigenvalues --    0.10076   0.11365   0.12780   0.13761   0.19295
 Alpha virt. eigenvalues --    0.21386   0.23394   0.29344   0.32011   0.37185

 Mulliken charges:
               1
     1  C   -0.030115
     2  C   -0.033143
     3  H    0.100139
     4  N   -0.426134
     5  C   -0.144614
     6  C    0.117372
     7  C   -0.128795
     8  H    0.035596
     9  H    0.100090
    10  H    0.107661
    11  H    0.195064
    12  H    0.069221
    13  H    0.037659
 Sum of Mulliken charges =  -0.00000

 Dipole moment (field-independent basis, Debye):
    X=             -1.1088    Y=             -1.8888    Z=             -0.3076  Tot=              2.2117
 Quadrupole moment (field-independent basis, Debye-Ang):
   XX=            -33.8975   YY=            -30.7614   ZZ=            -40.6057
   XY=             -0.4428   XZ=              0.1717   YZ=              0.4925

 Normal termination of Gaussian 16 at Fri Sep 22 16:34:47 2023.
