 Gaussian 16, Revision A.03,
 Gaussian 16:  ES64L-G16RevA.03 25-Dec-2016

 ----------------------------------------------------------------------
 #p b3lyp/gen scrf=(cpcm,solvent=toluene) pop=hirshfeld empiricaldisper
 sion=gd3bj
 ----------------------------------------------------------------------

 -----------------------
 tmpdir/M3_conf_0_64.gjf
 -----------------------
 Symbolic Z-matrix:
 Charge =  0 Multiplicity = 1

                         Standard orientation:
 ---------------------------------------------------------------------
 Center     Atomic      Atomic             Coordinates (Angstroms)
 Number     Number       Type             X           Y           Z
 ---------------------------------------------------------------------
      1          6           0        0.763704    0.001989   -0.002225
      2          6           0       -0.763992    0.002677    0.001365
      3          1           0       -1.135558   -0.078569   -1.032277
      4          1           0        1.140929    0.872728   -0.567598
      5          1           0        1.157708   -0.922182   -0.445265
      6          1           0        1.131459    0.038084    1.035340
      7          1           0       -1.138754    0.929796    0.470086
      8          1           0       -1.154058   -0.867853    0.544874
 ---------------------------------------------------------------------

 SCF Done:  E(RB3LYP) =  -79.8216351421     A.U. after    9 cycles

 The electronic state is 1-A.
 Alpha  occ. eigenvalues --  -10.16603 -10.16584  -0.75420  -0.61150  -0.43851
 Alpha  occ. eigenvalues --   -0.43627  -0.36516  -0.34603  -0.34270
 Alpha virt. eigenvalues --    0.04967   0.09327   0.10543   0.10637   0.13628
 Alpha virt. eigenvalues --    0.13772   0.21434   0.37151   0.39504   0.39666
 Alpha virt. eigenvalues --    0.45911   0.46924   0.58873   0.64194   0.64231

 Mulliken charges:
               1
     1  C   -0.261085
     2  C   -0.260596
     3  H    0.085700
     4  H    0.089572
     5  H    0.085695
     6  H    0.085487
     7  H    0.089761
     8  H    0.085466
 Sum of Mulliken charges =  -0.00000

 Dipole moment (field-independent basis, Debye):
    X=              0.0000    Y=             -0.0319    Z=              0.0034  Tot=              0.0320
 Quadrupole moment (field-independent basis, Debye-Ang):
   XX=            -16.0966   YY=            -14.9141   ZZ=            -15.0251
   XY=             -0.0017   XZ=             -0.0239   YZ=             -0.0003

 Normal termination of Gaussian 16 at Fri Sep 22 16:33:06 2023.
