 Gaussian 16, Revision A.03,
 Gaussian 16:  ES64L-G16RevA.03 25-Dec-2016

 ----------------------------------------------------------------------
 #p b3lyp/gen scrf=(cpcm,solvent=toluene) pop=hirshfeld empiricaldisper
 sion=gd3bj
 ----------------------------------------------------------------------

 ------------------------
 tmpdir/M3_conf_0_223.gjf
 ------------------------
 Symbolic Z-matrix:
 Charge =  0 Multiplicity = 1

                         Standard orientation:
 ---------------------------------------------------------------------
 Center     Atomic      Atomic             Coordinates (Angstroms)
 Number     Number       Type             X           Y           Z
 ---------------------------------------------------------------------
      1          6           0       -0.697451   -0.010425   -0.002877
      2          6           0        0.697844   -0.007958    0.000028
      3          1           0       -1.350032   -0.869729    0.010831
      4          1           0       -1.224943    0.945027    0.002106
      5          1           0        1.325564   -0.898082   -0.001840
      6          1           0        1.247050    0.933084    0.006000
 ---------------------------------------------------------------------

 SCF Done:  E(RB3LYP) =  -78.5770473787     A.U. after    9 cycles

 The electronic state is 1-A.
 Alpha  occ. eigenvalues --  -10.19125 -10.19019  -0.75268  -0.59257  -0.46374
 Alpha  occ. eigenvalues --   -0.42466  -0.36457  -0.27248
 Alpha virt. eigenvalues --   -0.01682   0.06466   0.09016   0.09148   0.15901
 Alpha virt. eigenvalues --    0.27539   0.36455   0.39430   0.43622   0.50840
 Alpha virt. eigenvalues --    0.51427   0.52598   0.62584   0.63830   0.68980

 Mulliken charges:
               1
     1  C   -0.207790
     2  C   -0.209788
     3  H    0.104604
     4  H    0.102381
     5  H    0.106232
     6  H    0.104361
 Sum of Mulliken charges =  -0.00000

 Dipole moment (field-independent basis, Debye):
    X=             -0.0061    Y=              0.0275    Z=              0.0181  Tot=              0.0335
 Quadrupole moment (field-independent basis, Debye-Ang):
   XX=            -11.9402   YY=            -12.6274   ZZ=            -15.8593
   XY=              0.0601   XZ=             -0.0139   YZ=              0.0003

 Normal termination of Gaussian 16 at Fri Sep 22 16:36:15 2023.
