 Gaussian 16, Revision A.03,
 Gaussian 16:  ES64L-G16RevA.03 25-Dec-2016

 ----------------------------------------------------------------------
 #p b3lyp/gen scrf=(cpcm,solvent=toluene) pop=hirshfeld empiricaldisper
 sion=gd3bj
 ----------------------------------------------------------------------

 -----------------------
 tmpdir/M3_conf_0_65.gjf
 -----------------------
 Symbolic Z-matrix:
 Charge =  0 Multiplicity = 1

                         Standard orientation:
 ---------------------------------------------------------------------
 Center     Atomic      Atomic             Coordinates (Angstroms)
 Number     Number       Type             X           Y           Z
 ---------------------------------------------------------------------
      1          1           0       -0.675797    0.060828    0.860740
      2          6           0        0.004438    0.000620    0.001066
      3          1           0       -0.599718   -0.334995   -0.856511
      4          1           0        0.433912    0.997791   -0.201153
      5          1           0        0.814974   -0.727343    0.190528
 ---------------------------------------------------------------------

 SCF Done:  E(RB3LYP) =  -40.5138666991     A.U. after    7 cycles

 The electronic state is 1-A.
 Alpha  occ. eigenvalues --  -10.16512  -0.69188  -0.39572  -0.39251  -0.38735
 Alpha virt. eigenvalues --    0.05604   0.12399   0.12477   0.12520   0.37049
 Alpha virt. eigenvalues --    0.37797   0.38192   0.63300   0.63474   0.63657
 Alpha virt. eigenvalues --    0.67004   0.95956   1.28583   1.29464   1.85182

 Mulliken charges:
               1
     1  H    0.087571
     2  C   -0.357538
     3  H    0.087266
     4  H    0.090952
     5  H    0.091749
 Sum of Mulliken charges =  -0.00000

 Dipole moment (field-independent basis, Debye):
    X=             -0.0257    Y=             -0.0024    Z=             -0.0017  Tot=              0.0258
 Quadrupole moment (field-independent basis, Debye-Ang):
   XX=             -8.3929   YY=             -8.4376   ZZ=             -8.5756
   XY=             -0.0008   XZ=             -0.0058   YZ=             -0.0015

 Normal termination of Gaussian 16 at Fri Sep 22 16:33:08 2023.
