 Gaussian 16, Revision A.03,
 Gaussian 16:  ES64L-G16RevA.03 25-Dec-2016

 ----------------------------------------------------------------------
 #p b3lyp/gen scrf=(cpcm,solvent=toluene) pop=hirshfeld empiricaldisper
 sion=gd3bj
 ----------------------------------------------------------------------

 -----------------------
 tmpdir/M3_conf_0_45.gjf
 -----------------------
 Symbolic Z-matrix:
 Charge =  0 Multiplicity = 1

                         Standard orientation:
 ---------------------------------------------------------------------
 Center     Atomic      Atomic             Coordinates (Angstroms)
 Number     Number       Type             X           Y           Z
 ---------------------------------------------------------------------
      1          6           0        0.767562    0.005837    0.000212
      2          6           0       -0.758028    0.001590   -0.003565
      3          1           0       -1.156586   -0.910277   -0.466331
      4          1           0        1.140569    0.936667    0.466264
      5          1           0        1.136256   -0.876509    0.539568
      6          1           0        1.151356   -0.070649   -1.029318
      7          1           0       -1.213876    0.875352   -0.527633
      8          1           0       -1.114926    0.000851    1.037563
 ---------------------------------------------------------------------

 SCF Done:  E(RB3LYP) =  -79.8213617386     A.U. after    9 cycles

 The electronic state is 1-A.
 Alpha  occ. eigenvalues --  -10.16700 -10.16654  -0.75400  -0.61217  -0.43771
 Alpha  occ. eigenvalues --   -0.43457  -0.36823  -0.34558  -0.34111
 Alpha virt. eigenvalues --    0.04980   0.09190   0.10434   0.10630   0.13638
 Alpha virt. eigenvalues --    0.13827   0.21585   0.37209   0.39042   0.39483
 Alpha virt. eigenvalues --    0.45848   0.47684   0.58922   0.63887   0.64142

 Mulliken charges:
               1
     1  C   -0.254154
     2  C   -0.268817
     3  H    0.084391
     4  H    0.091290
     5  H    0.087335
     6  H    0.085991
     7  H    0.090184
     8  H    0.083780
 Sum of Mulliken charges =  -0.00000

 Dipole moment (field-independent basis, Debye):
    X=             -0.0018    Y=             -0.0470    Z=              0.0119  Tot=              0.0485
 Quadrupole moment (field-independent basis, Debye-Ang):
   XX=            -15.9874   YY=            -14.9292   ZZ=            -15.0975
   XY=             -0.0419   XZ=              0.0424   YZ=              0.0071

 Normal termination of Gaussian 16 at Fri Sep 22 16:32:28 2023.
