 Gaussian 16, Revision A.03,
 Gaussian 16:  ES64L-G16RevA.03 25-Dec-2016

 ----------------------------------------------------------------------
 #p b3lyp/gen scrf=(cpcm,solvent=toluene) pop=hirshfeld empiricaldisper
 sion=gd3bj
 ----------------------------------------------------------------------

 ------------------------
 tmpdir/M3_conf_0_219.gjf
 ------------------------
 Symbolic Z-matrix:
 Charge =  0 Multiplicity = 1

                         Standard orientation:
 ---------------------------------------------------------------------
 Center     Atomic      Atomic             Coordinates (Angstroms)
 Number     Number       Type             X           Y           Z
 ---------------------------------------------------------------------
      1          6           0        0.544308   -0.199501   -0.035935
      2          6           0        1.950685   -0.480836   -0.008637
      3          1           0        2.159832   -1.522945    0.211253
      4          6           0       -0.354976   -1.301159   -0.018773
      5          6           0        0.033559    1.112251   -0.017630
      6          6           0       -1.735180   -1.064979    0.000401
      7          6           0       -1.332359    1.335877    0.011076
      8          1           0        0.719585    1.953866   -0.015459
      9          6           0       -2.208286    0.243017    0.014867
     10          1           0       -2.437624   -1.891596    0.009117
     11          1           0       -1.720399    2.351044    0.031980
     12          1           0       -3.283398    0.412708    0.034540
     13          8           0        2.883544    0.390746    0.009508
     14          1           0        0.107145   -2.297057   -0.019715
 ---------------------------------------------------------------------

 SCF Done:  E(RB3LYP) =  -345.535523421     A.U. after   13 cycles

 The electronic state is 1-A.
 Alpha  occ. eigenvalues --  -19.12439 -10.27187 -10.21226 -10.20655 -10.20361
 Alpha  occ. eigenvalues --  -10.20306 -10.20297 -10.20050  -1.02353  -0.88445
 Alpha  occ. eigenvalues --   -0.79188  -0.77390  -0.67474  -0.63281  -0.58772
 Alpha  occ. eigenvalues --   -0.53295  -0.49877  -0.47316  -0.45255  -0.44603
 Alpha  occ. eigenvalues --   -0.43204  -0.41259  -0.38141  -0.36958  -0.36469
 Alpha  occ. eigenvalues --   -0.28159  -0.27821  -0.26987
 Alpha virt. eigenvalues --   -0.08946  -0.03405   0.01778   0.04249   0.06269
 Alpha virt. eigenvalues --    0.08419   0.09867   0.11696   0.13036   0.13901
 Alpha virt. eigenvalues --    0.21240   0.22439   0.25117   0.25770   0.26879

 Mulliken charges:
               1
     1  C   -0.349950
     2  C    0.392314
     3  H    0.058568
     4  C    0.011181
     5  C    0.058867
     6  C   -0.034267
     7  C   -0.044056
     8  H    0.059854
     9  C   -0.040864
    10  H    0.076879
    11  H    0.078706
    12  H    0.079182
    13  O   -0.417306
    14  H    0.070892
 Sum of Mulliken charges =  -0.00000

 Dipole moment (field-independent basis, Debye):
    X=             -4.2904    Y=             -1.5659    Z=              0.1000  Tot=              4.5683
 Quadrupole moment (field-independent basis, Debye-Ang):
   XX=            -53.5365   YY=            -40.1809   ZZ=            -49.9224
   XY=             -4.5789   XZ=             -0.0239   YZ=             -0.0431

 Normal termination of Gaussian 16 at Fri Sep 22 16:37:39 2023.
