 Gaussian 16, Revision A.03,
 Gaussian 16:  ES64L-G16RevA.03 25-Dec-2016

 ----------------------------------------------------------------------
 #p b3lyp/gen scrf=(cpcm,solvent=toluene) pop=hirshfeld empiricaldisper
 sion=gd3bj
 ----------------------------------------------------------------------

 ------------------------
 tmpdir/M3_conf_0_170.gjf
 ------------------------
 Symbolic Z-matrix:
 Charge =  0 Multiplicity = 1

                         Standard orientation:
 ---------------------------------------------------------------------
 Center     Atomic      Atomic             Coordinates (Angstroms)
 Number     Number       Type             X           Y           Z
 ---------------------------------------------------------------------
      1          1           0       -0.582199    0.926693   -0.063531
      2          6           0        0.001941    0.004647   -0.002736
      3          1           0       -0.370422   -0.708390   -0.746697
      4          1           0        1.082646    0.197812   -0.160446
      5          1           0       -0.141673   -0.443996    0.987091
 ---------------------------------------------------------------------

 SCF Done:  E(RB3LYP) =  -40.5139226326     A.U. after    7 cycles

 The electronic state is 1-A.
 Alpha  occ. eigenvalues --  -10.16358  -0.69304  -0.39523  -0.39260  -0.38956
 Alpha virt. eigenvalues --    0.05662   0.12409   0.12587   0.12622   0.37268
 Alpha virt. eigenvalues --    0.37593   0.38125   0.63307   0.63758   0.64005
 Alpha virt. eigenvalues --    0.67574   0.96115   1.28843   1.29034   1.84974

 Mulliken charges:
               1
     1  H    0.089131
     2  C   -0.353459
     3  H    0.086846
     4  H    0.092091
     5  H    0.085390
 Sum of Mulliken charges =   0.00000

 Dipole moment (field-independent basis, Debye):
    X=             -0.0229    Y=             -0.0202    Z=              0.0135  Tot=              0.0333
 Quadrupole moment (field-independent basis, Debye-Ang):
   XX=             -8.3759   YY=             -8.4610   ZZ=             -8.5342
   XY=             -0.0119   XZ=              0.0043   YZ=              0.0026

 Normal termination of Gaussian 16 at Fri Sep 22 16:34:33 2023.
