 Gaussian 16, Revision A.03,
 Gaussian 16:  ES64L-G16RevA.03 25-Dec-2016

 ----------------------------------------------------------------------
 #p b3lyp/gen scrf=(cpcm,solvent=toluene) pop=hirshfeld empiricaldisper
 sion=gd3bj
 ----------------------------------------------------------------------

 ------------------------
 tmpdir/M3_conf_0_103.gjf
 ------------------------
 Symbolic Z-matrix:
 Charge =  0 Multiplicity = 1

                         Standard orientation:
 ---------------------------------------------------------------------
 Center     Atomic      Atomic             Coordinates (Angstroms)
 Number     Number       Type             X           Y           Z
 ---------------------------------------------------------------------
      1          1           0        0.512705   -0.781420   -0.573744
      2          6           0       -0.006324    0.000198   -0.004754
      3          1           0        0.426755    0.971361   -0.277619
      4          1           0       -1.104905   -0.019098   -0.178475
      5          1           0        0.203388   -0.172030    1.058363
 ---------------------------------------------------------------------

 SCF Done:  E(RB3LYP) =  -40.5136658127     A.U. after    7 cycles

 The electronic state is 1-A.
 Alpha  occ. eigenvalues --  -10.16463  -0.69234  -0.39609  -0.39107  -0.38886
 Alpha virt. eigenvalues --    0.05617   0.12348   0.12551   0.12563   0.37190
 Alpha virt. eigenvalues --    0.37424   0.38389   0.63145   0.63671   0.63696
 Alpha virt. eigenvalues --    0.67345   0.96109   1.28823   1.29111   1.84424

 Mulliken charges:
               1
     1  H    0.087983
     2  C   -0.356092
     3  H    0.087816
     4  H    0.095175
     5  H    0.085118
 Sum of Mulliken charges =  -0.00000

 Dipole moment (field-independent basis, Debye):
    X=              0.0406    Y=             -0.0012    Z=              0.0236  Tot=              0.0470
 Quadrupole moment (field-independent basis, Debye-Ang):
   XX=             -8.3312   YY=             -8.5071   ZZ=             -8.5576
   XY=             -0.0007   XZ=             -0.0044   YZ=              0.0025

 Normal termination of Gaussian 16 at Fri Sep 22 16:33:33 2023.
