 Gaussian 16, Revision A.03,
 Gaussian 16:  ES64L-G16RevA.03 25-Dec-2016

 ----------------------------------------------------------------------
 #p b3lyp/gen scrf=(cpcm,solvent=toluene) pop=hirshfeld empiricaldisper
 sion=gd3bj
 ----------------------------------------------------------------------

 ------------------------
 tmpdir/M3_conf_0_194.gjf
 ------------------------
 Symbolic Z-matrix:
 Charge =  0 Multiplicity = 1

                         Standard orientation:
 ---------------------------------------------------------------------
 Center     Atomic      Atomic             Coordinates (Angstroms)
 Number     Number       Type             X           Y           Z
 ---------------------------------------------------------------------
      1          6           0        0.754425   -0.013008    0.001689
      2          6           0       -0.757738   -0.002619    0.000148
      3          1           0        1.108272    1.116628    0.043529
      4          1           0        1.166053   -0.465845   -0.909962
      5          1           0        1.169046   -0.554018    0.858040
      6          1           0       -1.139148   -1.028710   -0.077020
      7          1           0       -1.142179    0.448203    0.921846
      8          1           0       -1.142168    0.577502   -0.847457
 ---------------------------------------------------------------------

 SCF Done:  E(RB3LYP) =  -79.8178364472     A.U. after    9 cycles

 The electronic state is 1-A.
 Alpha  occ. eigenvalues --  -10.17220 -10.16455  -0.75584  -0.60916  -0.43843
 Alpha  occ. eigenvalues --   -0.43524  -0.37135  -0.34467  -0.33583
 Alpha virt. eigenvalues --    0.04769   0.09162   0.10010   0.10545   0.13341
 Alpha virt. eigenvalues --    0.13920   0.21869   0.36875   0.39029   0.39905
 Alpha virt. eigenvalues --    0.46175   0.47073   0.59334   0.60671   0.64219

 Mulliken charges:
               1
     1  C   -0.278919
     2  C   -0.246619
     3  H    0.087496
     4  H    0.088764
     5  H    0.089817
     6  H    0.085136
     7  H    0.087194
     8  H    0.087133
 Sum of Mulliken charges =   0.00000

 Dipole moment (field-independent basis, Debye):
    X=             -0.0528    Y=             -0.0647    Z=             -0.0071  Tot=              0.0838
 Quadrupole moment (field-independent basis, Debye-Ang):
   XX=            -16.1206   YY=            -15.0067   ZZ=            -15.0495
   XY=             -0.2242   XZ=             -0.0085   YZ=             -0.0178

 Normal termination of Gaussian 16 at Fri Sep 22 16:35:49 2023.
