 Gaussian 16, Revision A.03,
 Gaussian 16:  ES64L-G16RevA.03 25-Dec-2016

 ----------------------------------------------------------------------
 #p b3lyp/gen scrf=(cpcm,solvent=toluene) pop=hirshfeld empiricaldisper
 sion=gd3bj
 ----------------------------------------------------------------------

 ----------------------
 tmpdir/M3_conf_0_3.gjf
 ----------------------
 Symbolic Z-matrix:
 Charge =  0 Multiplicity = 1

                         Standard orientation:
 ---------------------------------------------------------------------
 Center     Atomic      Atomic             Coordinates (Angstroms)
 Number     Number       Type             X           Y           Z
 ---------------------------------------------------------------------
      1          6           0        0.479085   -0.307942   -0.015167
      2          8           0        1.746852   -0.732565   -0.038941
      3          6           0        2.693696    0.354648    0.030763
      4          6           0       -0.515584   -1.324142    0.009556
      5          6           0        0.090988    1.037609   -0.015769
      6          6           0       -1.875981   -0.961984    0.017302
      7          6           0       -1.261469    1.362610   -0.004780
      8          1           0        0.834326    1.827572   -0.029761
      9          6           0       -2.250056    0.370881    0.006701
     10          1           0       -2.636310   -1.737132    0.021000
     11          1           0       -1.549667    2.412354   -0.010207
     12          1           0       -3.302171    0.644037    0.005876
     13          1           0        2.524202    0.891936    0.975301
     14          1           0        2.518834    1.043560   -0.802477
     15          1           0        3.672531   -0.098833    0.004403
     16          1           0       -0.200636   -2.313052   -0.024254
 ---------------------------------------------------------------------

 SCF Done:  E(RB3LYP) =  -346.733505228     A.U. after   13 cycles

 The electronic state is 1-A.
 Alpha  occ. eigenvalues --  -19.16002 -10.24216 -10.23355 -10.18508 -10.18411
 Alpha  occ. eigenvalues --  -10.17998 -10.17578 -10.17479  -1.08770  -0.85757
 Alpha  occ. eigenvalues --   -0.76302  -0.75444  -0.70531  -0.62089  -0.59446
 Alpha  occ. eigenvalues --   -0.54528  -0.49361  -0.48806  -0.47930  -0.45600
 Alpha  occ. eigenvalues --   -0.43061  -0.41705  -0.38530  -0.38067  -0.36818
 Alpha  occ. eigenvalues --   -0.33814  -0.33271  -0.26236  -0.22947
 Alpha virt. eigenvalues --   -0.01898   0.00072   0.04651   0.06303   0.08128
 Alpha virt. eigenvalues --    0.09384   0.10453   0.11288   0.11643   0.13426
 Alpha virt. eigenvalues --    0.14793   0.15331   0.22642   0.24826   0.26281

 Mulliken charges:
               1
     1  C    0.193915
     2  O   -0.497019
     3  C    0.052860
     4  C   -0.040083
     5  C   -0.158313
     6  C   -0.047053
     7  C   -0.053020
     8  H    0.071418
     9  C   -0.064657
    10  H    0.064427
    11  H    0.062961
    12  H    0.059320
    13  H    0.099409
    14  H    0.104072
    15  H    0.109479
    16  H    0.042283
 Sum of Mulliken charges =  -0.00000

 Dipole moment (field-independent basis, Debye):
    X=              1.1500    Y=              1.4690    Z=              0.0501  Tot=              1.8663
 Quadrupole moment (field-independent basis, Debye-Ang):
   XX=            -40.1105   YY=            -45.0157   ZZ=            -52.0326
   XY=              3.6579   XZ=              0.2253   YZ=             -0.0561

 Normal termination of Gaussian 16 at Fri Sep 22 16:33:44 2023.
