 Gaussian 16, Revision A.03,
 Gaussian 16:  ES64L-G16RevA.03 25-Dec-2016

 ----------------------------------------------------------------------
 #p b3lyp/gen scrf=(cpcm,solvent=toluene) pop=hirshfeld empiricaldisper
 sion=gd3bj
 ----------------------------------------------------------------------

 ----------------------
 tmpdir/M3_conf_0_8.gjf
 ----------------------
 Symbolic Z-matrix:
 Charge =  0 Multiplicity = 1

                         Standard orientation:
 ---------------------------------------------------------------------
 Center     Atomic      Atomic             Coordinates (Angstroms)
 Number     Number       Type             X           Y           Z
 ---------------------------------------------------------------------
      1          8           0        0.739644    0.115377   -0.002236
      2          6           0       -0.697524   -0.018594   -0.004275
      3          1           0       -0.925247   -0.652313   -0.867996
      4          1           0        1.277819   -0.627604    0.040325
      5          1           0       -0.993082   -0.516014    0.931026
      6          1           0       -1.091499    0.984479   -0.059815
 ---------------------------------------------------------------------

 SCF Done:  E(RB3LYP) =  -115.697635835     A.U. after    9 cycles

 The electronic state is 1-A.
 Alpha  occ. eigenvalues --  -19.09983 -10.21990  -1.01023  -0.69259  -0.50408
 Alpha  occ. eigenvalues --   -0.44277  -0.43435  -0.31940  -0.26914
 Alpha virt. eigenvalues --    0.04814   0.08029   0.11673   0.12107   0.16535
 Alpha virt. eigenvalues --    0.41781   0.42847   0.44534   0.58938   0.61064
 Alpha virt. eigenvalues --    0.64079   0.66845   0.85477   0.86772   0.90829

 Mulliken charges:
               1
     1  O   -0.515873
     2  C    0.060228
     3  H    0.079899
     4  H    0.200195
     5  H    0.077249
     6  H    0.098302
 Sum of Mulliken charges =  -0.00000

 Dipole moment (field-independent basis, Debye):
    X=             -0.8752    Y=             -1.5422    Z=              0.0802  Tot=              1.7750
 Quadrupole moment (field-independent basis, Debye-Ang):
   XX=            -12.1360   YY=            -12.3624   ZZ=            -13.6036
   XY=             -2.3890   XZ=              0.0805   YZ=             -0.0262

 Normal termination of Gaussian 16 at Fri Sep 22 16:34:01 2023.
