 Gaussian 16, Revision A.03,
 Gaussian 16:  ES64L-G16RevA.03 25-Dec-2016

 ----------------------------------------------------------------------
 #p b3lyp/gen scrf=(cpcm,solvent=toluene) pop=hirshfeld empiricaldisper
 sion=gd3bj
 ----------------------------------------------------------------------

 ------------------------
 tmpdir/M3_conf_0_155.gjf
 ------------------------
 Symbolic Z-matrix:
 Charge =  0 Multiplicity = 1

                         Standard orientation:
 ---------------------------------------------------------------------
 Center     Atomic      Atomic             Coordinates (Angstroms)
 Number     Number       Type             X           Y           Z
 ---------------------------------------------------------------------
      1          6           0       -1.195590   -0.284631    0.011175
      2          6           0       -0.004264    0.667617   -0.002950
      3          6           0        1.195928   -0.277889    0.003961
      4          1           0       -1.427255   -0.620680    1.030273
      5          1           0       -2.090082    0.148156   -0.444058
      6          1           0       -0.820393   -1.179162   -0.624760
      7          1           0       -0.015073    1.348156    0.855087
      8          1           0       -0.022500    1.278253   -0.913022
      9          1           0        0.887757   -1.165249   -0.618913
     10          1           0        1.399202   -0.615389    1.028737
     11          1           0        2.111897    0.175332   -0.386459
 ---------------------------------------------------------------------

 SCF Done:  E(RB3LYP) =  -119.116667021     A.U. after   10 cycles

 The electronic state is 1-A.
 Alpha  occ. eigenvalues --  -10.16748 -10.16608 -10.16406  -0.78979  -0.66911
 Alpha  occ. eigenvalues --   -0.58529  -0.46597  -0.44951  -0.38954  -0.36489
 Alpha  occ. eigenvalues --   -0.34839  -0.33205  -0.32842
 Alpha virt. eigenvalues --    0.04775   0.07808   0.08242   0.08949   0.11315
 Alpha virt. eigenvalues --    0.14185   0.15052   0.17040   0.19929   0.24034
 Alpha virt. eigenvalues --    0.35997   0.37676   0.40667   0.41185   0.44773

 Mulliken charges:
               1
     1  C   -0.231337
     2  C   -0.232519
     3  C   -0.224173
     4  H    0.091159
     5  H    0.084378
     6  H    0.080132
     7  H    0.091503
     8  H    0.087533
     9  H    0.081565
    10  H    0.087549
    11  H    0.084211
 Sum of Mulliken charges =  -0.00000

 Dipole moment (field-independent basis, Debye):
    X=              0.0094    Y=              0.1597    Z=              0.0554  Tot=              0.1693
 Quadrupole moment (field-independent basis, Debye-Ang):
   XX=            -23.0370   YY=            -22.4591   ZZ=            -21.5377
   XY=             -0.1124   XZ=             -0.0171   YZ=             -0.0180

 Normal termination of Gaussian 16 at Fri Sep 22 16:34:22 2023.
