 Gaussian 16, Revision A.03,
 Gaussian 16:  ES64L-G16RevA.03 25-Dec-2016

 ----------------------------------------------------------------------
 #p b3lyp/gen scrf=(cpcm,solvent=toluene) pop=hirshfeld empiricaldisper
 sion=gd3bj
 ----------------------------------------------------------------------

 -----------------------
 tmpdir/M3_conf_0_42.gjf
 -----------------------
 Symbolic Z-matrix:
 Charge =  0 Multiplicity = 1

                         Standard orientation:
 ---------------------------------------------------------------------
 Center     Atomic      Atomic             Coordinates (Angstroms)
 Number     Number       Type             X           Y           Z
 ---------------------------------------------------------------------
      1          6           0        0.771727    0.014409    0.004976
      2          6           0       -0.770162    0.008865    0.005906
      3          1           0       -1.119718   -0.222182   -1.011808
      4          1           0        1.113779   -0.934985   -0.533256
      5          1           0        1.139858   -0.038507    1.029778
      6          1           0        1.180643    0.916708   -0.514336
      7          1           0       -1.223307    0.963956    0.325526
      8          1           0       -1.100646   -0.824637    0.638803
 ---------------------------------------------------------------------

 SCF Done:  E(RB3LYP) =  -79.8187822096     A.U. after    9 cycles

 The electronic state is 1-A.
 Alpha  occ. eigenvalues --  -10.17184 -10.16681  -0.75093  -0.60967  -0.43806
 Alpha  occ. eigenvalues --   -0.43357  -0.36198  -0.34715  -0.34096
 Alpha virt. eigenvalues --    0.04793   0.09147   0.10039   0.10431   0.13839
 Alpha virt. eigenvalues --    0.13982   0.20879   0.37381   0.38913   0.39763
 Alpha virt. eigenvalues --    0.45640   0.48223   0.57781   0.62169   0.63815

 Mulliken charges:
               1
     1  C   -0.275160
     2  C   -0.260347
     3  H    0.084323
     4  H    0.089258
     5  H    0.088682
     6  H    0.094259
     7  H    0.093291
     8  H    0.085694
 Sum of Mulliken charges =   0.00000

 Dipole moment (field-independent basis, Debye):
    X=             -0.0299    Y=             -0.0411    Z=              0.0094  Tot=              0.0517
 Quadrupole moment (field-independent basis, Debye-Ang):
   XX=            -16.1874   YY=            -14.8722   ZZ=            -15.1225
   XY=             -0.0232   XZ=              0.0361   YZ=             -0.0395

 Normal termination of Gaussian 16 at Fri Sep 22 16:33:13 2023.
