 Gaussian 16, Revision A.03,
 Gaussian 16:  ES64L-G16RevA.03 25-Dec-2016

 ----------------------------------------------------------------------
 #p b3lyp/gen scrf=(cpcm,solvent=toluene) pop=hirshfeld empiricaldisper
 sion=gd3bj
 ----------------------------------------------------------------------

 -----------------------
 tmpdir/M3_conf_0_43.gjf
 -----------------------
 Symbolic Z-matrix:
 Charge =  0 Multiplicity = 1

                         Standard orientation:
 ---------------------------------------------------------------------
 Center     Atomic      Atomic             Coordinates (Angstroms)
 Number     Number       Type             X           Y           Z
 ---------------------------------------------------------------------
      1          6           0        0.771483    0.014441    0.005314
      2          6           0       -0.770407    0.008903    0.005678
      3          1           0       -1.102781   -0.820188    0.643358
      4          1           0        1.113741   -0.938232   -0.526973
      5          1           0        1.139215   -0.032203    1.030565
      6          1           0        1.180602    0.913542   -0.519355
      7          1           0       -1.223674    0.965991    0.319105
      8          1           0       -1.113555   -0.228979   -1.012648
 ---------------------------------------------------------------------

 SCF Done:  E(RB3LYP) =  -79.8187512081     A.U. after    9 cycles

 The electronic state is 1-A.
 Alpha  occ. eigenvalues --  -10.17179 -10.16681  -0.75097  -0.60955  -0.43800
 Alpha  occ. eigenvalues --   -0.43382  -0.36175  -0.34716  -0.34104
 Alpha virt. eigenvalues --    0.04790   0.09152   0.10040   0.10433   0.13836
 Alpha virt. eigenvalues --    0.13980   0.20871   0.37373   0.38972   0.39736
 Alpha virt. eigenvalues --    0.45584   0.48246   0.57786   0.62169   0.63819

 Mulliken charges:
               1
     1  C   -0.275456
     2  C   -0.260130
     3  H    0.085770
     4  H    0.089208
     5  H    0.088563
     6  H    0.094264
     7  H    0.093406
     8  H    0.084375
 Sum of Mulliken charges =  -0.00000

 Dipole moment (field-independent basis, Debye):
    X=             -0.0294    Y=             -0.0408    Z=              0.0095  Tot=              0.0512
 Quadrupole moment (field-independent basis, Debye-Ang):
   XX=            -16.1964   YY=            -14.8725   ZZ=            -15.1173
   XY=             -0.0227   XZ=              0.0254   YZ=             -0.0391

 Normal termination of Gaussian 16 at Fri Sep 22 16:33:17 2023.
