 Gaussian 16, Revision A.03,
 Gaussian 16:  ES64L-G16RevA.03 25-Dec-2016

 ----------------------------------------------------------------------
 #p b3lyp/gen scrf=(cpcm,solvent=toluene) pop=hirshfeld empiricaldisper
 sion=gd3bj
 ----------------------------------------------------------------------

 -----------------------
 tmpdir/M3_conf_0_41.gjf
 -----------------------
 Symbolic Z-matrix:
 Charge =  0 Multiplicity = 1

                         Standard orientation:
 ---------------------------------------------------------------------
 Center     Atomic      Atomic             Coordinates (Angstroms)
 Number     Number       Type             X           Y           Z
 ---------------------------------------------------------------------
      1          6           0       -1.285772   -0.270498    0.006122
      2          6           0        0.007367    0.569160   -0.008752
      3          6           0        1.289447   -0.257662    0.000786
      4          1           0       -2.154338    0.440849   -0.212125
      5          1           0       -1.443111   -0.685067    1.002072
      6          1           0       -1.257306   -1.085338   -0.759554
      7          1           0       -0.000942    1.197207   -0.912535
      8          1           0       -0.031791    1.257672    0.845024
      9          1           0        1.301146   -0.944691   -0.865608
     10          1           0        2.159024    0.412267   -0.019788
     11          1           0        1.361068   -0.838897    0.933580
 ---------------------------------------------------------------------

 SCF Done:  E(RB3LYP) =  -119.130207835     A.U. after   10 cycles

 The electronic state is 1-A.
 Alpha  occ. eigenvalues --  -10.16929 -10.16894 -10.16472  -0.77999  -0.67878
 Alpha  occ. eigenvalues --   -0.57966  -0.45904  -0.43288  -0.39913  -0.38544
 Alpha  occ. eigenvalues --   -0.33820  -0.33404  -0.32759
 Alpha virt. eigenvalues --    0.04479   0.08539   0.08838   0.08973   0.11769
 Alpha virt. eigenvalues --    0.13152   0.14252   0.14851   0.19088   0.23711
 Alpha virt. eigenvalues --    0.37189   0.38601   0.40279   0.40949   0.41793

 Mulliken charges:
               1
     1  C   -0.227200
     2  C   -0.259690
     3  C   -0.203591
     4  H    0.089691
     5  H    0.085888
     6  H    0.088616
     7  H    0.084781
     8  H    0.085369
     9  H    0.087465
    10  H    0.086824
    11  H    0.081847
 Sum of Mulliken charges =   0.00000

 Dipole moment (field-independent basis, Debye):
    X=              0.0400    Y=              0.1150    Z=              0.0444  Tot=              0.1296
 Quadrupole moment (field-independent basis, Debye-Ang):
   XX=            -22.9755   YY=            -22.2438   ZZ=            -21.6245
   XY=             -0.0415   XZ=             -0.0103   YZ=              0.1451

 Normal termination of Gaussian 16 at Fri Sep 22 16:33:08 2023.
