 Gaussian 16, Revision A.03,
 Gaussian 16:  ES64L-G16RevA.03 25-Dec-2016

 ----------------------------------------------------------------------
 #p b3lyp/gen scrf=(cpcm,solvent=toluene) pop=hirshfeld empiricaldisper
 sion=gd3bj
 ----------------------------------------------------------------------

 -----------------------
 tmpdir/M3_conf_0_82.gjf
 -----------------------
 Symbolic Z-matrix:
 Charge =  0 Multiplicity = 1

                         Standard orientation:
 ---------------------------------------------------------------------
 Center     Atomic      Atomic             Coordinates (Angstroms)
 Number     Number       Type             X           Y           Z
 ---------------------------------------------------------------------
      1          6           0        0.863179    0.359712    0.319098
      2          6           0       -0.516095    0.630326   -0.284012
      3          6           0       -1.554354   -0.466932    0.123816
      4          8           0        1.602833   -0.523797   -0.183528
      5          1           0        1.183088    0.888338    1.165323
      6          1           0       -0.421041    0.712678   -1.411823
      7          1           0       -0.892358    1.588215    0.078146
      8          1           0       -1.675583   -0.446472    1.229401
      9          1           0       -1.248267   -1.488868   -0.193196
     10          1           0       -2.524890   -0.202152   -0.353034
 ---------------------------------------------------------------------

 SCF Done:  E(RB3LYP) =  -193.115806809     A.U. after   11 cycles

 The electronic state is 1-A.
 Alpha  occ. eigenvalues --  -19.12771 -10.27293 -10.19459 -10.18958  -1.03533
 Alpha  occ. eigenvalues --   -0.78290  -0.66617  -0.58517  -0.49062  -0.45565
 Alpha  occ. eigenvalues --   -0.42974  -0.41150  -0.38259  -0.36243  -0.35123
 Alpha  occ. eigenvalues --   -0.26540
 Alpha virt. eigenvalues --   -0.05298   0.05069   0.07515   0.08500   0.10925
 Alpha virt. eigenvalues --    0.11523   0.13127   0.17882   0.21226   0.22904
 Alpha virt. eigenvalues --    0.37359   0.39851   0.41284   0.44906   0.50165

 Mulliken charges:
               1
     1  C    0.253856
     2  C   -0.238370
     3  C   -0.225612
     4  O   -0.396502
     5  H    0.061987
     6  H    0.129619
     7  H    0.097786
     8  H    0.099569
     9  H    0.110897
    10  H    0.106769
 Sum of Mulliken charges =  -0.00000

 Dipole moment (field-independent basis, Debye):
    X=             -2.4038    Y=              2.0243    Z=              1.0063  Tot=              3.2998
 Quadrupole moment (field-independent basis, Debye-Ang):
   XX=            -29.2741   YY=            -25.3495   ZZ=            -24.3520
   XY=              2.6040   XZ=              1.5252   YZ=              0.1046

 Normal termination of Gaussian 16 at Fri Sep 22 16:33:47 2023.
