 Gaussian 16, Revision A.03,
 Gaussian 16:  ES64L-G16RevA.03 25-Dec-2016

 ----------------------------------------------------------------------
 #p b3lyp/gen scrf=(cpcm,solvent=toluene) pop=hirshfeld empiricaldisper
 sion=gd3bj
 ----------------------------------------------------------------------

 -----------------------
 tmpdir/M3_conf_0_91.gjf
 -----------------------
 Symbolic Z-matrix:
 Charge =  0 Multiplicity = 1

                         Standard orientation:
 ---------------------------------------------------------------------
 Center     Atomic      Atomic             Coordinates (Angstroms)
 Number     Number       Type             X           Y           Z
 ---------------------------------------------------------------------
      1          6           0       -1.265885   -0.275111    0.007586
      2          6           0        0.011344    0.628750    0.010661
      3          6           0        1.250366   -0.280145   -0.002275
      4          1           0       -2.211507    0.346851   -0.074394
      5          1           0       -1.217075   -0.905215   -0.881724
      6          1           0       -1.325685   -0.911997    0.911295
      7          1           0        0.059107    1.304213    0.893848
      8          1           0       -0.005867    1.234496   -0.923256
      9          1           0        1.309252   -0.906164    0.897007
     10          1           0        1.257635   -0.936770   -0.882029
     11          1           0        2.159188    0.333622   -0.036581
 ---------------------------------------------------------------------

 SCF Done:  E(RB3LYP) =  -119.130183441     A.U. after   10 cycles

 The electronic state is 1-A.
 Alpha  occ. eigenvalues --  -10.17567 -10.16893 -10.16333  -0.77748  -0.67542
 Alpha  occ. eigenvalues --   -0.58251  -0.45857  -0.43194  -0.39520  -0.38254
 Alpha  occ. eigenvalues --   -0.34035  -0.33549  -0.32949
 Alpha virt. eigenvalues --    0.04613   0.08581   0.08809   0.08884   0.11407
 Alpha virt. eigenvalues --    0.13553   0.14092   0.15554   0.18648   0.22562
 Alpha virt. eigenvalues --    0.37541   0.38878   0.40143   0.40378   0.40929

 Mulliken charges:
               1
     1  C   -0.229800
     2  C   -0.251482
     3  C   -0.216006
     4  H    0.089999
     5  H    0.082578
     6  H    0.089235
     7  H    0.093713
     8  H    0.091148
     9  H    0.084464
    10  H    0.082762
    11  H    0.083388
 Sum of Mulliken charges =  -0.00000

 Dipole moment (field-independent basis, Debye):
    X=              0.0624    Y=              0.0417    Z=             -0.0406  Tot=              0.0853
 Quadrupole moment (field-independent basis, Debye-Ang):
   XX=            -22.9202   YY=            -22.3208   ZZ=            -21.5671
   XY=              0.0218   XZ=              0.0922   YZ=             -0.0194

 Normal termination of Gaussian 16 at Fri Sep 22 16:33:32 2023.
