 Gaussian 16, Revision A.03,
 Gaussian 16:  ES64L-G16RevA.03 25-Dec-2016

 ----------------------------------------------------------------------
 #p b3lyp/gen scrf=(cpcm,solvent=toluene) pop=hirshfeld empiricaldisper
 sion=gd3bj
 ----------------------------------------------------------------------

 ------------------------
 tmpdir/M3_conf_0_154.gjf
 ------------------------
 Symbolic Z-matrix:
 Charge =  0 Multiplicity = 1

                         Standard orientation:
 ---------------------------------------------------------------------
 Center     Atomic      Atomic             Coordinates (Angstroms)
 Number     Number       Type             X           Y           Z
 ---------------------------------------------------------------------
      1          6           0        0.008096   -0.003234   -0.002362
      2          1           0        0.545547    0.949043   -0.083771
      3          1           0       -0.621961   -0.005572    0.904317
      4          1           0       -0.725282   -0.118290   -0.822213
      5          1           0        0.753123   -0.805778    0.015841
 ---------------------------------------------------------------------

 SCF Done:  E(RB3LYP) =  -40.5129458407     A.U. after    7 cycles

 The electronic state is 1-A.
 Alpha  occ. eigenvalues --  -10.16441  -0.69263  -0.40505  -0.39015  -0.38113
 Alpha virt. eigenvalues --    0.05626   0.12328   0.12529   0.12561   0.36575
 Alpha virt. eigenvalues --    0.37153   0.39573   0.62899   0.63669   0.64214
 Alpha virt. eigenvalues --    0.67111   0.95452   1.28279   1.30304   1.82903

 Mulliken charges:
               1
     1  C   -0.355620
     2  H    0.088903
     3  H    0.086072
     4  H    0.088264
     5  H    0.092381
 Sum of Mulliken charges =   0.00000

 Dipole moment (field-independent basis, Debye):
    X=             -0.0239    Y=              0.0132    Z=              0.0115  Tot=              0.0297
 Quadrupole moment (field-independent basis, Debye-Ang):
   XX=             -8.2096   YY=             -8.5149   ZZ=             -8.6715
   XY=             -0.0118   XZ=              0.0007   YZ=             -0.0030

 Normal termination of Gaussian 16 at Fri Sep 22 16:34:13 2023.
