 Gaussian 16, Revision A.03,
 Gaussian 16:  ES64L-G16RevA.03 25-Dec-2016

 ----------------------------------------------------------------------
 #p b3lyp/gen scrf=(cpcm,solvent=toluene) pop=hirshfeld empiricaldisper
 sion=gd3bj
 ----------------------------------------------------------------------

 ------------------------
 tmpdir/M3_conf_0_237.gjf
 ------------------------
 Symbolic Z-matrix:
 Charge =  0 Multiplicity = 1

                         Standard orientation:
 ---------------------------------------------------------------------
 Center     Atomic      Atomic             Coordinates (Angstroms)
 Number     Number       Type             X           Y           Z
 ---------------------------------------------------------------------
      1          6           0        0.248486    0.389510    0.000657
      2          6           0       -1.161015   -0.136914   -0.001175
      3          1           0       -1.226572   -1.228244   -0.030813
      4          8           0        1.223251   -0.278677   -0.000500
      5          1           0        0.325632    1.476377    0.001865
      6          1           0       -1.694276    0.202979    0.898520
      7          1           0       -1.715615    0.262727   -0.862469
 ---------------------------------------------------------------------

 SCF Done:  E(RB3LYP) =  -153.813318079     A.U. after   10 cycles

 The electronic state is 1-A.
 Alpha  occ. eigenvalues --  -19.12836 -10.27035 -10.18371  -1.07687  -0.75530
 Alpha  occ. eigenvalues --   -0.58940  -0.48866  -0.45115  -0.45015  -0.39939
 Alpha  occ. eigenvalues --   -0.37923  -0.26603
 Alpha virt. eigenvalues --   -0.02609   0.05552   0.08236   0.10849   0.11852
 Alpha virt. eigenvalues --    0.20967   0.22928   0.41310   0.42268   0.44285
 Alpha virt. eigenvalues --    0.45811   0.54879   0.58754   0.60935   0.64789

 Mulliken charges:
               1
     1  C    0.178869
     2  C   -0.238161
     3  H    0.105092
     4  O   -0.331563
     5  H    0.046102
     6  H    0.120499
     7  H    0.119162
 Sum of Mulliken charges =  -0.00000

 Dipole moment (field-independent basis, Debye):
    X=             -2.7040    Y=              1.3247    Z=              0.0148  Tot=              3.0111
 Quadrupole moment (field-independent basis, Debye-Ang):
   XX=            -21.1209   YY=            -18.1628   ZZ=            -17.8753
   XY=              1.0047   XZ=             -0.0158   YZ=             -0.0132

 Normal termination of Gaussian 16 at Fri Sep 22 16:36:20 2023.
