 Gaussian 16, Revision A.03,
 Gaussian 16:  ES64L-G16RevA.03 25-Dec-2016

 ----------------------------------------------------------------------
 #p b3lyp/gen scrf=(cpcm,solvent=toluene) pop=hirshfeld empiricaldisper
 sion=gd3bj
 ----------------------------------------------------------------------

 ------------------------
 tmpdir/M3_conf_0_200.gjf
 ------------------------
 Symbolic Z-matrix:
 Charge =  0 Multiplicity = 1

                         Standard orientation:
 ---------------------------------------------------------------------
 Center     Atomic      Atomic             Coordinates (Angstroms)
 Number     Number       Type             X           Y           Z
 ---------------------------------------------------------------------
      1          1           0        1.167602   -0.554437    0.858383
      2          6           0        0.754426   -0.012970    0.001628
      3          6           0       -0.757741   -0.002556    0.000054
      4          1           0        1.108993    1.116427    0.044030
      5          1           0        1.166791   -0.466038   -0.909569
      6          1           0       -1.139167   -1.028626   -0.077303
      7          1           0       -1.142192    0.448108    0.921821
      8          1           0       -1.142139    0.577725   -0.847454
 ---------------------------------------------------------------------

 SCF Done:  E(RB3LYP) =  -79.8178442384     A.U. after    9 cycles

 The electronic state is 1-A.
 Alpha  occ. eigenvalues --  -10.17220 -10.16455  -0.75584  -0.60916  -0.43843
 Alpha  occ. eigenvalues --   -0.43524  -0.37132  -0.34466  -0.33587
 Alpha virt. eigenvalues --    0.04769   0.09161   0.10010   0.10546   0.13343
 Alpha virt. eigenvalues --    0.13919   0.21869   0.36875   0.39032   0.39901
 Alpha virt. eigenvalues --    0.46189   0.47058   0.59333   0.60673   0.64219

 Mulliken charges:
               1
     1  H    0.089755
     2  C   -0.278910
     3  C   -0.246630
     4  H    0.087536
     5  H    0.088793
     6  H    0.085144
     7  H    0.087199
     8  H    0.087113
 Sum of Mulliken charges =  -0.00000

 Dipole moment (field-independent basis, Debye):
    X=             -0.0528    Y=             -0.0649    Z=             -0.0068  Tot=              0.0840
 Quadrupole moment (field-independent basis, Debye-Ang):
   XX=            -16.1208   YY=            -15.0061   ZZ=            -15.0498
   XY=             -0.2228   XZ=             -0.0108   YZ=             -0.0176

 Normal termination of Gaussian 16 at Fri Sep 22 16:35:23 2023.
