 Gaussian 16, Revision A.03,
 Gaussian 16:  ES64L-G16RevA.03 25-Dec-2016

 ----------------------------------------------------------------------
 #p b3lyp/gen scrf=(cpcm,solvent=toluene) pop=hirshfeld empiricaldisper
 sion=gd3bj
 ----------------------------------------------------------------------

 ------------------------
 tmpdir/M3_conf_0_127.gjf
 ------------------------
 Symbolic Z-matrix:
 Charge =  0 Multiplicity = 1

                         Standard orientation:
 ---------------------------------------------------------------------
 Center     Atomic      Atomic             Coordinates (Angstroms)
 Number     Number       Type             X           Y           Z
 ---------------------------------------------------------------------
      1          6           0       -3.536453   -0.678796    0.078531
      2          6           0       -2.093447   -0.181716   -0.026028
      3          6           0       -1.034595   -1.062463   -0.017902
      4          6           0       -1.819385    1.214758   -0.067135
      5          6           0        0.311147   -0.611500   -0.015076
      6          1           0       -1.202959   -2.135940   -0.015679
      7          6           0       -0.529606    1.687360   -0.036017
      8          1           0       -2.636268    1.926863   -0.154353
      9          6           0        0.575021    0.793864    0.010083
     10          6           0        1.406911   -1.516295   -0.036593
     11          1           0       -0.343519    2.760167   -0.071325
     12          6           0        1.921405    1.240880    0.059318
     13          6           0        2.702585   -1.051258   -0.019649
     14          1           0        1.204557   -2.586292   -0.067444
     15          6           0        2.961069    0.338795    0.039913
     16          1           0        2.116098    2.307836    0.128734
     17          1           0        3.534407   -1.752927   -0.043137
     18          1           0        3.990031    0.691108    0.076058
     19          1           0       -3.936297   -0.514446    1.119430
     20          1           0       -4.249378    0.000595   -0.567157
     21          1           0       -3.664579   -1.738744   -0.221789
 ---------------------------------------------------------------------

 SCF Done:  E(RB3LYP) =  -425.173546431     A.U. after   12 cycles

 The electronic state is 1-A.
 Alpha  occ. eigenvalues --  -10.19547 -10.19232 -10.19154 -10.19034 -10.18591
 Alpha  occ. eigenvalues --  -10.18541 -10.18531 -10.18474 -10.18417 -10.18383
 Alpha  occ. eigenvalues --  -10.18128  -0.88552  -0.83568  -0.78486  -0.76360
 Alpha  occ. eigenvalues --   -0.73319  -0.68760  -0.62973  -0.60546  -0.60353
 Alpha  occ. eigenvalues --   -0.52121  -0.51311  -0.49143  -0.45520  -0.44930
 Alpha  occ. eigenvalues --   -0.43060  -0.42361  -0.41859  -0.40142  -0.39339
 Alpha  occ. eigenvalues --   -0.38371  -0.37102  -0.34564  -0.33864  -0.32877
 Alpha  occ. eigenvalues --   -0.29493  -0.25057  -0.22583
 Alpha virt. eigenvalues --   -0.05071  -0.02436   0.01345   0.04814   0.05453
 Alpha virt. eigenvalues --    0.06403   0.07249   0.08235   0.09489   0.11046
 Alpha virt. eigenvalues --    0.11420   0.12525   0.14365   0.15285   0.18045

 Mulliken charges:
               1
     1  C   -0.092405
     2  C   -0.291154
     3  C    0.073549
     4  C    0.004020
     5  C   -0.136338
     6  H    0.032415
     7  C   -0.004837
     8  H    0.043996
     9  C   -0.134766
    10  C   -0.009297
    11  H    0.049147
    12  C    0.002803
    13  C   -0.041596
    14  H    0.047028
    15  C   -0.044534
    16  H    0.046257
    17  H    0.064136
    18  H    0.063979
    19  H    0.119232
    20  H    0.104493
    21  H    0.103872
 Sum of Mulliken charges =  -0.00000

 Dipole moment (field-independent basis, Debye):
    X=             -0.5181    Y=             -0.0231    Z=              0.0993  Tot=              0.5280
 Quadrupole moment (field-independent basis, Debye-Ang):
   XX=            -56.9632   YY=            -58.1982   ZZ=            -71.7859
   XY=              0.0255   XZ=             -0.1410   YZ=              0.0982

 Normal termination of Gaussian 16 at Fri Sep 22 16:35:07 2023.
