 Gaussian 16, Revision A.03,
 Gaussian 16:  ES64L-G16RevA.03 25-Dec-2016

 ----------------------------------------------------------------------
 #p b3lyp/gen scrf=(cpcm,solvent=toluene) pop=hirshfeld empiricaldisper
 sion=gd3bj
 ----------------------------------------------------------------------

 ------------------------
 tmpdir/M3_conf_0_188.gjf
 ------------------------
 Symbolic Z-matrix:
 Charge =  0 Multiplicity = 1

                         Standard orientation:
 ---------------------------------------------------------------------
 Center     Atomic      Atomic             Coordinates (Angstroms)
 Number     Number       Type             X           Y           Z
 ---------------------------------------------------------------------
      1          6           0       -0.304640   -0.223018   -0.022556
      2          6           0       -1.741111   -0.471312    0.088566
      3          8           0       -2.605383    0.379125   -0.065752
      4          6           0        0.738035   -1.151145   -0.050409
      5          6           0        0.281446    1.075009    0.006357
      6          7           0        1.926250   -0.443847   -0.021233
      7          6           0        1.646936    0.928640    0.021456
      8          1           0       -0.258076    2.014223    0.034222
      9          1           0       -1.973301   -1.522983    0.349686
     10          1           0        0.646829   -2.205379   -0.194952
     11          1           0        2.835900   -0.880363    0.195595
     12          1           0        2.383963    1.719379    0.029603
 ---------------------------------------------------------------------

 SCF Done:  E(RB3LYP) =  -323.463982720     A.U. after   13 cycles

 The electronic state is 1-A.
 Alpha  occ. eigenvalues --  -19.11426 -14.38767 -10.26410 -10.22721 -10.21662
 Alpha  occ. eigenvalues --  -10.17999 -10.17640  -1.04238  -0.99393  -0.80344
 Alpha  occ. eigenvalues --   -0.74985  -0.65835  -0.60235  -0.57265  -0.53518
 Alpha  occ. eigenvalues --   -0.47968  -0.45191  -0.43971  -0.43007  -0.41728
 Alpha  occ. eigenvalues --   -0.39630  -0.38054  -0.27040  -0.26038  -0.24210
 Alpha virt. eigenvalues --   -0.05050   0.00964   0.03720   0.06844   0.08045
 Alpha virt. eigenvalues --    0.08904   0.10573   0.11778   0.18448   0.19157
 Alpha virt. eigenvalues --    0.22166   0.25164   0.29348   0.31374   0.34488

 Mulliken charges:
               1
     1  C   -0.359016
     2  C    0.360660
     3  O   -0.385326
     4  C    0.216768
     5  C   -0.081580
     6  N   -0.390243
     7  C    0.159416
     8  H    0.047578
     9  H    0.042237
    10  H    0.084091
    11  H    0.212586
    12  H    0.092828
 Sum of Mulliken charges =  -0.00000

 Dipole moment (field-independent basis, Debye):
    X=              5.7716    Y=             -2.4767    Z=              0.5979  Tot=              6.3090
 Quadrupole moment (field-independent basis, Debye-Ang):
   XX=            -41.2145   YY=            -34.8084   ZZ=            -43.7428
   XY=              1.8303   XZ=              0.2568   YZ=              0.0932

 Normal termination of Gaussian 16 at Fri Sep 22 16:35:24 2023.
