 Gaussian 16, Revision A.03,
 Gaussian 16:  ES64L-G16RevA.03 25-Dec-2016

 ----------------------------------------------------------------------
 #p b3lyp/gen scrf=(cpcm,solvent=toluene) pop=hirshfeld empiricaldisper
 sion=gd3bj
 ----------------------------------------------------------------------

 ------------------------
 tmpdir/M3_conf_0_199.gjf
 ------------------------
 Symbolic Z-matrix:
 Charge =  0 Multiplicity = 1

                         Standard orientation:
 ---------------------------------------------------------------------
 Center     Atomic      Atomic             Coordinates (Angstroms)
 Number     Number       Type             X           Y           Z
 ---------------------------------------------------------------------
      1          1           0        1.167688   -0.466077   -0.909182
      2          6           0        0.754432   -0.013024    0.001623
      3          6           0       -0.757729   -0.002690    0.000058
      4          1           0        1.107356    1.116907    0.043338
      5          1           0        1.168218   -0.553310    0.858835
      6          1           0       -1.139106   -1.028816   -0.076725
      7          1           0       -1.142199    0.448629    0.921508
      8          1           0       -1.142173    0.576950   -0.847864
 ---------------------------------------------------------------------

 SCF Done:  E(RB3LYP) =  -79.8178263380     A.U. after    9 cycles

 The electronic state is 1-A.
 Alpha  occ. eigenvalues --  -10.17220 -10.16455  -0.75585  -0.60916  -0.43842
 Alpha  occ. eigenvalues --   -0.43526  -0.37137  -0.34468  -0.33579
 Alpha virt. eigenvalues --    0.04768   0.09163   0.10009   0.10545   0.13340
 Alpha virt. eigenvalues --    0.13921   0.21868   0.36875   0.39024   0.39913
 Alpha virt. eigenvalues --    0.46172   0.47076   0.59335   0.60668   0.64219

 Mulliken charges:
               1
     1  H    0.088828
     2  C   -0.278920
     3  C   -0.246613
     4  H    0.087461
     5  H    0.089783
     6  H    0.085123
     7  H    0.087223
     8  H    0.087116
 Sum of Mulliken charges =  -0.00000

 Dipole moment (field-independent basis, Debye):
    X=             -0.0528    Y=             -0.0646    Z=             -0.0068  Tot=              0.0837
 Quadrupole moment (field-independent basis, Debye-Ang):
   XX=            -16.1205   YY=            -15.0071   ZZ=            -15.0494
   XY=             -0.2258   XZ=             -0.0110   YZ=             -0.0174

 Normal termination of Gaussian 16 at Fri Sep 22 16:35:18 2023.
