 Gaussian 16, Revision A.03,
 Gaussian 16:  ES64L-G16RevA.03 25-Dec-2016

 ----------------------------------------------------------------------
 #p b3lyp/gen scrf=(cpcm,solvent=toluene) pop=hirshfeld empiricaldisper
 sion=gd3bj
 ----------------------------------------------------------------------

 -----------------------
 tmpdir/M3_conf_0_66.gjf
 -----------------------
 Symbolic Z-matrix:
 Charge =  0 Multiplicity = 1

                         Standard orientation:
 ---------------------------------------------------------------------
 Center     Atomic      Atomic             Coordinates (Angstroms)
 Number     Number       Type             X           Y           Z
 ---------------------------------------------------------------------
      1          6           0       -0.004301    0.001168   -0.002007
      2          1           0        0.711421   -0.037330   -0.833791
      3          1           0       -0.281481    1.051440    0.198573
      4          1           0       -0.909401   -0.592707   -0.227603
      5          1           0        0.505264   -0.428411    0.874862
 ---------------------------------------------------------------------

 SCF Done:  E(RB3LYP) =  -40.5138631249     A.U. after    7 cycles

 The electronic state is 1-A.
 Alpha  occ. eigenvalues --  -10.16515  -0.69186  -0.39560  -0.39264  -0.38731
 Alpha virt. eigenvalues --    0.05603   0.12397   0.12475   0.12519   0.37047
 Alpha virt. eigenvalues --    0.37820   0.38171   0.63291   0.63470   0.63656
 Alpha virt. eigenvalues --    0.66996   0.95962   1.28588   1.29455   1.85050

 Mulliken charges:
               1
     1  C   -0.357619
     2  H    0.087911
     3  H    0.090841
     4  H    0.091918
     5  H    0.086948
 Sum of Mulliken charges =  -0.00000

 Dipole moment (field-independent basis, Debye):
    X=              0.0251    Y=             -0.0060    Z=              0.0061  Tot=              0.0266
 Quadrupole moment (field-independent basis, Debye-Ang):
   XX=             -8.3938   YY=             -8.4373   ZZ=             -8.5757
   XY=              0.0014   XZ=             -0.0064   YZ=              0.0028

 Normal termination of Gaussian 16 at Fri Sep 22 16:33:08 2023.
