 Gaussian 16, Revision A.03,
 Gaussian 16:  ES64L-G16RevA.03 25-Dec-2016

 ----------------------------------------------------------------------
 #p b3lyp/gen scrf=(cpcm,solvent=toluene) pop=hirshfeld empiricaldisper
 sion=gd3bj
 ----------------------------------------------------------------------

 ------------------------
 tmpdir/M3_conf_0_161.gjf
 ------------------------
 Symbolic Z-matrix:
 Charge =  0 Multiplicity = 1

                         Standard orientation:
 ---------------------------------------------------------------------
 Center     Atomic      Atomic             Coordinates (Angstroms)
 Number     Number       Type             X           Y           Z
 ---------------------------------------------------------------------
      1          6           0       -0.874997    0.468766    0.010515
      2          7           0        0.440649    0.682720   -0.003142
      3          6           0        1.402745   -0.465683    0.009137
      4          1           0       -1.578963    1.321172    0.071515
      5          8           0       -1.318117   -0.707406   -0.013223
      6          1           0        0.915221    1.596187   -0.092931
      7          1           0        2.394685    0.059261   -0.095040
      8          1           0        1.342293   -0.987450    0.985970
      9          1           0        1.220664   -1.127462   -0.859649
 ---------------------------------------------------------------------

 SCF Done:  E(RB3LYP) =  -209.175552886     A.U. after   11 cycles

 The electronic state is 1-A.
 Alpha  occ. eigenvalues --  -19.08586 -14.35366 -10.27810 -10.22279  -1.02712
 Alpha  occ. eigenvalues --   -0.92004  -0.71597  -0.60120  -0.54902  -0.45857
 Alpha  occ. eigenvalues --   -0.45371  -0.40795  -0.39515  -0.37875  -0.26516
 Alpha  occ. eigenvalues --   -0.25888
 Alpha virt. eigenvalues --    0.01132   0.03281   0.06720   0.08486   0.11329
 Alpha virt. eigenvalues --    0.12213   0.15989   0.22310   0.31108   0.39556
 Alpha virt. eigenvalues --    0.40786   0.44086   0.44833   0.45295   0.55817

 Mulliken charges:
               1
     1  C    0.377459
     2  N   -0.465477
     3  C   -0.025281
     4  H    0.079973
     5  O   -0.496181
     6  H    0.203969
     7  H    0.092287
     8  H    0.116327
     9  H    0.116923
 Sum of Mulliken charges =  -0.00000

 Dipole moment (field-independent basis, Debye):
    X=              3.3918    Y=              3.3914    Z=             -0.0592  Tot=              4.7968
 Quadrupole moment (field-independent basis, Debye-Ang):
   XX=            -24.9890   YY=            -22.7192   ZZ=            -24.8881
   XY=             -2.9991   XZ=             -0.2467   YZ=             -0.2474

 Normal termination of Gaussian 16 at Fri Sep 22 16:34:52 2023.
