 Gaussian 16, Revision A.03,
 Gaussian 16:  ES64L-G16RevA.03 25-Dec-2016

 ----------------------------------------------------------------------
 #p b3lyp/gen scrf=(cpcm,solvent=toluene) pop=hirshfeld empiricaldisper
 sion=gd3bj
 ----------------------------------------------------------------------

 ------------------------
 tmpdir/M3_conf_0_168.gjf
 ------------------------
 Symbolic Z-matrix:
 Charge =  0 Multiplicity = 1

                         Standard orientation:
 ---------------------------------------------------------------------
 Center     Atomic      Atomic             Coordinates (Angstroms)
 Number     Number       Type             X           Y           Z
 ---------------------------------------------------------------------
      1          6           0        0.760976   -0.025704    0.002419
      2          6           0       -0.770923   -0.001682   -0.003808
      3          1           0       -1.167174   -0.537702    0.865804
      4          1           0        1.156745    0.404961    0.965880
      5          1           0        1.168214    0.740872   -0.793365
      6          1           0        1.189987   -1.030258   -0.178444
      7          1           0       -1.174264   -0.450876   -0.915194
      8          1           0       -1.113831    1.037318    0.063659
 ---------------------------------------------------------------------

 SCF Done:  E(RB3LYP) =  -79.8173040342     A.U. after    9 cycles

 The electronic state is 1-A.
 Alpha  occ. eigenvalues --  -10.17693 -10.16624  -0.75110  -0.60941  -0.43930
 Alpha  occ. eigenvalues --   -0.42888  -0.36825  -0.34877  -0.33393
 Alpha virt. eigenvalues --    0.04740   0.08912   0.09936   0.10361   0.13400
 Alpha virt. eigenvalues --    0.13950   0.21322   0.37361   0.38270   0.39398
 Alpha virt. eigenvalues --    0.46436   0.48258   0.58059   0.60755   0.63342

 Mulliken charges:
               1
     1  C   -0.295597
     2  C   -0.242460
     3  H    0.087382
     4  H    0.089171
     5  H    0.087461
     6  H    0.097706
     7  H    0.089740
     8  H    0.086597
 Sum of Mulliken charges =   0.00000

 Dipole moment (field-independent basis, Debye):
    X=             -0.0672    Y=              0.0170    Z=              0.0487  Tot=              0.0847
 Quadrupole moment (field-independent basis, Debye-Ang):
   XX=            -16.0401   YY=            -14.9242   ZZ=            -15.2458
   XY=             -0.0123   XZ=              0.0605   YZ=              0.0976

 Normal termination of Gaussian 16 at Fri Sep 22 16:34:26 2023.
