 Gaussian 16, Revision A.03,
 Gaussian 16:  ES64L-G16RevA.03 25-Dec-2016

 ----------------------------------------------------------------------
 #p b3lyp/gen scrf=(cpcm,solvent=toluene) pop=hirshfeld empiricaldisper
 sion=gd3bj
 ----------------------------------------------------------------------

 ------------------------
 tmpdir/M3_conf_0_180.gjf
 ------------------------
 Symbolic Z-matrix:
 Charge =  0 Multiplicity = 1

                         Standard orientation:
 ---------------------------------------------------------------------
 Center     Atomic      Atomic             Coordinates (Angstroms)
 Number     Number       Type             X           Y           Z
 ---------------------------------------------------------------------
      1          6           0       -0.658636    0.030091   -0.008384
      2          6           0       -2.151291   -0.009372    0.010867
      3          1           0       -2.580903   -0.632157   -0.782231
      4          7           0        0.185792   -1.088480    0.006649
      5          6           0        0.136269    1.150031    0.000695
      6          6           0        1.502955   -0.666559    0.012318
      7          6           0        1.497419    0.729549   -0.002433
      8          1           0       -0.210660    2.176424   -0.010600
      9          1           0       -2.522517    1.010908   -0.132961
     10          1           0       -2.527626   -0.374142    0.974912
     11          1           0       -0.094059   -2.057116   -0.213451
     12          1           0        2.356107   -1.297543    0.133270
     13          1           0        2.318827    1.390547   -0.093862
 ---------------------------------------------------------------------

 SCF Done:  E(RB3LYP) =  -249.463493760     A.U. after   12 cycles

 The electronic state is 1-A.
 Alpha  occ. eigenvalues --  -14.35945 -10.20046 -10.19397 -10.17939 -10.15529
 Alpha  occ. eigenvalues --  -10.15325  -0.96993  -0.77518  -0.75983  -0.67225
 Alpha  occ. eigenvalues --   -0.58545  -0.56574  -0.51571  -0.44096  -0.43075
 Alpha  occ. eigenvalues --   -0.42611  -0.39627  -0.38602  -0.38245  -0.35877
 Alpha  occ. eigenvalues --   -0.24878  -0.20921
 Alpha virt. eigenvalues --    0.02156   0.04263   0.07106   0.07132   0.08674
 Alpha virt. eigenvalues --    0.10076   0.11366   0.12780   0.13753   0.19299
 Alpha virt. eigenvalues --    0.21385   0.23393   0.29342   0.32005   0.37185

 Mulliken charges:
               1
     1  C   -0.030005
     2  C   -0.033271
     3  H    0.100072
     4  N   -0.426142
     5  C   -0.144479
     6  C    0.117369
     7  C   -0.128813
     8  H    0.035574
     9  H    0.100105
    10  H    0.107634
    11  H    0.195064
    12  H    0.069230
    13  H    0.037663
 Sum of Mulliken charges =  -0.00000

 Dipole moment (field-independent basis, Debye):
    X=             -1.1093    Y=             -1.8885    Z=             -0.3076  Tot=              2.2117
 Quadrupole moment (field-independent basis, Debye-Ang):
   XX=            -33.8922   YY=            -30.7634   ZZ=            -40.6056
   XY=             -0.4461   XZ=              0.1718   YZ=              0.4930

 Normal termination of Gaussian 16 at Fri Sep 22 16:35:06 2023.
