 Gaussian 16, Revision A.03,
 Gaussian 16:  ES64L-G16RevA.03 25-Dec-2016

 ----------------------------------------------------------------------
 #p b3lyp/gen scrf=(cpcm,solvent=toluene) pop=hirshfeld empiricaldisper
 sion=gd3bj
 ----------------------------------------------------------------------

 ------------------------
 tmpdir/M3_conf_0_142.gjf
 ------------------------
 Symbolic Z-matrix:
 Charge =  0 Multiplicity = 1

                         Standard orientation:
 ---------------------------------------------------------------------
 Center     Atomic      Atomic             Coordinates (Angstroms)
 Number     Number       Type             X           Y           Z
 ---------------------------------------------------------------------
      1          1           0       -1.124264   -0.092848    1.018712
      2          6           0       -0.736072   -0.001792   -0.004118
      3          7           0        0.739279   -0.029535    0.011892
      4          1           0       -0.959394    0.991013   -0.432494
      5          1           0       -1.118043   -0.823447   -0.615371
      6          1           0        1.281958   -0.787976   -0.026898
      7          1           0        1.161225    0.930757   -0.002486
 ---------------------------------------------------------------------

 SCF Done:  E(RB3LYP) =  -95.8272139220     A.U. after    9 cycles

 The electronic state is 1-A.
 Alpha  occ. eigenvalues --  -14.27217 -10.19384  -0.85673  -0.65920  -0.50340
 Alpha  occ. eigenvalues --   -0.41740  -0.41425  -0.37898  -0.20765
 Alpha virt. eigenvalues --    0.04803   0.08424   0.09904   0.12525   0.15783
 Alpha virt. eigenvalues --    0.19936   0.41460   0.43737   0.45011   0.54749
 Alpha virt. eigenvalues --    0.60693   0.62561   0.65283   0.70849   0.71994

 Mulliken charges:
               1
     1  H    0.075764
     2  C   -0.021384
     3  N   -0.529043
     4  H    0.083281
     5  H    0.084588
     6  H    0.130028
     7  H    0.176767
 Sum of Mulliken charges =   0.00000

 Dipole moment (field-independent basis, Debye):
    X=              0.0641    Y=              0.1735    Z=             -0.1869  Tot=              0.2629
 Quadrupole moment (field-independent basis, Debye-Ang):
   XX=            -13.2370   YY=            -12.0240   ZZ=            -15.6905
   XY=              0.0814   XZ=             -0.0669   YZ=              0.0257

 Normal termination of Gaussian 16 at Fri Sep 22 16:36:52 2023.
