 Gaussian 16, Revision A.03,
 Gaussian 16:  ES64L-G16RevA.03 25-Dec-2016

 ----------------------------------------------------------------------
 #p b3lyp/gen scrf=(cpcm,solvent=toluene) pop=hirshfeld empiricaldisper
 sion=gd3bj
 ----------------------------------------------------------------------

 ------------------------
 tmpdir/M3_conf_0_192.gjf
 ------------------------
 Symbolic Z-matrix:
 Charge =  0 Multiplicity = 1

                         Standard orientation:
 ---------------------------------------------------------------------
 Center     Atomic      Atomic             Coordinates (Angstroms)
 Number     Number       Type             X           Y           Z
 ---------------------------------------------------------------------
      1          6           0        0.012602    0.011007   -0.000768
      2          1           0        0.520266   -0.354513    0.901118
      3          1           0       -1.034957   -0.536064   -0.080683
      4          1           0        0.629649   -0.260987   -0.862866
      5          1           0       -0.190567    1.085521    0.047038
 ---------------------------------------------------------------------

 SCF Done:  E(RB3LYP) =  -40.5097765102     A.U. after    8 cycles

 The electronic state is 1-A.
 Alpha  occ. eigenvalues --  -10.17120  -0.68823  -0.40182  -0.39139  -0.37581
 Alpha virt. eigenvalues --    0.05288   0.11268   0.12535   0.12605   0.37112
 Alpha virt. eigenvalues --    0.37443   0.38767   0.59212   0.63622   0.64162
 Alpha virt. eigenvalues --    0.66176   0.95522   1.28826   1.30104   1.81345

 Mulliken charges:
               1
     1  C   -0.369144
     2  H    0.091126
     3  H    0.090828
     4  H    0.092246
     5  H    0.094943
 Sum of Mulliken charges =   0.00000

 Dipole moment (field-independent basis, Debye):
    X=              0.0420    Y=              0.0071    Z=              0.0090  Tot=              0.0435
 Quadrupole moment (field-independent basis, Debye-Ang):
   XX=             -8.4833   YY=             -8.4819   ZZ=             -8.5873
   XY=             -0.1219   XZ=             -0.0248   YZ=             -0.0053

 Normal termination of Gaussian 16 at Fri Sep 22 16:35:42 2023.
