 Gaussian 16, Revision A.03,
 Gaussian 16:  ES64L-G16RevA.03 25-Dec-2016

 ----------------------------------------------------------------------
 #p b3lyp/gen scrf=(cpcm,solvent=toluene) pop=hirshfeld empiricaldisper
 sion=gd3bj
 ----------------------------------------------------------------------

 ------------------------
 tmpdir/M3_conf_0_130.gjf
 ------------------------
 Symbolic Z-matrix:
 Charge =  0 Multiplicity = 1

                         Standard orientation:
 ---------------------------------------------------------------------
 Center     Atomic      Atomic             Coordinates (Angstroms)
 Number     Number       Type             X           Y           Z
 ---------------------------------------------------------------------
      1          6           0       -3.830610   -0.315991    0.934963
      2          6           0       -3.133314   -0.506779   -0.444032
      3          6           0       -1.670860   -0.064698   -0.372173
      4          6           0       -0.651366   -0.987127   -0.290262
      5          6           0       -1.344068    1.320082   -0.322022
      6          6           0        0.701483   -0.591373   -0.124125
      7          1           0       -0.857364   -2.052145   -0.353494
      8          6           0       -0.049095    1.738561   -0.132788
      9          1           0       -2.120656    2.067540   -0.464165
     10          6           0        1.011308    0.800032   -0.008837
     11          6           0        1.759988   -1.538113   -0.068792
     12          1           0        0.178062    2.803525   -0.100558
     13          6           0        2.359623    1.189938    0.203283
     14          6           0        3.062061   -1.126867    0.106651
     15          1           0        1.523915   -2.596963   -0.168341
     16          6           0        3.362276    0.248101    0.254863
     17          1           0        2.583801    2.244516    0.340189
     18          1           0        3.865860   -1.860059    0.140896
     19          1           0        4.393254    0.556811    0.415984
     20          1           0       -4.331640    0.668613    0.882469
     21          1           0       -4.578423   -1.108663    1.068438
     22          1           0       -3.108814   -0.396358    1.753121
     23          1           0       -3.747056    0.226276   -1.131550
     24          1           0       -3.265508   -1.547689   -0.803367
 ---------------------------------------------------------------------

 SCF Done:  E(RB3LYP) =  -464.478713063     A.U. after   12 cycles

 The electronic state is 1-A.
 Alpha  occ. eigenvalues --  -10.19266 -10.19201 -10.19129 -10.18992 -10.18563
 Alpha  occ. eigenvalues --  -10.18523 -10.18512 -10.18454 -10.18399 -10.18368
 Alpha  occ. eigenvalues --  -10.18090 -10.17097  -0.88548  -0.83725  -0.78793
 Alpha  occ. eigenvalues --   -0.77413  -0.73815  -0.72109  -0.64088  -0.62743
 Alpha  occ. eigenvalues --   -0.60463  -0.58873  -0.52090  -0.51310  -0.49372
 Alpha  occ. eigenvalues --   -0.45766  -0.45384  -0.44181  -0.43023  -0.42294
 Alpha  occ. eigenvalues --   -0.41663  -0.40145  -0.38595  -0.37373  -0.36237
 Alpha  occ. eigenvalues --   -0.34857  -0.33679  -0.33405  -0.32673  -0.29456
 Alpha  occ. eigenvalues --   -0.25021  -0.22546
 Alpha virt. eigenvalues --   -0.05070  -0.02395   0.01341   0.04102   0.05353
 Alpha virt. eigenvalues --    0.06215   0.07925   0.08091   0.08313   0.09250
 Alpha virt. eigenvalues --    0.10568   0.11304   0.12248   0.14031   0.15070

 Mulliken charges:
               1
     1  C   -0.188310
     2  C   -0.124546
     3  C   -0.233262
     4  C    0.070764
     5  C    0.010425
     6  C   -0.132483
     7  H    0.029295
     8  C   -0.001100
     9  H    0.042366
    10  C   -0.136062
    11  C   -0.009371
    12  H    0.048414
    13  C    0.002873
    14  C   -0.041476
    15  H    0.046691
    16  C   -0.044401
    17  H    0.046003
    18  H    0.063973
    19  H    0.063804
    20  H    0.096144
    21  H    0.089659
    22  H    0.096732
    23  H    0.107007
    24  H    0.096861
 Sum of Mulliken charges =  -0.00000

 Dipole moment (field-independent basis, Debye):
    X=             -0.5865    Y=             -0.0693    Z=              0.1170  Tot=              0.6021
 Quadrupole moment (field-independent basis, Debye-Ang):
   XX=            -64.0100   YY=            -64.6752   ZZ=            -78.9465
   XY=              0.1540   XZ=              1.7274   YZ=              0.3017

 Normal termination of Gaussian 16 at Fri Sep 22 16:36:38 2023.
