 Gaussian 16, Revision A.03,
 Gaussian 16:  ES64L-G16RevA.03 25-Dec-2016

 ----------------------------------------------------------------------
 #p b3lyp/gen scrf=(cpcm,solvent=toluene) pop=hirshfeld empiricaldisper
 sion=gd3bj
 ----------------------------------------------------------------------

 -----------------------
 tmpdir/M3_conf_0_53.gjf
 -----------------------
 Symbolic Z-matrix:
 Charge =  0 Multiplicity = 1

                         Standard orientation:
 ---------------------------------------------------------------------
 Center     Atomic      Atomic             Coordinates (Angstroms)
 Number     Number       Type             X           Y           Z
 ---------------------------------------------------------------------
      1          6           0        1.282500   -0.261324    0.002904
      2          6           0        0.008787    0.578704   -0.016505
      3          6           0       -1.279647   -0.265325   -0.008371
      4          1           0        1.280073   -0.972242   -0.844075
      5          1           0        2.158676    0.399171   -0.037820
      6          1           0        1.350837   -0.820766    0.949173
      7          1           0       -0.032503    1.260468    0.843201
      8          1           0        0.018500    1.215789   -0.909133
      9          1           0       -1.289275   -1.101979   -0.750646
     10          1           0       -2.188445    0.448229   -0.092291
     11          1           0       -1.367704   -0.741002    0.973418
 ---------------------------------------------------------------------

 SCF Done:  E(RB3LYP) =  -119.128739642     A.U. after   10 cycles

 The electronic state is 1-A.
 Alpha  occ. eigenvalues --  -10.17099 -10.16943 -10.16497  -0.78049  -0.67770
 Alpha  occ. eigenvalues --   -0.58142  -0.45721  -0.43327  -0.40222  -0.37964
 Alpha  occ. eigenvalues --   -0.34154  -0.33453  -0.32599
 Alpha virt. eigenvalues --    0.04464   0.08490   0.08741   0.08963   0.11692
 Alpha virt. eigenvalues --    0.13458   0.13812   0.14907   0.19003   0.23720
 Alpha virt. eigenvalues --    0.37363   0.38756   0.40029   0.40617   0.41252

 Mulliken charges:
               1
     1  C   -0.206704
     2  C   -0.250216
     3  C   -0.236432
     4  H    0.088186
     5  H    0.087125
     6  H    0.081779
     7  H    0.086082
     8  H    0.085803
     9  H    0.090862
    10  H    0.094277
    11  H    0.079238
 Sum of Mulliken charges =  -0.00000

 Dipole moment (field-independent basis, Debye):
    X=              0.0688    Y=              0.0857    Z=              0.0876  Tot=              0.1405
 Quadrupole moment (field-independent basis, Debye-Ang):
   XX=            -22.9771   YY=            -22.0665   ZZ=            -21.8328
   XY=              0.0170   XZ=             -0.0853   YZ=              0.2107

 Normal termination of Gaussian 16 at Fri Sep 22 16:33:03 2023.
