 Gaussian 16, Revision A.03,
 Gaussian 16:  ES64L-G16RevA.03 25-Dec-2016

 ----------------------------------------------------------------------
 #p b3lyp/gen scrf=(cpcm,solvent=toluene) pop=hirshfeld empiricaldisper
 sion=gd3bj
 ----------------------------------------------------------------------

 ------------------------
 tmpdir/M3_conf_0_175.gjf
 ------------------------
 Symbolic Z-matrix:
 Charge =  0 Multiplicity = 1

                         Standard orientation:
 ---------------------------------------------------------------------
 Center     Atomic      Atomic             Coordinates (Angstroms)
 Number     Number       Type             X           Y           Z
 ---------------------------------------------------------------------
      1          6           0       -0.304682   -0.223451   -0.022472
      2          6           0       -1.741941   -0.472419    0.088795
      3          6           0        0.738323   -1.151204   -0.050467
      4          6           0        0.280942    1.074779    0.006496
      5          7           0        1.926287   -0.443482   -0.021314
      6          6           0        1.646486    0.928897    0.021500
      7          1           0       -0.258911    2.013794    0.034474
      8          1           0       -1.973744   -1.524238    0.349678
      9          8           0       -2.604118    0.380056   -0.066006
     10          1           0        0.647483   -2.205463   -0.195086
     11          1           0        2.836106   -0.879689    0.195419
     12          1           0        2.383230    1.719907    0.029653
 ---------------------------------------------------------------------

 SCF Done:  E(RB3LYP) =  -323.463959159     A.U. after   13 cycles

 The electronic state is 1-A.
 Alpha  occ. eigenvalues --  -19.11435 -14.38758 -10.26424 -10.22711 -10.21656
 Alpha  occ. eigenvalues --  -10.17995 -10.17632  -1.04246  -0.99384  -0.80329
 Alpha  occ. eigenvalues --   -0.74976  -0.65819  -0.60228  -0.57258  -0.53524
 Alpha  occ. eigenvalues --   -0.47962  -0.45183  -0.43975  -0.43000  -0.41719
 Alpha  occ. eigenvalues --   -0.39628  -0.38055  -0.27035  -0.26044  -0.24203
 Alpha virt. eigenvalues --   -0.05047   0.00967   0.03723   0.06840   0.08048
 Alpha virt. eigenvalues --    0.08901   0.10576   0.11775   0.18450   0.19161
 Alpha virt. eigenvalues --    0.22156   0.25166   0.29340   0.31356   0.34497

 Mulliken charges:
               1
     1  C   -0.359197
     2  C    0.360748
     3  C    0.216563
     4  C   -0.081614
     5  N   -0.390288
     6  C    0.159350
     7  H    0.047538
     8  H    0.042701
     9  O   -0.385185
    10  H    0.084046
    11  H    0.212538
    12  H    0.092801
 Sum of Mulliken charges =  -0.00000

 Dipole moment (field-independent basis, Debye):
    X=              5.7598    Y=             -2.4812    Z=              0.5991  Tot=              6.3001
 Quadrupole moment (field-independent basis, Debye-Ang):
   XX=            -41.1907   YY=            -34.8069   ZZ=            -43.7446
   XY=              1.8448   XZ=              0.2530   YZ=              0.0926

 Normal termination of Gaussian 16 at Fri Sep 22 16:35:36 2023.
