 Gaussian 16, Revision A.03,
 Gaussian 16:  ES64L-G16RevA.03 25-Dec-2016

 ----------------------------------------------------------------------
 #p b3lyp/gen scrf=(cpcm,solvent=toluene) pop=hirshfeld empiricaldisper
 sion=gd3bj
 ----------------------------------------------------------------------

 ------------------------
 tmpdir/M3_conf_0_246.gjf
 ------------------------
 Symbolic Z-matrix:
 Charge =  0 Multiplicity = 1

                         Standard orientation:
 ---------------------------------------------------------------------
 Center     Atomic      Atomic             Coordinates (Angstroms)
 Number     Number       Type             X           Y           Z
 ---------------------------------------------------------------------
      1          6           0       -0.254467    0.424196    0.000661
      2          6           0        1.139332   -0.144091    0.000279
      3          1           0        1.695487    0.206136   -0.882153
      4          8           0       -1.192709   -0.294391   -0.000008
      5          1           0       -0.299285    1.512475    0.000371
      6          1           0        1.702135    0.195454    0.882177
      7          1           0        1.134142   -1.239564   -0.005967
 ---------------------------------------------------------------------

 SCF Done:  E(RB3LYP) =  -153.812183584     A.U. after   10 cycles

 The electronic state is 1-A.
 Alpha  occ. eigenvalues --  -19.12856 -10.27048 -10.18033  -1.07768  -0.75189
 Alpha  occ. eigenvalues --   -0.59150  -0.48894  -0.44958  -0.44859  -0.39845
 Alpha  occ. eigenvalues --   -0.37783  -0.26592
 Alpha virt. eigenvalues --   -0.02702   0.05724   0.08230   0.10910   0.11838
 Alpha virt. eigenvalues --    0.20171   0.23568   0.41391   0.42098   0.44189
 Alpha virt. eigenvalues --    0.46074   0.54788   0.58462   0.61145   0.64607

 Mulliken charges:
               1
     1  C    0.185074
     2  C   -0.243562
     3  H    0.116093
     4  O   -0.332625
     5  H    0.054307
     6  H    0.116730
     7  H    0.103982
 Sum of Mulliken charges =  -0.00000

 Dipole moment (field-independent basis, Debye):
    X=              2.5502    Y=              1.4604    Z=              0.0009  Tot=              2.9388
 Quadrupole moment (field-independent basis, Debye-Ang):
   XX=            -21.2211   YY=            -17.9832   ZZ=            -17.8988
   XY=             -0.9918   XZ=              0.0060   YZ=             -0.0018

 Normal termination of Gaussian 16 at Fri Sep 22 16:36:22 2023.
