 Gaussian 16, Revision A.03,
 Gaussian 16:  ES64L-G16RevA.03 25-Dec-2016

 ----------------------------------------------------------------------
 #p b3lyp/gen scrf=(cpcm,solvent=toluene) pop=hirshfeld empiricaldisper
 sion=gd3bj
 ----------------------------------------------------------------------

 ------------------------
 tmpdir/M3_conf_0_174.gjf
 ------------------------
 Symbolic Z-matrix:
 Charge =  0 Multiplicity = 1

                         Standard orientation:
 ---------------------------------------------------------------------
 Center     Atomic      Atomic             Coordinates (Angstroms)
 Number     Number       Type             X           Y           Z
 ---------------------------------------------------------------------
      1          6           0       -0.658653    0.030097   -0.008383
      2          6           0       -2.151207   -0.009353    0.010869
      3          7           0        0.185769   -1.088477    0.006645
      4          6           0        0.136259    1.150037    0.000703
      5          6           0        1.502934   -0.666570    0.012311
      6          6           0        1.497407    0.729540   -0.002432
      7          1           0       -0.210663    2.176433   -0.010596
      8          1           0       -2.522428    1.010925   -0.132946
      9          1           0       -2.581005   -0.632093   -0.782168
     10          1           0       -2.527540   -0.374294    0.974856
     11          1           0       -0.094089   -2.057113   -0.213470
     12          1           0        2.356083   -1.297555    0.133253
     13          1           0        2.318820    1.390530   -0.093853
 ---------------------------------------------------------------------

 SCF Done:  E(RB3LYP) =  -249.463493340     A.U. after   12 cycles

 The electronic state is 1-A.
 Alpha  occ. eigenvalues --  -14.35945 -10.20045 -10.19397 -10.17939 -10.15529
 Alpha  occ. eigenvalues --  -10.15325  -0.96994  -0.77519  -0.75984  -0.67225
 Alpha  occ. eigenvalues --   -0.58545  -0.56574  -0.51572  -0.44097  -0.43074
 Alpha  occ. eigenvalues --   -0.42611  -0.39628  -0.38601  -0.38245  -0.35877
 Alpha  occ. eigenvalues --   -0.24878  -0.20920
 Alpha virt. eigenvalues --    0.02156   0.04263   0.07106   0.07132   0.08674
 Alpha virt. eigenvalues --    0.10076   0.11366   0.12781   0.13753   0.19301
 Alpha virt. eigenvalues --    0.21385   0.23393   0.29342   0.32007   0.37185

 Mulliken charges:
               1
     1  C   -0.029999
     2  C   -0.033249
     3  N   -0.426149
     4  C   -0.144487
     5  C    0.117373
     6  C   -0.128813
     7  H    0.035575
     8  H    0.100111
     9  H    0.100059
    10  H    0.107625
    11  H    0.195066
    12  H    0.069226
    13  H    0.037661
 Sum of Mulliken charges =  -0.00000

 Dipole moment (field-independent basis, Debye):
    X=             -1.1093    Y=             -1.8886    Z=             -0.3076  Tot=              2.2118
 Quadrupole moment (field-independent basis, Debye-Ang):
   XX=            -33.8921   YY=            -30.7633   ZZ=            -40.6058
   XY=             -0.4458   XZ=              0.1720   YZ=              0.4927

 Normal termination of Gaussian 16 at Fri Sep 22 16:35:16 2023.
