 Gaussian 16, Revision A.03,
 Gaussian 16:  ES64L-G16RevA.03 25-Dec-2016

 ----------------------------------------------------------------------
 #p b3lyp/gen scrf=(cpcm,solvent=toluene) pop=hirshfeld empiricaldisper
 sion=gd3bj
 ----------------------------------------------------------------------

 ------------------------
 tmpdir/M3_conf_0_106.gjf
 ------------------------
 Symbolic Z-matrix:
 Charge =  0 Multiplicity = 1

                         Standard orientation:
 ---------------------------------------------------------------------
 Center     Atomic      Atomic             Coordinates (Angstroms)
 Number     Number       Type             X           Y           Z
 ---------------------------------------------------------------------
      1          6           0       -0.005754    0.003009   -0.005634
      2          1           0        0.575586   -0.541805   -0.758983
      3          1           0       -1.085857    0.067020   -0.266055
      4          1           0        0.442187    0.994968    0.115198
      5          1           0        0.102611   -0.538238    0.943645
 ---------------------------------------------------------------------

 SCF Done:  E(RB3LYP) =  -40.5135664674     A.U. after    7 cycles

 The electronic state is 1-A.
 Alpha  occ. eigenvalues --  -10.16442  -0.69253  -0.39715  -0.39128  -0.38782
 Alpha virt. eigenvalues --    0.05623   0.12336   0.12559   0.12589   0.37078
 Alpha virt. eigenvalues --    0.37401   0.38539   0.63078   0.63704   0.63803
 Alpha virt. eigenvalues --    0.67433   0.96102   1.28645   1.29303   1.83992

 Mulliken charges:
               1
     1  C   -0.355520
     2  H    0.087775
     3  H    0.095316
     4  H    0.087784
     5  H    0.084644
 Sum of Mulliken charges =   0.00000

 Dipole moment (field-independent basis, Debye):
    X=              0.0397    Y=             -0.0121    Z=              0.0273  Tot=              0.0496
 Quadrupole moment (field-independent basis, Debye-Ang):
   XX=             -8.3129   YY=             -8.5110   ZZ=             -8.5677
   XY=              0.0037   XZ=             -0.0056   YZ=              0.0091

 Normal termination of Gaussian 16 at Fri Sep 22 16:33:40 2023.
