 Gaussian 16, Revision A.03,
 Gaussian 16:  ES64L-G16RevA.03 25-Dec-2016

 ----------------------------------------------------------------------
 #p b3lyp/gen scrf=(cpcm,solvent=toluene) pop=hirshfeld empiricaldisper
 sion=gd3bj
 ----------------------------------------------------------------------

 ------------------------
 tmpdir/M3_conf_0_109.gjf
 ------------------------
 Symbolic Z-matrix:
 Charge =  0 Multiplicity = 1

                         Standard orientation:
 ---------------------------------------------------------------------
 Center     Atomic      Atomic             Coordinates (Angstroms)
 Number     Number       Type             X           Y           Z
 ---------------------------------------------------------------------
      1          6           0       -0.767962    0.001779   -0.000526
      2          6           0        0.769318   -0.003957   -0.005970
      3          1           0        1.169015   -1.021717    0.078668
      4          1           0       -1.211828   -0.627262   -0.831364
      5          1           0       -1.131582    1.046856   -0.114653
      6          1           0       -1.140451   -0.409010    0.964846
      7          1           0        1.173782    0.453733   -0.914910
      8          1           0        1.132930    0.570464    0.856388
 ---------------------------------------------------------------------

 SCF Done:  E(RB3LYP) =  -79.8210588444     A.U. after    9 cycles

 The electronic state is 1-A.
 Alpha  occ. eigenvalues --  -10.17236 -10.16602  -0.75102  -0.61160  -0.43597
 Alpha  occ. eigenvalues --   -0.43266  -0.36645  -0.34555  -0.34221
 Alpha virt. eigenvalues --    0.04907   0.09061   0.10404   0.10521   0.13597
 Alpha virt. eigenvalues --    0.13731   0.21206   0.37429   0.38842   0.39306
 Alpha virt. eigenvalues --    0.46853   0.46980   0.58007   0.63044   0.63825

 Mulliken charges:
               1
     1  C   -0.278557
     2  C   -0.253318
     3  H    0.087078
     4  H    0.091703
     5  H    0.090184
     6  H    0.089444
     7  H    0.087701
     8  H    0.085763
 Sum of Mulliken charges =   0.00000

 Dipole moment (field-independent basis, Debye):
    X=              0.0389    Y=              0.0158    Z=              0.0304  Tot=              0.0518
 Quadrupole moment (field-independent basis, Debye-Ang):
   XX=            -15.9893   YY=            -15.0203   ZZ=            -15.0642
   XY=              0.0276   XZ=              0.0047   YZ=             -0.0282

 Normal termination of Gaussian 16 at Fri Sep 22 16:33:49 2023.
