 Gaussian 16, Revision A.03,
 Gaussian 16:  ES64L-G16RevA.03 25-Dec-2016

 ----------------------------------------------------------------------
 #p b3lyp/gen scrf=(cpcm,solvent=toluene) pop=hirshfeld empiricaldisper
 sion=gd3bj
 ----------------------------------------------------------------------

 ------------------------
 tmpdir/M3_conf_0_151.gjf
 ------------------------
 Symbolic Z-matrix:
 Charge =  0 Multiplicity = 1

                         Standard orientation:
 ---------------------------------------------------------------------
 Center     Atomic      Atomic             Coordinates (Angstroms)
 Number     Number       Type             X           Y           Z
 ---------------------------------------------------------------------
      1          6           0       -0.766401   -0.006210   -0.002581
      2          6           0        0.761454   -0.013769    0.006359
      3          1           0        1.193024   -0.745670    0.695487
      4          1           0       -1.013190    0.999330   -0.386027
      5          1           0       -1.190892   -0.797745   -0.629272
      6          1           0       -1.167904   -0.131076    1.009660
      7          1           0        1.069241    1.033512    0.287131
      8          1           0        1.139400   -0.238478   -0.999645
 ---------------------------------------------------------------------

 SCF Done:  E(RB3LYP) =  -79.8171272035     A.U. after    9 cycles

 The electronic state is 1-A.
 Alpha  occ. eigenvalues --  -10.16661 -10.16478  -0.75528  -0.60919  -0.44429
 Alpha  occ. eigenvalues --   -0.43571  -0.36126  -0.34378  -0.34236
 Alpha virt. eigenvalues --    0.04815   0.09370   0.09683   0.10073   0.14758
 Alpha virt. eigenvalues --    0.14873   0.21256   0.36899   0.38732   0.40548
 Alpha virt. eigenvalues --    0.46970   0.48136   0.58802   0.62527   0.64201

 Mulliken charges:
               1
     1  C   -0.255772
     2  C   -0.269502
     3  H    0.088386
     4  H    0.087165
     5  H    0.088766
     6  H    0.086691
     7  H    0.088138
     8  H    0.086129
 Sum of Mulliken charges =  -0.00000

 Dipole moment (field-independent basis, Debye):
    X=             -0.0072    Y=             -0.0079    Z=             -0.0124  Tot=              0.0164
 Quadrupole moment (field-independent basis, Debye-Ang):
   XX=            -16.2870   YY=            -14.8150   ZZ=            -15.0454
   XY=              0.0379   XZ=             -0.0893   YZ=             -0.0164

 Normal termination of Gaussian 16 at Fri Sep 22 16:34:37 2023.
