 Gaussian 16, Revision A.03,
 Gaussian 16:  ES64L-G16RevA.03 25-Dec-2016

 ----------------------------------------------------------------------
 #p b3lyp/gen scrf=(cpcm,solvent=toluene) pop=hirshfeld empiricaldisper
 sion=gd3bj
 ----------------------------------------------------------------------

 -----------------------
 tmpdir/M3_conf_0_63.gjf
 -----------------------
 Symbolic Z-matrix:
 Charge =  0 Multiplicity = 1

                         Standard orientation:
 ---------------------------------------------------------------------
 Center     Atomic      Atomic             Coordinates (Angstroms)
 Number     Number       Type             X           Y           Z
 ---------------------------------------------------------------------
      1          6           0        0.763774    0.001925   -0.002177
      2          6           0       -0.763922    0.002713    0.001308
      3          1           0       -1.155497   -0.863681    0.550323
      4          1           0        1.141079    0.868843   -0.573352
      5          1           0        1.157760   -0.925205   -0.438999
      6          1           0        1.131463    0.044758    1.035152
      7          1           0       -1.138668    0.932890    0.463947
      8          1           0       -1.135246   -0.085433   -1.031856
 ---------------------------------------------------------------------

 SCF Done:  E(RB3LYP) =  -79.8216365281     A.U. after    9 cycles

 The electronic state is 1-A.
 Alpha  occ. eigenvalues --  -10.16604 -10.16585  -0.75419  -0.61153  -0.43846
 Alpha  occ. eigenvalues --   -0.43627  -0.36522  -0.34601  -0.34270
 Alpha virt. eigenvalues --    0.04968   0.09325   0.10543   0.10637   0.13629
 Alpha virt. eigenvalues --    0.13773   0.21437   0.37152   0.39503   0.39655
 Alpha virt. eigenvalues --    0.45915   0.46936   0.58873   0.64194   0.64231

 Mulliken charges:
               1
     1  C   -0.260993
     2  C   -0.260672
     3  H    0.085448
     4  H    0.089614
     5  H    0.085695
     6  H    0.085494
     7  H    0.089734
     8  H    0.085681
 Sum of Mulliken charges =  -0.00000

 Dipole moment (field-independent basis, Debye):
    X=             -0.0001    Y=             -0.0319    Z=              0.0036  Tot=              0.0321
 Quadrupole moment (field-independent basis, Debye-Ang):
   XX=            -16.0939   YY=            -14.9155   ZZ=            -15.0253
   XY=             -0.0001   XZ=             -0.0254   YZ=             -0.0006

 Normal termination of Gaussian 16 at Fri Sep 22 16:33:01 2023.
