 Gaussian 16, Revision A.03,
 Gaussian 16:  ES64L-G16RevA.03 25-Dec-2016

 ----------------------------------------------------------------------
 #p b3lyp/gen scrf=(cpcm,solvent=toluene) pop=hirshfeld empiricaldisper
 sion=gd3bj
 ----------------------------------------------------------------------

 ------------------------
 tmpdir/M3_conf_0_222.gjf
 ------------------------
 Symbolic Z-matrix:
 Charge =  0 Multiplicity = 1

                         Standard orientation:
 ---------------------------------------------------------------------
 Center     Atomic      Atomic             Coordinates (Angstroms)
 Number     Number       Type             X           Y           Z
 ---------------------------------------------------------------------
      1          6           0       -0.517261   -0.004921   -0.002971
      2          1           0       -1.039663    0.949763    0.005624
      3          1           0       -1.173054   -0.861832    0.006249
      4          8           0        0.664536   -0.007301    0.000744
 ---------------------------------------------------------------------

 SCF Done:  E(RB3LYP) =  -114.485748654     A.U. after    9 cycles

 The electronic state is 1-A.
 Alpha  occ. eigenvalues --  -19.14158 -10.27250  -1.08366  -0.64280  -0.50563
 Alpha  occ. eigenvalues --   -0.46371  -0.41536  -0.27308
 Alpha virt. eigenvalues --   -0.04503   0.06266   0.12039   0.18310   0.40060
 Alpha virt. eigenvalues --    0.49267   0.50784   0.58357   0.65595   0.72720
 Alpha virt. eigenvalues --    0.77068   0.87504   0.97604   1.33080   1.50570

 Mulliken charges:
               1
     1  C    0.198675
     2  H    0.059514
     3  H    0.072263
     4  O   -0.330452
 Sum of Mulliken charges =  -0.00000

 Dipole moment (field-independent basis, Debye):
    X=             -2.5738    Y=             -0.0354    Z=              0.0001  Tot=              2.5740
 Quadrupole moment (field-independent basis, Debye-Ang):
   XX=            -12.0528   YY=            -11.7309   ZZ=            -11.4725
   XY=              0.1611   XZ=             -0.0063   YZ=              0.0009

 Normal termination of Gaussian 16 at Fri Sep 22 16:36:11 2023.
