 Gaussian 16, Revision A.03,
 Gaussian 16:  ES64L-G16RevA.03 25-Dec-2016

 ----------------------------------------------------------------------
 #p b3lyp/gen scrf=(cpcm,solvent=toluene) pop=hirshfeld empiricaldisper
 sion=gd3bj
 ----------------------------------------------------------------------

 ----------------------
 tmpdir/M3_conf_0_0.gjf
 ----------------------
 Symbolic Z-matrix:
 Charge =  0 Multiplicity = 1

                         Standard orientation:
 ---------------------------------------------------------------------
 Center     Atomic      Atomic             Coordinates (Angstroms)
 Number     Number       Type             X           Y           Z
 ---------------------------------------------------------------------
      1          6           0       -0.528765    0.194527   -0.036184
      2          6           0       -1.990669    0.479592   -0.008222
      3          6           0        0.365159    1.300531   -0.018468
      4          6           0       -0.011662   -1.114735   -0.018046
      5          6           0        1.746487    1.071046    0.001086
      6          6           0        1.355314   -1.331742    0.011040
      7          1           0       -0.693599   -1.959678   -0.016296
      8          6           0        2.225928   -0.234644    0.015380
      9          1           0        2.444908    1.901055    0.010228
     10          1           0        1.748269   -2.345017    0.031810
     11          1           0        3.301844   -0.399122    0.035342
     12          1           0       -2.316043    1.493220    0.203382
     13          8           0       -2.919293   -0.396512    0.009416
     14          1           0       -0.101788    2.294178   -0.019310
 ---------------------------------------------------------------------

 SCF Done:  E(RB3LYP) =  -345.535564307     A.U. after   13 cycles

 The electronic state is 1-A.
 Alpha  occ. eigenvalues --  -19.12629 -10.27769 -10.21118 -10.20934 -10.20504
 Alpha  occ. eigenvalues --  -10.20306 -10.20217 -10.20002  -1.02492  -0.88263
 Alpha  occ. eigenvalues --   -0.78535  -0.77306  -0.66719  -0.63085  -0.58862
 Alpha  occ. eigenvalues --   -0.53487  -0.49603  -0.47334  -0.45363  -0.44573
 Alpha  occ. eigenvalues --   -0.43123  -0.40968  -0.38068  -0.37048  -0.36448
 Alpha  occ. eigenvalues --   -0.28069  -0.27807  -0.26974
 Alpha virt. eigenvalues --   -0.08693  -0.03321   0.01272   0.04285   0.06331
 Alpha virt. eigenvalues --    0.08402   0.09805   0.11366   0.12906   0.13530
 Alpha virt. eigenvalues --    0.21398   0.21730   0.25130   0.25901   0.26457

 Mulliken charges:
               1
     1  C   -0.346390
     2  C    0.380598
     3  C    0.018444
     4  C    0.058540
     5  C   -0.035795
     6  C   -0.045360
     7  H    0.060019
     8  C   -0.043715
     9  H    0.076994
    10  H    0.078627
    11  H    0.078343
    12  H    0.062820
    13  O   -0.412188
    14  H    0.069062
 Sum of Mulliken charges =  -0.00000

 Dipole moment (field-independent basis, Debye):
    X=              4.0606    Y=              1.6253    Z=              0.1053  Tot=              4.3751
 Quadrupole moment (field-independent basis, Debye-Ang):
   XX=            -53.0779   YY=            -40.2995   ZZ=            -50.0453
   XY=             -4.9364   XZ=             -0.0111   YZ=              0.0533

 Normal termination of Gaussian 16 at Fri Sep 22 16:32:46 2023.
