 Gaussian 16, Revision A.03,
 Gaussian 16:  ES64L-G16RevA.03 25-Dec-2016

 ----------------------------------------------------------------------
 #p b3lyp/gen scrf=(cpcm,solvent=toluene) pop=hirshfeld empiricaldisper
 sion=gd3bj
 ----------------------------------------------------------------------

 ------------------------
 tmpdir/M3_conf_0_113.gjf
 ------------------------
 Symbolic Z-matrix:
 Charge =  0 Multiplicity = 1

                         Standard orientation:
 ---------------------------------------------------------------------
 Center     Atomic      Atomic             Coordinates (Angstroms)
 Number     Number       Type             X           Y           Z
 ---------------------------------------------------------------------
      1          1           0        0.571441   -0.477033   -0.803562
      2          6           0       -0.006359    0.003695   -0.004939
      3          1           0        0.136875   -0.600688    0.900613
      4          1           0       -1.092606    0.060034   -0.240393
      5          1           0        0.422444    0.995517    0.172979
 ---------------------------------------------------------------------

 SCF Done:  E(RB3LYP) =  -40.5135424351     A.U. after    7 cycles

 The electronic state is 1-A.
 Alpha  occ. eigenvalues --  -10.16444  -0.69253  -0.39710  -0.39166  -0.38745
 Alpha virt. eigenvalues --    0.05622   0.12336   0.12554   0.12590   0.37029
 Alpha virt. eigenvalues --    0.37455   0.38533   0.63083   0.63669   0.63817
 Alpha virt. eigenvalues --    0.67435   0.96106   1.28632   1.29315   1.83990

 Mulliken charges:
               1
     1  H    0.087428
     2  C   -0.355568
     3  H    0.084636
     4  H    0.095539
     5  H    0.087965
 Sum of Mulliken charges =   0.00000

 Dipole moment (field-independent basis, Debye):
    X=              0.0421    Y=             -0.0148    Z=              0.0242  Tot=              0.0507
 Quadrupole moment (field-independent basis, Debye-Ang):
   XX=             -8.3113   YY=             -8.5037   ZZ=             -8.5772
   XY=              0.0046   XZ=             -0.0044   YZ=              0.0092

 Normal termination of Gaussian 16 at Fri Sep 22 16:33:32 2023.
