 Gaussian 16, Revision A.03,
 Gaussian 16:  ES64L-G16RevA.03 25-Dec-2016

 ----------------------------------------------------------------------
 #p b3lyp/gen scrf=(cpcm,solvent=toluene) pop=hirshfeld empiricaldisper
 sion=gd3bj
 ----------------------------------------------------------------------

 -----------------------
 tmpdir/M3_conf_0_32.gjf
 -----------------------
 Symbolic Z-matrix:
 Charge =  0 Multiplicity = 1

                         Standard orientation:
 ---------------------------------------------------------------------
 Center     Atomic      Atomic             Coordinates (Angstroms)
 Number     Number       Type             X           Y           Z
 ---------------------------------------------------------------------
      1          7           0        1.197741   -0.243588   -0.011764
      2          6           0        0.037411    0.633652   -0.045073
      3          6           0       -1.206421   -0.273337    0.042782
      4          1           0        1.830163   -0.329871    0.683066
      5          1           0        1.120895   -1.063886   -0.625732
      6          1           0        0.088885    1.279663    0.831605
      7          1           0        0.044856    1.242065   -0.983594
      8          1           0       -2.158165    0.246894   -0.165177
      9          1           0       -1.085603   -1.093540   -0.681084
     10          1           0       -1.211162   -0.738096    1.037007
 ---------------------------------------------------------------------

 SCF Done:  E(RB3LYP) =  -135.145418934     A.U. after   10 cycles

 The electronic state is 1-A.
 Alpha  occ. eigenvalues --  -14.27434 -10.19969 -10.16271  -0.87386  -0.72394
 Alpha  occ. eigenvalues --   -0.60964  -0.50827  -0.45064  -0.41887  -0.38502
 Alpha  occ. eigenvalues --   -0.36556  -0.34747  -0.21363
 Alpha virt. eigenvalues --    0.04953   0.08163   0.08558   0.09643   0.12180
 Alpha virt. eigenvalues --    0.14132   0.15865   0.20724   0.22393   0.38379
 Alpha virt. eigenvalues --    0.40319   0.45123   0.46936   0.51361   0.56999

 Mulliken charges:
               1
     1  N   -0.479531
     2  C    0.002269
     3  C   -0.221951
     4  H    0.131860
     5  H    0.160553
     6  H    0.090061
     7  H    0.085825
     8  H    0.078443
     9  H    0.075481
    10  H    0.076989
 Sum of Mulliken charges =   0.00000

 Dipole moment (field-independent basis, Debye):
    X=             -0.0821    Y=             -0.4466    Z=              0.4020  Tot=              0.6065
 Quadrupole moment (field-independent basis, Debye-Ang):
   XX=            -21.8721   YY=            -20.3450   ZZ=            -20.2071
   XY=             -1.5627   XZ=              1.6080   YZ=              1.0053

 Normal termination of Gaussian 16 at Fri Sep 22 16:33:14 2023.
