 Gaussian 16, Revision A.03,
 Gaussian 16:  ES64L-G16RevA.03 25-Dec-2016

 ----------------------------------------------------------------------
 #p b3lyp/gen scrf=(cpcm,solvent=toluene) pop=hirshfeld empiricaldisper
 sion=gd3bj
 ----------------------------------------------------------------------

 -----------------------
 tmpdir/M3_conf_0_29.gjf
 -----------------------
 Symbolic Z-matrix:
 Charge =  0 Multiplicity = 1

                         Standard orientation:
 ---------------------------------------------------------------------
 Center     Atomic      Atomic             Coordinates (Angstroms)
 Number     Number       Type             X           Y           Z
 ---------------------------------------------------------------------
      1          6           0        0.771040    0.014511    0.005295
      2          6           0       -0.770149    0.008826    0.005737
      3          1           0        1.113357   -0.936459   -0.529992
      4          1           0        1.138841   -0.035310    1.030368
      5          1           0        1.180041    0.915296   -0.516575
      6          1           0       -1.223488    0.964878    0.322186
      7          1           0       -1.113338   -0.225725   -1.013347
      8          1           0       -1.100762   -0.822703    0.641163
 ---------------------------------------------------------------------

 SCF Done:  E(RB3LYP) =  -79.8187356857     A.U. after    9 cycles

 The electronic state is 1-A.
 Alpha  occ. eigenvalues --  -10.17172 -10.16676  -0.75112  -0.60946  -0.43814
 Alpha  occ. eigenvalues --   -0.43388  -0.36179  -0.34710  -0.34097
 Alpha virt. eigenvalues --    0.04789   0.09158   0.10037   0.10430   0.13837
 Alpha virt. eigenvalues --    0.13980   0.20888   0.37354   0.38978   0.39766
 Alpha virt. eigenvalues --    0.45572   0.48227   0.57826   0.62170   0.63822

 Mulliken charges:
               1
     1  C   -0.275480
     2  C   -0.259946
     3  H    0.089165
     4  H    0.088519
     5  H    0.094194
     6  H    0.093406
     7  H    0.084377
     8  H    0.085766
 Sum of Mulliken charges =  -0.00000

 Dipole moment (field-independent basis, Debye):
    X=             -0.0293    Y=             -0.0407    Z=              0.0094  Tot=              0.0510
 Quadrupole moment (field-independent basis, Debye-Ang):
   XX=            -16.2016   YY=            -14.8709   ZZ=            -15.1161
   XY=             -0.0252   XZ=              0.0269   YZ=             -0.0392

 Normal termination of Gaussian 16 at Fri Sep 22 16:32:59 2023.
