 Gaussian 16, Revision A.03,
 Gaussian 16:  ES64L-G16RevA.03 25-Dec-2016

 ----------------------------------------------------------------------
 #p b3lyp/gen scrf=(cpcm,solvent=toluene) pop=hirshfeld empiricaldisper
 sion=gd3bj
 ----------------------------------------------------------------------

 ------------------------
 tmpdir/M3_conf_0_140.gjf
 ------------------------
 Symbolic Z-matrix:
 Charge =  0 Multiplicity = 1

                         Standard orientation:
 ---------------------------------------------------------------------
 Center     Atomic      Atomic             Coordinates (Angstroms)
 Number     Number       Type             X           Y           Z
 ---------------------------------------------------------------------
      1          6           0       -1.178362   -0.280442    0.031100
      2          6           0        0.025195    0.653844   -0.038156
      3          7           0        1.169091   -0.277397    0.006263
      4          1           0       -0.842570   -1.170231   -0.533486
      5          1           0       -2.076740    0.178379   -0.395349
      6          1           0       -1.397009   -0.534296    1.074744
      7          1           0        0.039097    1.219517   -0.978891
      8          1           0        0.074074    1.346067    0.806285
      9          1           0        2.026736   -0.090441    0.323654
     10          1           0        0.911779   -1.247624   -0.298460
 ---------------------------------------------------------------------

 SCF Done:  E(RB3LYP) =  -135.135479622     A.U. after   10 cycles

 The electronic state is 1-A.
 Alpha  occ. eigenvalues --  -14.27246 -10.19595 -10.16661  -0.86893  -0.72764
 Alpha  occ. eigenvalues --   -0.60790  -0.51376  -0.45157  -0.41969  -0.37865
 Alpha  occ. eigenvalues --   -0.36564  -0.35287  -0.21077
 Alpha virt. eigenvalues --    0.05150   0.07477   0.08792   0.09711   0.11990
 Alpha virt. eigenvalues --    0.14752   0.16431   0.21123   0.22340   0.37912
 Alpha virt. eigenvalues --    0.40695   0.45875   0.46333   0.54026   0.54612

 Mulliken charges:
               1
     1  C   -0.227660
     2  C    0.019630
     3  N   -0.501519
     4  H    0.079346
     5  H    0.081004
     6  H    0.091445
     7  H    0.075627
     8  H    0.087064
     9  H    0.123683
    10  H    0.171380
 Sum of Mulliken charges =  -0.00000

 Dipole moment (field-independent basis, Debye):
    X=             -0.0467    Y=             -0.0894    Z=              0.1939  Tot=              0.2186
 Quadrupole moment (field-independent basis, Debye-Ang):
   XX=            -20.1775   YY=            -19.8558   ZZ=            -21.7189
   XY=             -0.4880   XZ=              0.7839   YZ=              0.9070

 Normal termination of Gaussian 16 at Fri Sep 22 16:36:46 2023.
