 Gaussian 16, Revision A.03,
 Gaussian 16:  ES64L-G16RevA.03 25-Dec-2016

 ----------------------------------------------------------------------
 #p b3lyp/gen scrf=(cpcm,solvent=toluene) pop=hirshfeld empiricaldisper
 sion=gd3bj
 ----------------------------------------------------------------------

 ------------------------
 tmpdir/M3_conf_0_198.gjf
 ------------------------
 Symbolic Z-matrix:
 Charge =  0 Multiplicity = 1

                         Standard orientation:
 ---------------------------------------------------------------------
 Center     Atomic      Atomic             Coordinates (Angstroms)
 Number     Number       Type             X           Y           Z
 ---------------------------------------------------------------------
      1          1           0        0.523733   -0.344155    0.903206
      2          6           0        0.012238    0.011304   -0.001021
      3          1           0        0.635691   -0.257560   -0.859481
      4          1           0       -1.028155   -0.549428   -0.079790
      5          1           0       -0.204699    1.083317    0.042190
 ---------------------------------------------------------------------

 SCF Done:  E(RB3LYP) =  -40.5097509338     A.U. after    8 cycles

 The electronic state is 1-A.
 Alpha  occ. eigenvalues --  -10.17124  -0.68821  -0.40202  -0.39108  -0.37585
 Alpha virt. eigenvalues --    0.05286   0.11267   0.12529   0.12605   0.37086
 Alpha virt. eigenvalues --    0.37437   0.38806   0.59211   0.63596   0.64168
 Alpha virt. eigenvalues --    0.66166   0.95510   1.28812   1.30131   1.81304

 Mulliken charges:
               1
     1  H    0.091015
     2  C   -0.369248
     3  H    0.092254
     4  H    0.090928
     5  H    0.095051
 Sum of Mulliken charges =   0.00000

 Dipole moment (field-independent basis, Debye):
    X=              0.0425    Y=              0.0072    Z=              0.0097  Tot=              0.0442
 Quadrupole moment (field-independent basis, Debye-Ang):
   XX=             -8.4763   YY=             -8.4840   ZZ=             -8.5932
   XY=             -0.1238   XZ=             -0.0252   YZ=             -0.0051

 Normal termination of Gaussian 16 at Fri Sep 22 16:35:13 2023.
