 Gaussian 16, Revision A.03,
 Gaussian 16:  ES64L-G16RevA.03 25-Dec-2016

 ----------------------------------------------------------------------
 #p b3lyp/gen scrf=(cpcm,solvent=toluene) pop=hirshfeld empiricaldisper
 sion=gd3bj
 ----------------------------------------------------------------------

 ------------------------
 tmpdir/M3_frag_ref_0.gjf
 ------------------------
 Symbolic Z-matrix:
 Charge =  0 Multiplicity = 1

                         Standard orientation:
 ---------------------------------------------------------------------
 Center     Atomic      Atomic             Coordinates (Angstroms)
 Number     Number       Type             X           Y           Z
 ---------------------------------------------------------------------
      1          6           0       -2.441148   -0.716403   -0.006777
      2          6           0       -1.235876   -1.390983   -0.000420
      3          6           0       -2.431714    0.706403   -0.015996
      4          6           0        0.000639   -0.707046    0.013311
      5          1           0       -1.228261   -2.475435   -0.016875
      6          6           0       -1.245194    1.402903   -0.010537
      7          1           0       -3.373792    1.250081   -0.001396
      8          6           0        1.239420   -1.404620    0.003742
      9          6           0        0.001833    0.723878    0.015385
     10          1           0       -1.249570    2.490102   -0.034584
     11          6           0        2.427230   -0.713792   -0.012814
     12          1           0        1.229389   -2.492300    0.000467
     13          6           0        1.246695    1.404620    0.019043
     14          6           0        2.430647    0.703790   -0.004506
     15          1           0        3.371208   -1.254529   -0.036384
     16          1           0        1.248438    2.492121    0.028836
     17          1           0        3.378822    1.238011   -0.018501
     18          1           0       -3.331422   -1.300544    0.075855
 ---------------------------------------------------------------------

 SCF Done:  E(RB3LYP) =  -385.862234949     A.U. after   12 cycles

 The electronic state is 1-A.
 Alpha  occ. eigenvalues --  -10.19454 -10.19342 -10.18797 -10.18737 -10.18711
 Alpha  occ. eigenvalues --  -10.18679 -10.18671 -10.18635 -10.18599 -10.18518
 Alpha  occ. eigenvalues --   -0.88664  -0.83224  -0.78513  -0.75187  -0.73011
 Alpha  occ. eigenvalues --   -0.63490  -0.62286  -0.60568  -0.52438  -0.51986
 Alpha  occ. eigenvalues --   -0.50198  -0.45629  -0.45279  -0.42713  -0.42644
 Alpha  occ. eigenvalues --   -0.40973  -0.40304  -0.37933  -0.34958  -0.34199
 Alpha  occ. eigenvalues --   -0.33787  -0.29824  -0.25695  -0.22913
 Alpha virt. eigenvalues --   -0.05345  -0.02601   0.01221   0.04816   0.06180
 Alpha virt. eigenvalues --    0.06563   0.08133   0.09833   0.09883   0.11560
 Alpha virt. eigenvalues --    0.12949   0.15849   0.17534   0.20925   0.23996

 Mulliken charges:
               1
     1  C   -0.019075
     2  C   -0.025559
     3  C   -0.039422
     4  C   -0.140516
     5  H    0.046757
     6  C    0.000449
     7  H    0.066589
     8  C    0.002947
     9  C   -0.138762
    10  H    0.048315
    11  C   -0.044457
    12  H    0.049101
    13  C   -0.000740
    14  C   -0.042722
    15  H    0.065290
    16  H    0.048395
    17  H    0.065845
    18  H    0.057567
 Sum of Mulliken charges =  -0.00000

 Dipole moment (field-independent basis, Debye):
    X=              0.0276    Y=             -0.0430    Z=              0.0216  Tot=              0.0555
 Quadrupole moment (field-independent basis, Debye-Ang):
   XX=            -51.2925   YY=            -51.3282   ZZ=            -65.1915
   XY=              0.1303   XZ=             -0.3386   YZ=             -0.0564

 Normal termination of Gaussian 16 at Fri Sep 22 16:32:19 2023.
