 Gaussian 16, Revision A.03,
 Gaussian 16:  ES64L-G16RevA.03 25-Dec-2016

 ----------------------------------------------------------------------
 #p b3lyp/gen scrf=(cpcm,solvent=toluene) pop=hirshfeld empiricaldisper
 sion=gd3bj
 ----------------------------------------------------------------------

 ---------------------------
 tmpdir/M3_frag_conf_0_0.gjf
 ---------------------------
 Symbolic Z-matrix:
 Charge =  0 Multiplicity = 1

                         Standard orientation:
 ---------------------------------------------------------------------
 Center     Atomic      Atomic             Coordinates (Angstroms)
 Number     Number       Type             X           Y           Z
 ---------------------------------------------------------------------
      1          6           0       -2.439929   -0.715429    0.014985
      2          6           0       -1.238716   -1.393589   -0.046450
      3          6           0       -2.430091    0.706447    0.020163
      4          6           0       -0.002102   -0.708348   -0.038503
      5          1           0       -1.231535   -2.477576   -0.063366
      6          6           0       -1.245491    1.403928   -0.014589
      7          1           0       -3.372128    1.245808    0.087523
      8          6           0        1.237672   -1.404065    0.003292
      9          6           0        0.001395    0.722889   -0.027819
     10          1           0       -1.251300    2.492843   -0.001173
     11          6           0        2.428373   -0.713788    0.029865
     12          1           0        1.226701   -2.491687    0.034207
     13          6           0        1.247844    1.404457   -0.011175
     14          6           0        2.433582    0.702869    0.013615
     15          1           0        3.370839   -1.256879    0.065020
     16          1           0        1.252074    2.493694   -0.008293
     17          1           0        3.381681    1.237304    0.029979
     18          1           0       -3.331557   -1.275730    0.195810
 ---------------------------------------------------------------------

 SCF Done:  E(RB3LYP) =  -385.861555794     A.U. after   12 cycles

 The electronic state is 1-A.
 Alpha  occ. eigenvalues --  -10.19494 -10.19390 -10.18770 -10.18751 -10.18742
 Alpha  occ. eigenvalues --  -10.18707 -10.18684 -10.18661 -10.18613 -10.18551
 Alpha  occ. eigenvalues --   -0.88643  -0.83215  -0.78483  -0.75199  -0.72976
 Alpha  occ. eigenvalues --   -0.63527  -0.62234  -0.60560  -0.52377  -0.51977
 Alpha  occ. eigenvalues --   -0.50241  -0.45626  -0.45228  -0.42721  -0.42659
 Alpha  occ. eigenvalues --   -0.41029  -0.40259  -0.37906  -0.35035  -0.34206
 Alpha  occ. eigenvalues --   -0.33707  -0.29802  -0.25686  -0.22895
 Alpha virt. eigenvalues --   -0.05391  -0.02605   0.01162   0.04810   0.06164
 Alpha virt. eigenvalues --    0.06562   0.08077   0.09833   0.09888   0.11596
 Alpha virt. eigenvalues --    0.12877   0.15810   0.17429   0.20885   0.23973

 Mulliken charges:
               1
     1  C   -0.023383
     2  C   -0.017104
     3  C   -0.046638
     4  C   -0.138257
     5  H    0.047216
     6  C    0.000703
     7  H    0.066352
     8  C   -0.001172
     9  C   -0.138677
    10  H    0.049008
    11  C   -0.043798
    12  H    0.049384
    13  C   -0.002305
    14  C   -0.043231
    15  H    0.065594
    16  H    0.049468
    17  H    0.066025
    18  H    0.060814
 Sum of Mulliken charges =  -0.00000

 Dipole moment (field-independent basis, Debye):
    X=              0.0249    Y=             -0.0352    Z=              0.2441  Tot=              0.2478
 Quadrupole moment (field-independent basis, Debye-Ang):
   XX=            -51.3182   YY=            -51.3813   ZZ=            -65.1650
   XY=              0.0960   XZ=             -0.5251   YZ=             -0.1474

 Normal termination of Gaussian 16 at Fri Sep 22 16:38:20 2023.
