 Gaussian 16, Revision A.03,
 Gaussian 16:  ES64L-G16RevA.03 25-Dec-2016

 ----------------------------------------------------------------------
 #p b3lyp/gen scrf=(cpcm,solvent=toluene) pop=hirshfeld empiricaldisper
 sion=gd3bj
 ----------------------------------------------------------------------

 ---------------------------
 tmpdir/M3_frag_conf_0_3.gjf
 ---------------------------
 Symbolic Z-matrix:
 Charge =  0 Multiplicity = 1

                         Standard orientation:
 ---------------------------------------------------------------------
 Center     Atomic      Atomic             Coordinates (Angstroms)
 Number     Number       Type             X           Y           Z
 ---------------------------------------------------------------------
      1          6           0       -0.466718    1.324581   -0.003840
      2          6           0        0.910154    1.051905   -0.005576
      3          6           0        1.373951   -0.262591   -0.002446
      4          6           0        0.461385   -1.315840    0.014549
      5          6           0       -1.371946    0.255332   -0.016541
      6          6           0       -0.911065   -1.057140   -0.002666
      7          1           0        0.824966   -2.341489    0.026983
      8          1           0        2.447244   -0.436351   -0.017266
      9          1           0       -2.435866    0.463285   -0.016702
     10          1           0       -1.624968   -1.877928    0.002840
     11          1           0       -0.845654    2.324581    0.135147
     12          1           0        1.659708    1.890416   -0.031894
 ---------------------------------------------------------------------

 SCF Done:  E(RB3LYP) =  -232.229209481     A.U. after   10 cycles

 The electronic state is 1-A.
 Alpha  occ. eigenvalues --  -10.18847 -10.18550 -10.18531 -10.18472 -10.18446
 Alpha  occ. eigenvalues --  -10.18411  -0.86336  -0.75544  -0.75288  -0.61131
 Alpha  occ. eigenvalues --   -0.60730  -0.52838  -0.46555  -0.45486  -0.43007
 Alpha  occ. eigenvalues --   -0.42658  -0.37688  -0.35276  -0.34930  -0.26397
 Alpha  occ. eigenvalues --   -0.26217
 Alpha virt. eigenvalues --   -0.01915  -0.01628   0.04332   0.07866   0.08075
 Alpha virt. eigenvalues --    0.11224   0.11480   0.13750   0.13972   0.25133
 Alpha virt. eigenvalues --    0.25211   0.27551   0.27861   0.35737   0.40988

 Mulliken charges:
               1
     1  C   -0.051169
     2  C   -0.100366
     3  C   -0.061091
     4  C   -0.064064
     5  C   -0.077046
     6  C   -0.060406
     7  H    0.067677
     8  H    0.066525
     9  H    0.065681
    10  H    0.066451
    11  H    0.066250
    12  H    0.081557
 Sum of Mulliken charges =   0.00000

 Dipole moment (field-independent basis, Debye):
    X=             -0.0168    Y=             -0.0216    Z=              0.0868  Tot=              0.0910
 Quadrupole moment (field-independent basis, Debye-Ang):
   XX=            -31.8073   YY=            -32.1193   ZZ=            -40.4454
   XY=             -0.0581   XZ=             -0.1647   YZ=              0.2038

 Normal termination of Gaussian 16 at Fri Sep 22 16:37:54 2023.
