 Gaussian 16, Revision A.03,
 Gaussian 16:  ES64L-G16RevA.03 25-Dec-2016

 ----------------------------------------------------------------------
 #p b3lyp/gen scrf=(cpcm,solvent=toluene) pop=hirshfeld empiricaldisper
 sion=gd3bj
 ----------------------------------------------------------------------

 ------------------------
 tmpdir/M3_frag_ref_3.gjf
 ------------------------
 Symbolic Z-matrix:
 Charge =  0 Multiplicity = 1

                         Standard orientation:
 ---------------------------------------------------------------------
 Center     Atomic      Atomic             Coordinates (Angstroms)
 Number     Number       Type             X           Y           Z
 ---------------------------------------------------------------------
      1          6           0       -0.203643   -1.389382   -0.007693
      2          6           0       -1.316051   -0.503247    0.001421
      3          6           0       -1.096598    0.879845   -0.001614
      4          6           0        0.205580    1.368978   -0.001010
      5          6           0        1.101821   -0.862538   -0.003934
      6          6           0        1.308817    0.506257    0.002803
      7          1           0        0.362155    2.446230    0.001488
      8          1           0       -1.931687    1.572229    0.000620
      9          1           0        1.951776   -1.538117    0.004305
     10          1           0        2.319261    0.906967    0.012537
     11          1           0       -0.394781   -2.409408    0.028607
     12          1           0       -2.306283   -0.977375    0.012609
 ---------------------------------------------------------------------

 SCF Done:  E(RB3LYP) =  -232.227830817     A.U. after   10 cycles

 The electronic state is 1-A.
 Alpha  occ. eigenvalues --  -10.18833 -10.18576 -10.18512 -10.18482 -10.18426
 Alpha  occ. eigenvalues --  -10.18278  -0.86129  -0.75535  -0.75243  -0.61173
 Alpha  occ. eigenvalues --   -0.60917  -0.52974  -0.46967  -0.45401  -0.43104
 Alpha  occ. eigenvalues --   -0.42741  -0.37485  -0.35636  -0.34821  -0.26460
 Alpha  occ. eigenvalues --   -0.26035
 Alpha virt. eigenvalues --   -0.02004  -0.01642   0.04552   0.08016   0.08186
 Alpha virt. eigenvalues --    0.11229   0.11594   0.13738   0.14059   0.24755
 Alpha virt. eigenvalues --    0.25361   0.26997   0.28196   0.35790   0.41400

 Mulliken charges:
               1
     1  C   -0.045266
     2  C   -0.089958
     3  C   -0.044353
     4  C   -0.079140
     5  C   -0.065898
     6  C   -0.056921
     7  H    0.067670
     8  H    0.066293
     9  H    0.066144
    10  H    0.066137
    11  H    0.043571
    12  H    0.071721
 Sum of Mulliken charges =  -0.00000

 Dipole moment (field-independent basis, Debye):
    X=              0.0069    Y=             -0.0306    Z=              0.0523  Tot=              0.0610
 Quadrupole moment (field-independent basis, Debye-Ang):
   XX=            -31.9386   YY=            -31.8395   ZZ=            -40.4568
   XY=              0.1824   XZ=             -0.0048   YZ=             -0.0789

 Normal termination of Gaussian 16 at Fri Sep 22 16:31:51 2023.
