 Gaussian 16, Revision A.03,
 Gaussian 16:  ES64L-G16RevA.03 25-Dec-2016

 ----------------------------------------------------------------------
 #p b3lyp/gen scrf=(cpcm,solvent=toluene) pop=hirshfeld empiricaldisper
 sion=gd3bj
 ----------------------------------------------------------------------

 --------------------
 tmpdir/M3_ref_93.gjf
 --------------------
 Symbolic Z-matrix:
 Charge =  0 Multiplicity = 1

                         Standard orientation:
 ---------------------------------------------------------------------
 Center     Atomic      Atomic             Coordinates (Angstroms)
 Number     Number       Type             X           Y           Z
 ---------------------------------------------------------------------
      1          6           0        1.261387   -0.269291   -0.000516
      2          6           0       -0.011891    0.640050    0.010562
      3          6           0       -1.239997   -0.285568   -0.001039
      4          1           0        1.264695   -0.985683    0.879572
      5          1           0        1.221911   -0.874174   -0.907664
      6          1           0        2.195676    0.324748    0.009451
      7          1           0       -0.014119    1.257784   -0.914552
      8          1           0       -0.055869    1.308963    0.898862
      9          1           0       -1.203276   -0.981467   -0.849628
     10          1           0       -1.310787   -0.875157    0.919541
     11          1           0       -2.155224    0.313840   -0.089624
 ---------------------------------------------------------------------

 SCF Done:  E(RB3LYP) =  -119.129951504     A.U. after   10 cycles

 The electronic state is 1-A.
 Alpha  occ. eigenvalues --  -10.17559 -10.16898 -10.16313  -0.77783  -0.67467
 Alpha  occ. eigenvalues --   -0.58305  -0.45704  -0.43521  -0.39596  -0.37820
 Alpha  occ. eigenvalues --   -0.34337  -0.33403  -0.32998
 Alpha virt. eigenvalues --    0.04671   0.08515   0.08783   0.08819   0.11606
 Alpha virt. eigenvalues --    0.13315   0.14394   0.15563   0.18691   0.22472
 Alpha virt. eigenvalues --    0.38080   0.38960   0.39489   0.40449   0.40962

 Mulliken charges:
               1
     1  C   -0.229609
     2  C   -0.249831
     3  C   -0.217053
     4  H    0.087618
     5  H    0.083210
     6  H    0.090133
     7  H    0.091532
     8  H    0.093649
     9  H    0.082055
    10  H    0.084791
    11  H    0.083505
 Sum of Mulliken charges =  -0.00000

 Dipole moment (field-independent basis, Debye):
    X=             -0.0470    Y=              0.0545    Z=             -0.0457  Tot=              0.0852
 Quadrupole moment (field-independent basis, Debye-Ang):
   XX=            -22.9089   YY=            -22.2414   ZZ=            -21.6590
   XY=             -0.0015   XZ=             -0.0590   YZ=              0.0057

 Normal termination of Gaussian 16 at Fri Sep 22 16:27:47 2023.
