 Gaussian 16, Revision A.03,
 Gaussian 16:  ES64L-G16RevA.03 25-Dec-2016

 ----------------------------------------------------------------------
 #p b3lyp/gen scrf=(cpcm,solvent=toluene) pop=hirshfeld empiricaldisper
 sion=gd3bj
 ----------------------------------------------------------------------

 ---------------------
 tmpdir/M3_ref_120.gjf
 ---------------------
 Symbolic Z-matrix:
 Charge =  0 Multiplicity = 1

                         Standard orientation:
 ---------------------------------------------------------------------
 Center     Atomic      Atomic             Coordinates (Angstroms)
 Number     Number       Type             X           Y           Z
 ---------------------------------------------------------------------
      1          6           0        0.774158   -0.002763   -0.006162
      2          6           0       -0.763731   -0.000388    0.000142
      3          1           0       -1.133688   -0.886501    0.531850
      4          1           0        1.113540    0.971520   -0.473611
      5          1           0        1.141445   -0.039076    1.043228
      6          1           0        1.144708   -0.896516   -0.556028
      7          1           0       -1.156199    0.891276    0.506728
      8          1           0       -1.172374   -0.021798   -1.016049
 ---------------------------------------------------------------------

 SCF Done:  E(RB3LYP) =  -79.8201557327     A.U. after    9 cycles

 The electronic state is 1-A.
 Alpha  occ. eigenvalues --  -10.17255 -10.16491  -0.75160  -0.60957  -0.43791
 Alpha  occ. eigenvalues --   -0.43418  -0.36292  -0.34640  -0.34175
 Alpha virt. eigenvalues --    0.04817   0.09233   0.10373   0.10536   0.13501
 Alpha virt. eigenvalues --    0.13697   0.20954   0.37309   0.39082   0.40028
 Alpha virt. eigenvalues --    0.45895   0.46966   0.58055   0.62959   0.63810

 Mulliken charges:
               1
     1  C   -0.272643
     2  C   -0.260798
     3  H    0.084324
     4  H    0.092705
     5  H    0.089692
     6  H    0.094100
     7  H    0.086131
     8  H    0.086489
 Sum of Mulliken charges =  -0.00000

 Dipole moment (field-independent basis, Debye):
    X=             -0.0464    Y=             -0.0121    Z=              0.0265  Tot=              0.0548
 Quadrupole moment (field-independent basis, Debye-Ang):
   XX=            -16.2022   YY=            -14.9050   ZZ=            -15.0657
   XY=             -0.0815   XZ=              0.0801   YZ=              0.0314

 Normal termination of Gaussian 16 at Fri Sep 22 16:27:52 2023.
