 Gaussian 16, Revision A.03,
 Gaussian 16:  ES64L-G16RevA.03 25-Dec-2016

 ----------------------------------------------------------------------
 #p b3lyp/gen scrf=(cpcm,solvent=toluene) pop=hirshfeld empiricaldisper
 sion=gd3bj
 ----------------------------------------------------------------------

 ---------------------
 tmpdir/M3_ref_129.gjf
 ---------------------
 Symbolic Z-matrix:
 Charge =  0 Multiplicity = 1

                         Standard orientation:
 ---------------------------------------------------------------------
 Center     Atomic      Atomic             Coordinates (Angstroms)
 Number     Number       Type             X           Y           Z
 ---------------------------------------------------------------------
      1          6           0       -1.269131   -0.278828    0.006193
      2          6           0        0.008569    0.610540    0.031069
      3          6           0        1.267381   -0.262165   -0.002906
      4          1           0       -1.970037    0.224737   -0.685516
      5          1           0       -1.005468   -1.269944   -0.385739
      6          1           0       -1.671476   -0.414385    1.014431
      7          1           0       -0.085760    1.202135   -0.982785
      8          1           0       -0.022945    1.311028    0.887898
      9          1           0        2.175598    0.343694    0.052389
     10          1           0        1.259741   -0.975885    0.828367
     11          1           0        1.279431   -0.838662   -0.935183
 ---------------------------------------------------------------------

 SCF Done:  E(RB3LYP) =  -119.121764920     A.U. after   10 cycles

 The electronic state is 1-A.
 Alpha  occ. eigenvalues --  -10.17768 -10.16398 -10.16354  -0.77867  -0.67859
 Alpha  occ. eigenvalues --   -0.57668  -0.45836  -0.43637  -0.39938  -0.38590
 Alpha  occ. eigenvalues --   -0.34241  -0.32954  -0.32072
 Alpha virt. eigenvalues --    0.04343   0.08140   0.08760   0.08967   0.12008
 Alpha virt. eigenvalues --    0.12511   0.13398   0.16442   0.19533   0.23526
 Alpha virt. eigenvalues --    0.37947   0.38660   0.39561   0.43127   0.44903

 Mulliken charges:
               1
     1  C   -0.211723
     2  C   -0.286347
     3  C   -0.203162
     4  H    0.088934
     5  H    0.078716
     6  H    0.090349
     7  H    0.089500
     8  H    0.093652
     9  H    0.087167
    10  H    0.085785
    11  H    0.087128
 Sum of Mulliken charges =   0.00000

 Dipole moment (field-independent basis, Debye):
    X=              0.0168    Y=             -0.0248    Z=              0.0272  Tot=              0.0405
 Quadrupole moment (field-independent basis, Debye-Ang):
   XX=            -23.1263   YY=            -22.4298   ZZ=            -21.4722
   XY=             -0.2150   XZ=              0.0742   YZ=              0.0759

 Normal termination of Gaussian 16 at Fri Sep 22 16:29:22 2023.
