 Gaussian 16, Revision A.03,
 Gaussian 16:  ES64L-G16RevA.03 25-Dec-2016

 ----------------------------------------------------------------------
 #p b3lyp/gen scrf=(cpcm,solvent=toluene) pop=hirshfeld empiricaldisper
 sion=gd3bj
 ----------------------------------------------------------------------

 --------------------
 tmpdir/M3_ref_44.gjf
 --------------------
 Symbolic Z-matrix:
 Charge =  0 Multiplicity = 1

                         Standard orientation:
 ---------------------------------------------------------------------
 Center     Atomic      Atomic             Coordinates (Angstroms)
 Number     Number       Type             X           Y           Z
 ---------------------------------------------------------------------
      1          6           0        0.767569    0.005840    0.000213
      2          6           0       -0.758070    0.001603   -0.003560
      3          1           0       -1.114913    0.000362    1.037610
      4          1           0        1.140617    0.936492    0.466705
      5          1           0        1.136275   -0.876763    0.539192
      6          1           0        1.151338   -0.070190   -1.029382
      7          1           0       -1.213872    0.875560   -0.527315
      8          1           0       -1.156440   -0.910115   -0.466726
 ---------------------------------------------------------------------

 SCF Done:  E(RB3LYP) =  -79.8213612222     A.U. after    9 cycles

 The electronic state is 1-A.
 Alpha  occ. eigenvalues --  -10.16701 -10.16654  -0.75399  -0.61216  -0.43770
 Alpha  occ. eigenvalues --   -0.43457  -0.36821  -0.34558  -0.34111
 Alpha virt. eigenvalues --    0.04980   0.09190   0.10434   0.10630   0.13637
 Alpha virt. eigenvalues --    0.13827   0.21583   0.37209   0.39042   0.39483
 Alpha virt. eigenvalues --    0.45848   0.47683   0.58919   0.63888   0.64141

 Mulliken charges:
               1
     1  C   -0.254212
     2  C   -0.268793
     3  H    0.083791
     4  H    0.091294
     5  H    0.087339
     6  H    0.085995
     7  H    0.090196
     8  H    0.084390
 Sum of Mulliken charges =  -0.00000

 Dipole moment (field-independent basis, Debye):
    X=             -0.0018    Y=             -0.0471    Z=              0.0118  Tot=              0.0486
 Quadrupole moment (field-independent basis, Debye-Ang):
   XX=            -15.9880   YY=            -14.9292   ZZ=            -15.0973
   XY=             -0.0420   XZ=              0.0425   YZ=              0.0070

 Normal termination of Gaussian 16 at Fri Sep 22 16:26:21 2023.
