 Gaussian 16, Revision A.03,
 Gaussian 16:  ES64L-G16RevA.03 25-Dec-2016

 ----------------------------------------------------------------------
 #p b3lyp/gen scrf=(cpcm,solvent=toluene) pop=hirshfeld empiricaldisper
 sion=gd3bj
 ----------------------------------------------------------------------

 --------------------
 tmpdir/M3_ref_53.gjf
 --------------------
 Symbolic Z-matrix:
 Charge =  0 Multiplicity = 1

                         Standard orientation:
 ---------------------------------------------------------------------
 Center     Atomic      Atomic             Coordinates (Angstroms)
 Number     Number       Type             X           Y           Z
 ---------------------------------------------------------------------
      1          6           0        1.280508   -0.262190    0.002872
      2          6           0        0.008777    0.580782   -0.016467
      3          6           0       -1.277982   -0.265862   -0.008388
      4          1           0        1.276361   -0.973021   -0.844238
      5          1           0        2.158220    0.396221   -0.037700
      6          1           0        1.347576   -0.821885    0.949116
      7          1           0       -0.030885    1.262490    0.843327
      8          1           0        0.019981    1.217980   -0.908958
      9          1           0       -1.285889   -1.102357   -0.750807
     10          1           0       -2.188155    0.445936   -0.092280
     11          1           0       -1.365030   -0.741747    0.973437
 ---------------------------------------------------------------------

 SCF Done:  E(RB3LYP) =  -119.128742606     A.U. after   10 cycles

 The electronic state is 1-A.
 Alpha  occ. eigenvalues --  -10.17099 -10.16944 -10.16491  -0.78057  -0.67753
 Alpha  occ. eigenvalues --   -0.58152  -0.45725  -0.43333  -0.40212  -0.37953
 Alpha  occ. eigenvalues --   -0.34185  -0.33421  -0.32613
 Alpha virt. eigenvalues --    0.04469   0.08493   0.08730   0.08956   0.11690
 Alpha virt. eigenvalues --    0.13467   0.13822   0.14926   0.19012   0.23688
 Alpha virt. eigenvalues --    0.37382   0.38752   0.40042   0.40614   0.41237

 Mulliken charges:
               1
     1  C   -0.207195
     2  C   -0.249646
     3  C   -0.236592
     4  H    0.088183
     5  H    0.086985
     6  H    0.081770
     7  H    0.086171
     8  H    0.085869
     9  H    0.090931
    10  H    0.094212
    11  H    0.079311
 Sum of Mulliken charges =   0.00000

 Dipole moment (field-independent basis, Debye):
    X=              0.0688    Y=              0.0859    Z=              0.0877  Tot=              0.1407
 Quadrupole moment (field-independent basis, Debye-Ang):
   XX=            -22.9867   YY=            -22.0627   ZZ=            -21.8312
   XY=              0.0214   XZ=             -0.0850   YZ=              0.2108

 Normal termination of Gaussian 16 at Fri Sep 22 16:27:01 2023.
