 Gaussian 16, Revision A.03,
 Gaussian 16:  ES64L-G16RevA.03 25-Dec-2016

 ----------------------------------------------------------------------
 #p b3lyp/gen scrf=(cpcm,solvent=toluene) pop=hirshfeld empiricaldisper
 sion=gd3bj
 ----------------------------------------------------------------------

 ---------------------
 tmpdir/M3_ref_212.gjf
 ---------------------
 Symbolic Z-matrix:
 Charge =  0 Multiplicity = 1

                         Standard orientation:
 ---------------------------------------------------------------------
 Center     Atomic      Atomic             Coordinates (Angstroms)
 Number     Number       Type             X           Y           Z
 ---------------------------------------------------------------------
      1          6           0        2.591714    0.296445   -0.367492
      2          6           0        1.525279   -0.440369    0.473415
      3          7           0        0.138569   -0.157546    0.061832
      4          6           0       -0.814472   -1.145485   -0.107305
      5          6           0       -0.495139    1.090932    0.126349
      6          6           0       -2.063310   -0.522498   -0.147483
      7          6           0       -1.844616    0.878975   -0.015773
      8          1           0       -2.612938    1.642829   -0.006835
      9          1           0        2.658943   -0.170129   -1.409511
     10          1           0        3.604846    0.220692    0.094786
     11          1           0        2.323294    1.345451   -0.494143
     12          1           0        1.609849   -0.274875    1.572842
     13          1           0        1.679647   -1.506153    0.277716
     14          1           0       -0.612229   -2.176791   -0.297416
     15          1           0        0.003891    2.043775    0.234006
     16          1           0       -3.022023   -0.969980   -0.174543
 ---------------------------------------------------------------------

 SCF Done:  E(RB3LYP) =  -288.763063223     A.U. after   12 cycles

 The electronic state is 1-A.
 Alpha  occ. eigenvalues --  -14.36380 -10.22573 -10.19474 -10.19304 -10.18521
 Alpha  occ. eigenvalues --  -10.15769 -10.15587  -0.97928  -0.80993  -0.73403
 Alpha  occ. eigenvalues --   -0.72053  -0.63853  -0.57060  -0.55359  -0.52646
 Alpha  occ. eigenvalues --   -0.46767  -0.44496  -0.42984  -0.41535  -0.39066
 Alpha  occ. eigenvalues --   -0.38191  -0.37616  -0.36389  -0.35237  -0.24112
 Alpha  occ. eigenvalues --   -0.21756
 Alpha virt. eigenvalues --    0.01490   0.04409   0.06629   0.07435   0.07631
 Alpha virt. eigenvalues --    0.08718   0.09857   0.10952   0.12168   0.13309
 Alpha virt. eigenvalues --    0.15012   0.15816   0.18730   0.22312   0.24133

 Mulliken charges:
               1
     1  C   -0.227677
     2  C    0.039594
     3  N   -0.566400
     4  C    0.147082
     5  C    0.144229
     6  C   -0.148428
     7  C   -0.155581
     8  H    0.048369
     9  H    0.102278
    10  H    0.101314
    11  H    0.099270
    12  H    0.114399
    13  H    0.097811
    14  H    0.082365
    15  H    0.083457
    16  H    0.037918
 Sum of Mulliken charges =  -0.00000

 Dipole moment (field-independent basis, Debye):
    X=              2.3926    Y=             -0.3835    Z=              0.4372  Tot=              2.4622
 Quadrupole moment (field-independent basis, Debye-Ang):
   XX=            -40.7913   YY=            -39.8595   ZZ=            -47.0077
   XY=             -0.5722   XZ=              0.8189   YZ=              0.7770

 Normal termination of Gaussian 16 at Fri Sep 22 16:30:16 2023.
