 Gaussian 16, Revision A.03,
 Gaussian 16:  ES64L-G16RevA.03 25-Dec-2016

 ----------------------------------------------------------------------
 #p b3lyp/gen scrf=(cpcm,solvent=toluene) pop=hirshfeld empiricaldisper
 sion=gd3bj
 ----------------------------------------------------------------------

 --------------------
 tmpdir/M3_ref_65.gjf
 --------------------
 Symbolic Z-matrix:
 Charge =  0 Multiplicity = 1

                         Standard orientation:
 ---------------------------------------------------------------------
 Center     Atomic      Atomic             Coordinates (Angstroms)
 Number     Number       Type             X           Y           Z
 ---------------------------------------------------------------------
      1          1           0       -0.675924    0.060557    0.860678
      2          6           0        0.004448    0.000628    0.001066
      3          1           0       -0.599499   -0.335739   -0.856389
      4          1           0        0.433138    0.998080   -0.201429
      5          1           0        0.815596   -0.726666    0.190741
 ---------------------------------------------------------------------

 SCF Done:  E(RB3LYP) =  -40.5138647623     A.U. after    7 cycles

 The electronic state is 1-A.
 Alpha  occ. eigenvalues --  -10.16513  -0.69187  -0.39573  -0.39251  -0.38733
 Alpha virt. eigenvalues --    0.05604   0.12398   0.12477   0.12520   0.37048
 Alpha virt. eigenvalues --    0.37797   0.38194   0.63298   0.63473   0.63656
 Alpha virt. eigenvalues --    0.67001   0.95956   1.28582   1.29466   1.85177

 Mulliken charges:
               1
     1  H    0.087573
     2  C   -0.357559
     3  H    0.087267
     4  H    0.090958
     5  H    0.091762
 Sum of Mulliken charges =  -0.00000

 Dipole moment (field-independent basis, Debye):
    X=             -0.0257    Y=             -0.0024    Z=             -0.0017  Tot=              0.0259
 Quadrupole moment (field-independent basis, Debye-Ang):
   XX=             -8.3927   YY=             -8.4376   ZZ=             -8.5760
   XY=             -0.0008   XZ=             -0.0058   YZ=             -0.0015

 Normal termination of Gaussian 16 at Fri Sep 22 16:27:06 2023.
