 Gaussian 16, Revision A.03,
 Gaussian 16:  ES64L-G16RevA.03 25-Dec-2016

 ----------------------------------------------------------------------
 #p b3lyp/gen scrf=(cpcm,solvent=toluene) pop=hirshfeld empiricaldisper
 sion=gd3bj
 ----------------------------------------------------------------------

 ---------------------
 tmpdir/M3_ref_192.gjf
 ---------------------
 Symbolic Z-matrix:
 Charge =  0 Multiplicity = 1

                         Standard orientation:
 ---------------------------------------------------------------------
 Center     Atomic      Atomic             Coordinates (Angstroms)
 Number     Number       Type             X           Y           Z
 ---------------------------------------------------------------------
      1          6           0        0.012571    0.011019   -0.000801
      2          1           0        0.522501   -0.356208    0.899593
      3          1           0       -1.034562   -0.536950   -0.080089
      4          1           0        0.628287   -0.258207   -0.864667
      5          1           0       -0.191654    1.085249    0.049968
 ---------------------------------------------------------------------

 SCF Done:  E(RB3LYP) =  -40.5097760342     A.U. after    8 cycles

 The electronic state is 1-A.
 Alpha  occ. eigenvalues --  -10.17124  -0.68820  -0.40180  -0.39135  -0.37581
 Alpha virt. eigenvalues --    0.05286   0.11267   0.12530   0.12604   0.37114
 Alpha virt. eigenvalues --    0.37443   0.38766   0.59212   0.63610   0.64158
 Alpha virt. eigenvalues --    0.66161   0.95521   1.28827   1.30105   1.81341

 Mulliken charges:
               1
     1  C   -0.369251
     2  H    0.091183
     3  H    0.090850
     4  H    0.092260
     5  H    0.094958
 Sum of Mulliken charges =   0.00000

 Dipole moment (field-independent basis, Debye):
    X=              0.0419    Y=              0.0072    Z=              0.0088  Tot=              0.0434
 Quadrupole moment (field-independent basis, Debye-Ang):
   XX=             -8.4834   YY=             -8.4826   ZZ=             -8.5874
   XY=             -0.1218   XZ=             -0.0251   YZ=             -0.0049

 Normal termination of Gaussian 16 at Fri Sep 22 16:29:39 2023.
