 Gaussian 16, Revision A.03,
 Gaussian 16:  ES64L-G16RevA.03 25-Dec-2016

 ----------------------------------------------------------------------
 #p b3lyp/gen scrf=(cpcm,solvent=toluene) pop=hirshfeld empiricaldisper
 sion=gd3bj
 ----------------------------------------------------------------------

 ---------------------
 tmpdir/M3_ref_214.gjf
 ---------------------
 Symbolic Z-matrix:
 Charge =  0 Multiplicity = 1

                         Standard orientation:
 ---------------------------------------------------------------------
 Center     Atomic      Atomic             Coordinates (Angstroms)
 Number     Number       Type             X           Y           Z
 ---------------------------------------------------------------------
      1          6           0        2.282855    0.247328    0.718938
      2          6           0        1.611548   -0.279735   -0.563315
      3          7           0        0.152013   -0.128257   -0.424885
      4          6           0       -0.679270   -1.160246   -0.028799
      5          6           0       -0.537889    1.087441   -0.322125
      6          6           0       -1.905293   -0.597835    0.331595
      7          6           0       -1.805393    0.808399    0.127077
      8          1           0       -2.587730    1.533954    0.315198
      9          1           0        3.386160    0.226944    0.670519
     10          1           0        1.909715   -0.346909    1.563446
     11          1           0        1.955629    1.277479    0.904409
     12          1           0        2.024497    0.147736   -1.510794
     13          1           0        1.792065   -1.357665   -0.622503
     14          1           0       -0.456488   -2.201754   -0.107957
     15          1           0       -0.142250    2.058343   -0.585470
     16          1           0       -2.745037   -1.072435    0.767128
 ---------------------------------------------------------------------

 SCF Done:  E(RB3LYP) =  -288.764496252     A.U. after   12 cycles

 The electronic state is 1-A.
 Alpha  occ. eigenvalues --  -14.36409 -10.22556 -10.19499 -10.19306 -10.17729
 Alpha  occ. eigenvalues --  -10.15750 -10.15579  -0.98018  -0.81102  -0.73280
 Alpha  occ. eigenvalues --   -0.72113  -0.63976  -0.57090  -0.55519  -0.52750
 Alpha  occ. eigenvalues --   -0.46440  -0.45061  -0.42545  -0.41357  -0.39081
 Alpha  occ. eigenvalues --   -0.38492  -0.37381  -0.36721  -0.35334  -0.24088
 Alpha  occ. eigenvalues --   -0.21750
 Alpha virt. eigenvalues --    0.01733   0.04761   0.06613   0.07422   0.07608
 Alpha virt. eigenvalues --    0.08714   0.10158   0.11119   0.12477   0.13179
 Alpha virt. eigenvalues --    0.14600   0.15200   0.19604   0.21782   0.23680

 Mulliken charges:
               1
     1  C   -0.207020
     2  C    0.026005
     3  N   -0.555189
     4  C    0.147500
     5  C    0.142906
     6  C   -0.147348
     7  C   -0.153521
     8  H    0.048172
     9  H    0.098899
    10  H    0.097268
    11  H    0.096325
    12  H    0.112561
    13  H    0.094679
    14  H    0.081594
    15  H    0.079423
    16  H    0.037745
 Sum of Mulliken charges =  -0.00000

 Dipole moment (field-independent basis, Debye):
    X=              2.4048    Y=             -0.1989    Z=             -0.2332  Tot=              2.4242
 Quadrupole moment (field-independent basis, Debye-Ang):
   XX=            -41.2522   YY=            -39.8733   ZZ=            -46.5171
   XY=             -0.5873   XZ=             -2.5472   YZ=             -0.6082

 Normal termination of Gaussian 16 at Fri Sep 22 16:30:49 2023.
