 Gaussian 16, Revision A.03,
 Gaussian 16:  ES64L-G16RevA.03 25-Dec-2016

 ----------------------------------------------------------------------
 #p b3lyp/gen scrf=(cpcm,solvent=toluene) pop=hirshfeld empiricaldisper
 sion=gd3bj
 ----------------------------------------------------------------------

 ---------------------
 tmpdir/M3_ref_217.gjf
 ---------------------
 Symbolic Z-matrix:
 Charge =  0 Multiplicity = 1

                         Standard orientation:
 ---------------------------------------------------------------------
 Center     Atomic      Atomic             Coordinates (Angstroms)
 Number     Number       Type             X           Y           Z
 ---------------------------------------------------------------------
      1          6           0        0.571555   -0.010835   -0.026176
      2          1           0        1.032859    0.968630    0.050879
      3          1           0        1.176147   -0.850728    0.059568
      4          8           0       -0.704792   -0.006612    0.005826
 ---------------------------------------------------------------------

 SCF Done:  E(RB3LYP) =  -114.476777983     A.U. after   10 cycles

 The electronic state is 1-A.
 Alpha  occ. eigenvalues --  -19.14350 -10.28036  -1.03371  -0.65877  -0.50291
 Alpha  occ. eigenvalues --   -0.44708  -0.38578  -0.27707
 Alpha virt. eigenvalues --   -0.07169   0.06324   0.11462   0.16974   0.40541
 Alpha virt. eigenvalues --    0.47458   0.51230   0.54733   0.60687   0.72090
 Alpha virt. eigenvalues --    0.79905   0.87318   0.96786   1.32548   1.48076

 Mulliken charges:
               1
     1  C    0.219860
     2  H    0.089506
     3  H    0.091704
     4  O   -0.401070
 Sum of Mulliken charges =  -0.00000

 Dipole moment (field-independent basis, Debye):
    X=              3.0156    Y=             -0.0496    Z=              0.0235  Tot=              3.0161
 Quadrupole moment (field-independent basis, Debye-Ang):
   XX=            -11.8955   YY=            -11.5131   ZZ=            -11.6688
   XY=             -0.2136   XZ=              0.0602   YZ=              0.0113

 Normal termination of Gaussian 16 at Fri Sep 22 16:31:11 2023.
