 Gaussian 16, Revision A.03,
 Gaussian 16:  ES64L-G16RevA.03 25-Dec-2016

 ----------------------------------------------------------------------
 #p b3lyp/gen scrf=(cpcm,solvent=toluene) pop=hirshfeld empiricaldisper
 sion=gd3bj
 ----------------------------------------------------------------------

 ---------------------
 tmpdir/M3_ref_130.gjf
 ---------------------
 Symbolic Z-matrix:
 Charge =  0 Multiplicity = 1

                         Standard orientation:
 ---------------------------------------------------------------------
 Center     Atomic      Atomic             Coordinates (Angstroms)
 Number     Number       Type             X           Y           Z
 ---------------------------------------------------------------------
      1          6           0       -3.829561   -0.315764    0.935254
      2          6           0       -3.133299   -0.507031   -0.444146
      3          6           0       -1.670885   -0.064877   -0.372223
      4          6           0       -0.651407   -0.987327   -0.290248
      5          6           0       -1.344265    1.319956   -0.322159
      6          6           0        0.701425   -0.591486   -0.124102
      7          1           0       -0.857469   -2.052292   -0.353458
      8          6           0       -0.049360    1.738593   -0.132879
      9          1           0       -2.120925    2.067358   -0.464351
     10          6           0        1.011109    0.800189   -0.008886
     11          6           0        1.759986   -1.538222   -0.068794
     12          1           0        0.177720    2.803587   -0.100673
     13          6           0        2.359368    1.190196    0.203187
     14          6           0        3.062017   -1.126986    0.106666
     15          1           0        1.523871   -2.597010   -0.168303
     16          6           0        3.362063    0.248409    0.254875
     17          1           0        2.583405    2.244823    0.339937
     18          1           0        3.865795   -1.860163    0.140931
     19          1           0        4.392963    0.557258    0.415926
     20          1           0       -4.330489    0.668937    0.882901
     21          1           0       -4.577441   -1.108286    1.069513
     22          1           0       -3.107189   -0.395992    1.752899
     23          1           0       -3.747414    0.225881   -1.131522
     24          1           0       -3.265967   -1.548004   -0.803067
 ---------------------------------------------------------------------

 SCF Done:  E(RB3LYP) =  -464.478701930     A.U. after   12 cycles

 The electronic state is 1-A.
 Alpha  occ. eigenvalues --  -10.19267 -10.19203 -10.19130 -10.18992 -10.18563
 Alpha  occ. eigenvalues --  -10.18524 -10.18514 -10.18456 -10.18401 -10.18368
 Alpha  occ. eigenvalues --  -10.18090 -10.17096  -0.88545  -0.83723  -0.78794
 Alpha  occ. eigenvalues --   -0.77412  -0.73814  -0.72109  -0.64084  -0.62744
 Alpha  occ. eigenvalues --   -0.60461  -0.58873  -0.52090  -0.51310  -0.49373
 Alpha  occ. eigenvalues --   -0.45764  -0.45385  -0.44181  -0.43023  -0.42296
 Alpha  occ. eigenvalues --   -0.41662  -0.40144  -0.38595  -0.37371  -0.36237
 Alpha  occ. eigenvalues --   -0.34857  -0.33679  -0.33404  -0.32671  -0.29457
 Alpha  occ. eigenvalues --   -0.25018  -0.22548
 Alpha virt. eigenvalues --   -0.05069  -0.02398   0.01342   0.04103   0.05354
 Alpha virt. eigenvalues --    0.06214   0.07924   0.08091   0.08312   0.09250
 Alpha virt. eigenvalues --    0.10568   0.11303   0.12249   0.14031   0.15070

 Mulliken charges:
               1
     1  C   -0.188409
     2  C   -0.124470
     3  C   -0.233391
     4  C    0.070816
     5  C    0.010463
     6  C   -0.132558
     7  H    0.029281
     8  C   -0.001082
     9  H    0.042385
    10  C   -0.136064
    11  C   -0.009290
    12  H    0.048424
    13  C    0.002892
    14  C   -0.041456
    15  H    0.046675
    16  C   -0.044437
    17  H    0.046006
    18  H    0.063980
    19  H    0.063804
    20  H    0.096149
    21  H    0.089644
    22  H    0.096759
    23  H    0.107020
    24  H    0.096860
 Sum of Mulliken charges =  -0.00000

 Dipole moment (field-independent basis, Debye):
    X=             -0.5871    Y=             -0.0694    Z=              0.1169  Tot=              0.6026
 Quadrupole moment (field-independent basis, Debye-Ang):
   XX=            -64.0128   YY=            -64.6722   ZZ=            -78.9485
   XY=              0.1539   XZ=              1.7278   YZ=              0.3013

 Normal termination of Gaussian 16 at Fri Sep 22 16:30:36 2023.
