 Gaussian 16, Revision A.03,
 Gaussian 16:  ES64L-G16RevA.03 25-Dec-2016

 ----------------------------------------------------------------------
 #p b3lyp/gen scrf=(cpcm,solvent=toluene) pop=hirshfeld empiricaldisper
 sion=gd3bj
 ----------------------------------------------------------------------

 ---------------------
 tmpdir/M3_ref_140.gjf
 ---------------------
 Symbolic Z-matrix:
 Charge =  0 Multiplicity = 1

                         Standard orientation:
 ---------------------------------------------------------------------
 Center     Atomic      Atomic             Coordinates (Angstroms)
 Number     Number       Type             X           Y           Z
 ---------------------------------------------------------------------
      1          6           0       -1.178352   -0.280433    0.031107
      2          6           0        0.025210    0.653850   -0.038144
      3          7           0        1.169075   -0.277423    0.006269
      4          1           0       -0.842610   -1.170248   -0.533530
      5          1           0       -2.076667    0.178454   -0.395352
      6          1           0       -1.396999   -0.534357    1.074756
      7          1           0        0.039113    1.219580   -0.978903
      8          1           0        0.074126    1.346112    0.806254
      9          1           0        2.026695   -0.090449    0.323657
     10          1           0        0.911673   -1.247637   -0.298538
 ---------------------------------------------------------------------

 SCF Done:  E(RB3LYP) =  -135.135473616     A.U. after   10 cycles

 The electronic state is 1-A.
 Alpha  occ. eigenvalues --  -14.27246 -10.19595 -10.16661  -0.86893  -0.72763
 Alpha  occ. eigenvalues --   -0.60789  -0.51377  -0.45156  -0.41968  -0.37864
 Alpha  occ. eigenvalues --   -0.36565  -0.35287  -0.21077
 Alpha virt. eigenvalues --    0.05150   0.07476   0.08791   0.09711   0.11991
 Alpha virt. eigenvalues --    0.14751   0.16431   0.21124   0.22340   0.37913
 Alpha virt. eigenvalues --    0.40694   0.45876   0.46333   0.54022   0.54613

 Mulliken charges:
               1
     1  C   -0.227657
     2  C    0.019598
     3  N   -0.501498
     4  H    0.079346
     5  H    0.081000
     6  H    0.091453
     7  H    0.075626
     8  H    0.087063
     9  H    0.123672
    10  H    0.171398
 Sum of Mulliken charges =  -0.00000

 Dipole moment (field-independent basis, Debye):
    X=             -0.0467    Y=             -0.0894    Z=              0.1938  Tot=              0.2185
 Quadrupole moment (field-independent basis, Debye-Ang):
   XX=            -20.1780   YY=            -19.8556   ZZ=            -21.7190
   XY=             -0.4877   XZ=              0.7839   YZ=              0.9072

 Normal termination of Gaussian 16 at Fri Sep 22 16:30:43 2023.
