 Gaussian 16, Revision A.03,
 Gaussian 16:  ES64L-G16RevA.03 25-Dec-2016

 ----------------------------------------------------------------------
 #p b3lyp/gen scrf=(cpcm,solvent=toluene) pop=hirshfeld empiricaldisper
 sion=gd3bj
 ----------------------------------------------------------------------

 ---------------------
 tmpdir/M3_ref_111.gjf
 ---------------------
 Symbolic Z-matrix:
 Charge =  0 Multiplicity = 1

                         Standard orientation:
 ---------------------------------------------------------------------
 Center     Atomic      Atomic             Coordinates (Angstroms)
 Number     Number       Type             X           Y           Z
 ---------------------------------------------------------------------
      1          6           0       -0.768897    0.000781   -0.000570
      2          6           0        0.768427   -0.004586   -0.005366
      3          1           0        1.131693    0.689384    0.764283
      4          1           0       -1.212265   -0.742653   -0.731081
      5          1           0       -1.133221    1.017942   -0.265312
      6          1           0       -1.140982   -0.265692    1.014273
      7          1           0        1.185108   -0.992640    0.224682
      8          1           0        1.172484    0.316489   -0.971228
 ---------------------------------------------------------------------

 SCF Done:  E(RB3LYP) =  -79.8210515169     A.U. after    9 cycles

 The electronic state is 1-A.
 Alpha  occ. eigenvalues --  -10.17257 -10.16600  -0.75090  -0.61201  -0.43547
 Alpha  occ. eigenvalues --   -0.43251  -0.36712  -0.34537  -0.34219
 Alpha virt. eigenvalues --    0.04917   0.09036   0.10400   0.10516   0.13608
 Alpha virt. eigenvalues --    0.13747   0.21233   0.37439   0.38854   0.39155
 Alpha virt. eigenvalues --    0.46887   0.47122   0.57998   0.63038   0.63804

 Mulliken charges:
               1
     1  C   -0.277323
     2  C   -0.254305
     3  H    0.085425
     4  H    0.091833
     5  H    0.090575
     6  H    0.089589
     7  H    0.086883
     8  H    0.087323
 Sum of Mulliken charges =  -0.00000

 Dipole moment (field-independent basis, Debye):
    X=              0.0400    Y=              0.0213    Z=              0.0275  Tot=              0.0530
 Quadrupole moment (field-independent basis, Debye-Ang):
   XX=            -15.9537   YY=            -15.0464   ZZ=            -15.0582
   XY=              0.0052   XZ=              0.0060   YZ=             -0.0299

 Normal termination of Gaussian 16 at Fri Sep 22 16:27:24 2023.
