 Gaussian 16, Revision A.03,
 Gaussian 16:  ES64L-G16RevA.03 25-Dec-2016

 ----------------------------------------------------------------------
 #p b3lyp/gen scrf=(cpcm,solvent=toluene) pop=hirshfeld empiricaldisper
 sion=gd3bj
 ----------------------------------------------------------------------

 --------------------
 tmpdir/M3_ref_74.gjf
 --------------------
 Symbolic Z-matrix:
 Charge =  0 Multiplicity = 1

                         Standard orientation:
 ---------------------------------------------------------------------
 Center     Atomic      Atomic             Coordinates (Angstroms)
 Number     Number       Type             X           Y           Z
 ---------------------------------------------------------------------
      1          6           0        0.001356    0.006029   -0.003972
      2          1           0        0.084988   -0.147307    1.072993
      3          1           0       -0.717339   -0.778370   -0.398913
      4          1           0       -0.412075    1.013327   -0.204735
      5          1           0        1.036292   -0.123824   -0.445513
 ---------------------------------------------------------------------

 SCF Done:  E(RB3LYP) =  -40.5120341204     A.U. after    7 cycles

 The electronic state is 1-A.
 Alpha  occ. eigenvalues --  -10.17062  -0.68808  -0.39525  -0.38844  -0.38515
 Alpha virt. eigenvalues --    0.05355   0.11888   0.12135   0.12545   0.36915
 Alpha virt. eigenvalues --    0.37725   0.38511   0.61818   0.61982   0.63458
 Alpha virt. eigenvalues --    0.66073   0.95744   1.28843   1.29648   1.82790

 Mulliken charges:
               1
     1  C   -0.370514
     2  H    0.086451
     3  H    0.093189
     4  H    0.094563
     5  H    0.096312
 Sum of Mulliken charges =  -0.00000

 Dipole moment (field-independent basis, Debye):
    X=             -0.0092    Y=             -0.0029    Z=              0.0581  Tot=              0.0589
 Quadrupole moment (field-independent basis, Debye-Ang):
   XX=             -8.3979   YY=             -8.4928   ZZ=             -8.6412
   XY=             -0.0342   XZ=              0.0060   YZ=             -0.0286

 Normal termination of Gaussian 16 at Fri Sep 22 16:27:40 2023.
