 Gaussian 16, Revision A.03,
 Gaussian 16:  ES64L-G16RevA.03 25-Dec-2016

 ----------------------------------------------------------------------
 #p b3lyp/gen scrf=(cpcm,solvent=toluene) pop=hirshfeld empiricaldisper
 sion=gd3bj
 ----------------------------------------------------------------------

 ---------------------
 tmpdir/M3_ref_225.gjf
 ---------------------
 Symbolic Z-matrix:
 Charge =  0 Multiplicity = 1

                         Standard orientation:
 ---------------------------------------------------------------------
 Center     Atomic      Atomic             Coordinates (Angstroms)
 Number     Number       Type             X           Y           Z
 ---------------------------------------------------------------------
      1          6           0       -1.240388    0.176139    0.007110
      2          6           0        0.120131   -0.433119    0.015648
      3          6           0        1.297407    0.207611   -0.004497
      4          1           0       -1.809014   -0.302364   -0.916147
      5          1           0       -1.800692   -0.077387    0.918834
      6          1           0       -1.220601    1.265626   -0.102555
      7          1           0        0.115573   -1.524548    0.018496
      8          1           0        1.421289    1.289686   -0.011650
      9          1           0        2.230548   -0.354800   -0.016542
 ---------------------------------------------------------------------

 SCF Done:  E(RB3LYP) =  -117.894126732     A.U. after   10 cycles

 The electronic state is 1-A.
 Alpha  occ. eigenvalues --  -10.18397 -10.18230 -10.17040  -0.78935  -0.68580
 Alpha  occ. eigenvalues --   -0.55608  -0.46554  -0.43002  -0.41182  -0.37021
 Alpha  occ. eigenvalues --   -0.34851  -0.26129
 Alpha virt. eigenvalues --    0.00664   0.05042   0.08119   0.08890   0.11098
 Alpha virt. eigenvalues --    0.12958   0.13766   0.22302   0.32369   0.36859
 Alpha virt. eigenvalues --    0.39689   0.40547   0.48047   0.49574   0.53238

 Mulliken charges:
               1
     1  C   -0.169122
     2  C   -0.263482
     3  C   -0.137073
     4  H    0.109383
     5  H    0.109907
     6  H    0.092390
     7  H    0.079051
     8  H    0.086805
     9  H    0.092140
 Sum of Mulliken charges =  -0.00000

 Dipole moment (field-independent basis, Debye):
    X=             -0.4507    Y=             -0.0740    Z=              0.0264  Tot=              0.4575
 Quadrupole moment (field-independent basis, Debye-Ang):
   XX=            -19.6086   YY=            -19.1561   ZZ=            -22.0661
   XY=              0.3165   XZ=             -0.1729   YZ=              0.0532

 Normal termination of Gaussian 16 at Fri Sep 22 16:30:23 2023.
