 Gaussian 16, Revision A.03,
 Gaussian 16:  ES64L-G16RevA.03 25-Dec-2016

 ----------------------------------------------------------------------
 #p b3lyp/gen scrf=(cpcm,solvent=toluene) pop=hirshfeld empiricaldisper
 sion=gd3bj
 ----------------------------------------------------------------------

 --------------------
 tmpdir/M3_ref_92.gjf
 --------------------
 Symbolic Z-matrix:
 Charge =  0 Multiplicity = 1

                         Standard orientation:
 ---------------------------------------------------------------------
 Center     Atomic      Atomic             Coordinates (Angstroms)
 Number     Number       Type             X           Y           Z
 ---------------------------------------------------------------------
      1          6           0       -1.296979   -0.265263   -0.007442
      2          6           0        0.012276    0.591510   -0.000305
      3          6           0        1.286444   -0.268671   -0.000080
      4          1           0       -1.388792   -0.886718    0.937623
      5          1           0       -2.139702    0.427569   -0.020115
      6          1           0       -1.351442   -0.932553   -0.889279
      7          1           0        0.011849    1.246638   -0.899329
      8          1           0       -0.009959    1.227803    0.912931
      9          1           0        1.328549   -0.955658    0.853777
     10          1           0        1.375986   -0.861792   -0.916285
     11          1           0        2.163065    0.389255    0.067636
 ---------------------------------------------------------------------

 SCF Done:  E(RB3LYP) =  -119.130976954     A.U. after    9 cycles

 The electronic state is 1-A.
 Alpha  occ. eigenvalues --  -10.17548 -10.16868 -10.16336  -0.77501  -0.67882
 Alpha  occ. eigenvalues --   -0.58057  -0.45519  -0.43168  -0.40078  -0.38160
 Alpha  occ. eigenvalues --   -0.33958  -0.33241  -0.33074
 Alpha virt. eigenvalues --    0.04601   0.08421   0.08861   0.08956   0.11997
 Alpha virt. eigenvalues --    0.13413   0.13938   0.14734   0.18435   0.23064
 Alpha virt. eigenvalues --    0.37197   0.39208   0.39996   0.40862   0.41230

 Mulliken charges:
               1
     1  C   -0.225501
     2  C   -0.262846
     3  C   -0.204934
     4  H    0.087985
     5  H    0.084723
     6  H    0.088285
     7  H    0.091174
     8  H    0.090493
     9  H    0.082597
    10  H    0.083862
    11  H    0.084161
 Sum of Mulliken charges =  -0.00000

 Dipole moment (field-independent basis, Debye):
    X=              0.0180    Y=              0.0984    Z=             -0.0045  Tot=              0.1001
 Quadrupole moment (field-independent basis, Debye-Ang):
   XX=            -22.8353   YY=            -22.2546   ZZ=            -21.6017
   XY=             -0.0872   XZ=             -0.0124   YZ=              0.0317

 Normal termination of Gaussian 16 at Fri Sep 22 16:27:37 2023.
