 Gaussian 16, Revision A.03,
 Gaussian 16:  ES64L-G16RevA.03 25-Dec-2016

 ----------------------------------------------------------------------
 #p b3lyp/gen scrf=(cpcm,solvent=toluene) pop=hirshfeld empiricaldisper
 sion=gd3bj
 ----------------------------------------------------------------------

 ---------------------
 tmpdir/M3_ref_229.gjf
 ---------------------
 Symbolic Z-matrix:
 Charge =  0 Multiplicity = 1

                         Standard orientation:
 ---------------------------------------------------------------------
 Center     Atomic      Atomic             Coordinates (Angstroms)
 Number     Number       Type             X           Y           Z
 ---------------------------------------------------------------------
      1          6           0        1.286762   -0.222580    0.002682
      2          6           0        0.129714    0.454289   -0.000319
      3          6           0       -1.238521   -0.171638   -0.000751
      4          1           0        1.418019   -1.293572   -0.012989
      5          1           0        2.223516    0.337538    0.000060
      6          1           0        0.128904    1.543871   -0.004087
      7          1           0       -1.795670    0.133276    0.896989
      8          1           0       -1.819379    0.183384   -0.864260
      9          1           0       -1.223124   -1.264923   -0.025385
 ---------------------------------------------------------------------

 SCF Done:  E(RB3LYP) =  -117.897689751     A.U. after   10 cycles

 The electronic state is 1-A.
 Alpha  occ. eigenvalues --  -10.18489 -10.17342 -10.16997  -0.78846  -0.68811
 Alpha  occ. eigenvalues --   -0.55933  -0.46538  -0.43075  -0.41389  -0.37268
 Alpha  occ. eigenvalues --   -0.34879  -0.26241
 Alpha virt. eigenvalues --    0.00680   0.05565   0.08130   0.09027   0.11908
 Alpha virt. eigenvalues --    0.13077   0.13791   0.22198   0.32023   0.36933
 Alpha virt. eigenvalues --    0.40057   0.40332   0.48187   0.49204   0.53513

 Mulliken charges:
               1
     1  C   -0.134586
     2  C   -0.261355
     3  C   -0.154003
     4  H    0.086809
     5  H    0.090589
     6  H    0.079279
     7  H    0.102484
     8  H    0.101765
     9  H    0.089018
 Sum of Mulliken charges =  -0.00000

 Dipole moment (field-independent basis, Debye):
    X=             -0.4676    Y=              0.0777    Z=             -0.0104  Tot=              0.4741
 Quadrupole moment (field-independent basis, Debye-Ang):
   XX=            -19.4157   YY=            -19.0053   ZZ=            -22.0759
   XY=             -0.3732   XZ=             -0.0297   YZ=              0.0012

 Normal termination of Gaussian 16 at Fri Sep 22 16:30:43 2023.
