 Gaussian 16, Revision A.03,
 Gaussian 16:  ES64L-G16RevA.03 25-Dec-2016

 ----------------------------------------------------------------------
 #p b3lyp/gen scrf=(cpcm,solvent=toluene) pop=hirshfeld empiricaldisper
 sion=gd3bj
 ----------------------------------------------------------------------

 -------------------
 tmpdir/M3_ref_6.gjf
 -------------------
 Symbolic Z-matrix:
 Charge =  0 Multiplicity = 1

                         Standard orientation:
 ---------------------------------------------------------------------
 Center     Atomic      Atomic             Coordinates (Angstroms)
 Number     Number       Type             X           Y           Z
 ---------------------------------------------------------------------
      1          6           0        1.162389   -0.144313    0.007899
      2          6           0       -0.236471    0.370869    0.015382
      3          1           0        1.699617    0.376681   -0.911152
      4          1           0        1.701659    0.141920    0.922621
      5          1           0        1.217121   -1.232023   -0.107394
      6          1           0       -0.306240    1.460047    0.023824
      7          8           0       -1.233458   -0.263246   -0.008448
 ---------------------------------------------------------------------

 SCF Done:  E(RB3LYP) =  -153.809230442     A.U. after   10 cycles

 The electronic state is 1-A.
 Alpha  occ. eigenvalues --  -19.12775 -10.26915 -10.19297  -1.07645  -0.75628
 Alpha  occ. eigenvalues --   -0.58560  -0.48719  -0.45360  -0.44730  -0.39834
 Alpha  occ. eigenvalues --   -0.37617  -0.26549
 Alpha virt. eigenvalues --   -0.02579   0.04790   0.08256   0.10085   0.11698
 Alpha virt. eigenvalues --    0.21436   0.22624   0.41408   0.42380   0.44533
 Alpha virt. eigenvalues --    0.45766   0.54627   0.56295   0.59261   0.63132

 Mulliken charges:
               1
     1  C   -0.254538
     2  C    0.179642
     3  H    0.129569
     4  H    0.129169
     5  H    0.107513
     6  H    0.041534
     7  O   -0.332890
 Sum of Mulliken charges =  -0.00000

 Dipole moment (field-independent basis, Debye):
    X=              2.7659    Y=              1.2184    Z=              0.0801  Tot=              3.0234
 Quadrupole moment (field-independent basis, Debye-Ang):
   XX=            -21.3462   YY=            -18.2899   ZZ=            -17.8330
   XY=             -0.9095   XZ=              0.0683   YZ=             -0.0757

 Normal termination of Gaussian 16 at Fri Sep 22 16:27:51 2023.
