 Gaussian 16, Revision A.03,
 Gaussian 16:  ES64L-G16RevA.03 25-Dec-2016

 ----------------------------------------------------------------------
 #p b3lyp/gen scrf=(cpcm,solvent=toluene) pop=hirshfeld empiricaldisper
 sion=gd3bj
 ----------------------------------------------------------------------

 ---------------------
 tmpdir/M3_ref_161.gjf
 ---------------------
 Symbolic Z-matrix:
 Charge =  0 Multiplicity = 1

                         Standard orientation:
 ---------------------------------------------------------------------
 Center     Atomic      Atomic             Coordinates (Angstroms)
 Number     Number       Type             X           Y           Z
 ---------------------------------------------------------------------
      1          6           0       -0.874777    0.468817    0.010516
      2          7           0        0.440826    0.683329   -0.003133
      3          6           0        1.401848   -0.465996    0.009150
      4          1           0       -1.579106    1.320923    0.071469
      5          8           0       -1.317310   -0.707591   -0.013234
      6          1           0        0.914947    1.597000   -0.092844
      7          1           0        2.394281    0.057908   -0.095068
      8          1           0        1.340893   -0.987780    0.985918
      9          1           0        1.219254   -1.127549   -0.859666
 ---------------------------------------------------------------------

 SCF Done:  E(RB3LYP) =  -209.175572851     A.U. after   11 cycles

 The electronic state is 1-A.
 Alpha  occ. eigenvalues --  -19.08587 -14.35366 -10.27809 -10.22274  -1.02713
 Alpha  occ. eigenvalues --   -0.92002  -0.71591  -0.60122  -0.54901  -0.45857
 Alpha  occ. eigenvalues --   -0.45372  -0.40788  -0.39518  -0.37872  -0.26518
 Alpha  occ. eigenvalues --   -0.25889
 Alpha virt. eigenvalues --    0.01132   0.03287   0.06719   0.08488   0.11330
 Alpha virt. eigenvalues --    0.12215   0.15989   0.22312   0.31106   0.39556
 Alpha virt. eigenvalues --    0.40792   0.44107   0.44835   0.45295   0.55808

 Mulliken charges:
               1
     1  C    0.377461
     2  N   -0.465466
     3  C   -0.025225
     4  H    0.079986
     5  O   -0.496194
     6  H    0.203981
     7  H    0.092251
     8  H    0.116306
     9  H    0.116901
 Sum of Mulliken charges =  -0.00000

 Dipole moment (field-independent basis, Debye):
    X=              3.3882    Y=              3.3919    Z=             -0.0592  Tot=              4.7946
 Quadrupole moment (field-independent basis, Debye-Ang):
   XX=            -24.9889   YY=            -22.7164   ZZ=            -24.8883
   XY=             -2.9980   XZ=             -0.2467   YZ=             -0.2475

 Normal termination of Gaussian 16 at Fri Sep 22 16:28:49 2023.
