 Gaussian 16, Revision A.03,
 Gaussian 16:  ES64L-G16RevA.03 25-Dec-2016

 ----------------------------------------------------------------------
 #p b3lyp/gen scrf=(cpcm,solvent=toluene) pop=hirshfeld empiricaldisper
 sion=gd3bj
 ----------------------------------------------------------------------

 ---------------------
 tmpdir/M3_ref_186.gjf
 ---------------------
 Symbolic Z-matrix:
 Charge =  0 Multiplicity = 1

                         Standard orientation:
 ---------------------------------------------------------------------
 Center     Atomic      Atomic             Coordinates (Angstroms)
 Number     Number       Type             X           Y           Z
 ---------------------------------------------------------------------
      1          6           0       -0.536043   -0.009250   -0.002516
      2          8           0        0.686206    0.003811    0.000621
      3          1           0       -1.124363   -0.888979    0.005220
      4          1           0       -1.149032    0.913992    0.004903
 ---------------------------------------------------------------------

 SCF Done:  E(RB3LYP) =  -114.486635758     A.U. after    9 cycles

 The electronic state is 1-A.
 Alpha  occ. eigenvalues --  -19.14456 -10.27846  -1.06221  -0.65043  -0.49790
 Alpha  occ. eigenvalues --   -0.45922  -0.40290  -0.27691
 Alpha virt. eigenvalues --   -0.05699   0.06109   0.11913   0.17633   0.40233
 Alpha virt. eigenvalues --    0.49147   0.50076   0.58113   0.61325   0.71729
 Alpha virt. eigenvalues --    0.78022   0.87327   0.97345   1.33360   1.48834

 Mulliken charges:
               1
     1  C    0.206704
     2  O   -0.360122
     3  H    0.075403
     4  H    0.078015
 Sum of Mulliken charges =  -0.00000

 Dipole moment (field-independent basis, Debye):
    X=             -2.7763    Y=             -0.0830    Z=              0.0007  Tot=              2.7775
 Quadrupole moment (field-independent basis, Debye-Ang):
   XX=            -11.9282   YY=            -11.7310   ZZ=            -11.5776
   XY=              0.0690   XZ=             -0.0056   YZ=              0.0003

 Normal termination of Gaussian 16 at Fri Sep 22 16:29:35 2023.
