 Gaussian 16, Revision A.03,
 Gaussian 16:  ES64L-G16RevA.03 25-Dec-2016

 ----------------------------------------------------------------------
 #p b3lyp/gen scrf=(cpcm,solvent=toluene) pop=hirshfeld empiricaldisper
 sion=gd3bj
 ----------------------------------------------------------------------

 ---------------------
 tmpdir/M3_ref_226.gjf
 ---------------------
 Symbolic Z-matrix:
 Charge =  0 Multiplicity = 1

                         Standard orientation:
 ---------------------------------------------------------------------
 Center     Atomic      Atomic             Coordinates (Angstroms)
 Number     Number       Type             X           Y           Z
 ---------------------------------------------------------------------
      1          1           0       -1.197469    0.945166    0.002061
      2          6           0       -0.670051   -0.010371   -0.002880
      3          6           0        0.670437   -0.008018    0.000040
      4          1           0       -1.322622   -0.869710    0.010780
      5          1           0        1.298122   -0.898125   -0.001817
      6          1           0        1.219656    0.933006    0.006022
 ---------------------------------------------------------------------

 SCF Done:  E(RB3LYP) =  -78.5813143349     A.U. after    9 cycles

 The electronic state is 1-A.
 Alpha  occ. eigenvalues --  -10.18311 -10.18191  -0.76401  -0.58713  -0.46850
 Alpha  occ. eigenvalues --   -0.42987  -0.35763  -0.28023
 Alpha virt. eigenvalues --   -0.00508   0.06512   0.08880   0.09304   0.16209
 Alpha virt. eigenvalues --    0.28965   0.35473   0.40198   0.43017   0.51346
 Alpha virt. eigenvalues --    0.51508   0.54709   0.61882   0.64567   0.71423

 Mulliken charges:
               1
     1  H    0.098139
     2  C   -0.199169
     3  C   -0.201244
     4  H    0.100348
     5  H    0.101779
     6  H    0.100147
 Sum of Mulliken charges =  -0.00000

 Dipole moment (field-independent basis, Debye):
    X=             -0.0071    Y=              0.0252    Z=              0.0179  Tot=              0.0317
 Quadrupole moment (field-independent basis, Debye-Ang):
   XX=            -12.1050   YY=            -12.5796   ZZ=            -15.6661
   XY=              0.0619   XZ=             -0.0136   YZ=              0.0003

 Normal termination of Gaussian 16 at Fri Sep 22 16:30:27 2023.
