 Gaussian 16, Revision A.03,
 Gaussian 16:  ES64L-G16RevA.03 25-Dec-2016

 ----------------------------------------------------------------------
 #p b3lyp/gen scrf=(cpcm,solvent=toluene) pop=hirshfeld empiricaldisper
 sion=gd3bj
 ----------------------------------------------------------------------

 -------------------
 tmpdir/M3_ref_3.gjf
 -------------------
 Symbolic Z-matrix:
 Charge =  0 Multiplicity = 1

                         Standard orientation:
 ---------------------------------------------------------------------
 Center     Atomic      Atomic             Coordinates (Angstroms)
 Number     Number       Type             X           Y           Z
 ---------------------------------------------------------------------
      1          6           0        0.462307   -0.271646   -0.013548
      2          8           0        1.740904   -0.662423   -0.036579
      3          6           0        2.806512    0.309182    0.026723
      4          6           0       -0.505020   -1.314022    0.008797
      5          6           0        0.038609    1.063118   -0.012904
      6          6           0       -1.874552   -0.988213    0.015535
      7          6           0       -1.322009    1.352145   -0.002920
      8          1           0        0.760765    1.872508   -0.025157
      9          6           0       -2.283882    0.334230    0.006337
     10          1           0       -2.614011   -1.783258    0.017401
     11          1           0       -1.637869    2.393877   -0.007415
     12          1           0       -3.342918    0.579386    0.004750
     13          1           0        2.706992    0.860368    0.973161
     14          1           0        2.705096    1.015214   -0.804322
     15          1           0        3.726798   -0.253290   -0.007891
     16          1           0       -0.163880   -2.294184   -0.026011
 ---------------------------------------------------------------------

 SCF Done:  E(RB3LYP) =  -346.736121196     A.U. after   13 cycles

 The electronic state is 1-A.
 Alpha  occ. eigenvalues --  -19.15503 -10.24368 -10.23669 -10.18462 -10.18374
 Alpha  occ. eigenvalues --  -10.17955 -10.17524 -10.17405  -1.08061  -0.85751
 Alpha  occ. eigenvalues --   -0.76519  -0.75469  -0.70347  -0.61994  -0.59445
 Alpha  occ. eigenvalues --   -0.54237  -0.49488  -0.48726  -0.47571  -0.45387
 Alpha  occ. eigenvalues --   -0.43077  -0.42380  -0.38712  -0.37638  -0.36562
 Alpha  occ. eigenvalues --   -0.33336  -0.33035  -0.26172  -0.22717
 Alpha virt. eigenvalues --   -0.01823   0.00120   0.04654   0.06201   0.08305
 Alpha virt. eigenvalues --    0.09436   0.10397   0.11106   0.11533   0.13368
 Alpha virt. eigenvalues --    0.14661   0.14882   0.22998   0.24593   0.26220

 Mulliken charges:
               1
     1  C    0.211498
     2  O   -0.522750
     3  C    0.061664
     4  C   -0.045772
     5  C   -0.141906
     6  C   -0.046836
     7  C   -0.054034
     8  H    0.067970
     9  C   -0.065943
    10  H    0.064313
    11  H    0.063230
    12  H    0.059177
    13  H    0.094794
    14  H    0.099045
    15  H    0.114268
    16  H    0.041281
 Sum of Mulliken charges =  -0.00000

 Dipole moment (field-independent basis, Debye):
    X=              1.3834    Y=              1.3646    Z=              0.0432  Tot=              1.9437
 Quadrupole moment (field-independent basis, Debye-Ang):
   XX=            -39.0748   YY=            -44.9661   ZZ=            -52.0505
   XY=              3.3371   XZ=              0.2152   YZ=             -0.0425

 Normal termination of Gaussian 16 at Fri Sep 22 16:27:41 2023.
