 Gaussian 16, Revision A.03,
 Gaussian 16:  ES64L-G16RevA.03 25-Dec-2016

 ----------------------------------------------------------------------
 #p b3lyp/gen scrf=(cpcm,solvent=toluene) pop=hirshfeld empiricaldisper
 sion=gd3bj
 ----------------------------------------------------------------------

 --------------------
 tmpdir/M3_ref_22.gjf
 --------------------
 Symbolic Z-matrix:
 Charge =  0 Multiplicity = 1

                         Standard orientation:
 ---------------------------------------------------------------------
 Center     Atomic      Atomic             Coordinates (Angstroms)
 Number     Number       Type             X           Y           Z
 ---------------------------------------------------------------------
      1          6           0       -0.853780    0.487372    0.018203
      2          7           0        0.494399    0.635037   -0.029241
      3          6           0        1.438520   -0.456095    0.020646
      4          1           0       -1.373660    1.406458    0.101146
      5          8           0       -1.431404   -0.676238   -0.017065
      6          1           0        0.850931    1.596356   -0.043231
      7          1           0        0.989335   -1.294946   -0.513135
      8          1           0        1.613540   -0.738742    1.076751
      9          1           0        2.401857   -0.192143   -0.513419
 ---------------------------------------------------------------------

 SCF Done:  E(RB3LYP) =  -209.174342445     A.U. after   11 cycles

 The electronic state is 1-A.
 Alpha  occ. eigenvalues --  -19.09082 -14.35833 -10.28197 -10.21938  -1.00953
 Alpha  occ. eigenvalues --   -0.92720  -0.72674  -0.60354  -0.55270  -0.46772
 Alpha  occ. eigenvalues --   -0.45965  -0.41352  -0.39204  -0.37118  -0.26398
 Alpha  occ. eigenvalues --   -0.25945
 Alpha virt. eigenvalues --   -0.00216   0.03420   0.06636   0.09886   0.10750
 Alpha virt. eigenvalues --    0.12508   0.17614   0.21322   0.30678   0.38417
 Alpha virt. eigenvalues --    0.39479   0.43941   0.45820   0.48206   0.53476

 Mulliken charges:
               1
     1  C    0.399084
     2  N   -0.459206
     3  C   -0.017203
     4  H    0.070107
     5  O   -0.519535
     6  H    0.199306
     7  H    0.107277
     8  H    0.110095
     9  H    0.110074
 Sum of Mulliken charges =  -0.00000

 Dipole moment (field-independent basis, Debye):
    X=              3.7544    Y=              3.4454    Z=              0.0942  Tot=              5.0966
 Quadrupole moment (field-independent basis, Debye-Ang):
   XX=            -26.2059   YY=            -22.1245   ZZ=            -24.9758
   XY=             -3.3810   XZ=             -0.3462   YZ=              0.0434

 Normal termination of Gaussian 16 at Fri Sep 22 16:26:25 2023.
