 Gaussian 16, Revision A.03,
 Gaussian 16:  ES64L-G16RevA.03 25-Dec-2016

 ----------------------------------------------------------------------
 #p b3lyp/gen scrf=(cpcm,solvent=toluene) pop=hirshfeld empiricaldisper
 sion=gd3bj
 ----------------------------------------------------------------------

 ---------------------
 tmpdir/M3_ref_179.gjf
 ---------------------
 Symbolic Z-matrix:
 Charge =  0 Multiplicity = 1

                         Standard orientation:
 ---------------------------------------------------------------------
 Center     Atomic      Atomic             Coordinates (Angstroms)
 Number     Number       Type             X           Y           Z
 ---------------------------------------------------------------------
      1          6           0       -0.658604    0.030045   -0.008390
      2          6           0       -2.151270   -0.009405    0.010863
      3          1           0       -2.522486    1.010913   -0.132979
      4          7           0        0.185860   -1.088480    0.006642
      5          6           0        0.136231    1.150030    0.000722
      6          6           0        1.502991   -0.666518    0.012323
      7          6           0        1.497300    0.729574   -0.002483
      8          1           0       -0.210681    2.176382   -0.010463
      9          1           0       -2.581110   -0.632106   -0.782225
     10          1           0       -2.527680   -0.374261    0.974893
     11          1           0       -0.093890   -2.057162   -0.213408
     12          1           0        2.356208   -1.297402    0.133328
     13          1           0        2.318728    1.390642   -0.093851
 ---------------------------------------------------------------------

 SCF Done:  E(RB3LYP) =  -249.463493307     A.U. after   12 cycles

 The electronic state is 1-A.
 Alpha  occ. eigenvalues --  -14.35946 -10.20046 -10.19397 -10.17940 -10.15528
 Alpha  occ. eigenvalues --  -10.15324  -0.96995  -0.77519  -0.75982  -0.67225
 Alpha  occ. eigenvalues --   -0.58545  -0.56574  -0.51572  -0.44097  -0.43073
 Alpha  occ. eigenvalues --   -0.42610  -0.39626  -0.38602  -0.38245  -0.35877
 Alpha  occ. eigenvalues --   -0.24878  -0.20920
 Alpha virt. eigenvalues --    0.02156   0.04263   0.07107   0.07131   0.08674
 Alpha virt. eigenvalues --    0.10075   0.11366   0.12780   0.13753   0.19299
 Alpha virt. eigenvalues --    0.21386   0.23394   0.29342   0.32005   0.37185

 Mulliken charges:
               1
     1  C   -0.029954
     2  C   -0.033351
     3  H    0.100112
     4  N   -0.426130
     5  C   -0.144404
     6  C    0.117361
     7  C   -0.128864
     8  H    0.035554
     9  H    0.100070
    10  H    0.107634
    11  H    0.195067
    12  H    0.069230
    13  H    0.037677
 Sum of Mulliken charges =  -0.00000

 Dipole moment (field-independent basis, Debye):
    X=             -1.1090    Y=             -1.8885    Z=             -0.3073  Tot=              2.2115
 Quadrupole moment (field-independent basis, Debye-Ang):
   XX=            -33.8924   YY=            -30.7630   ZZ=            -40.6057
   XY=             -0.4466   XZ=              0.1723   YZ=              0.4928

 Normal termination of Gaussian 16 at Fri Sep 22 16:28:44 2023.
