 Gaussian 16, Revision A.03,
 Gaussian 16:  ES64L-G16RevA.03 25-Dec-2016

 ----------------------------------------------------------------------
 #p b3lyp/gen scrf=(cpcm,solvent=toluene) pop=hirshfeld empiricaldisper
 sion=gd3bj
 ----------------------------------------------------------------------

 -------------------
 tmpdir/M3_ref_0.gjf
 -------------------
 Symbolic Z-matrix:
 Charge =  0 Multiplicity = 1

                         Standard orientation:
 ---------------------------------------------------------------------
 Center     Atomic      Atomic             Coordinates (Angstroms)
 Number     Number       Type             X           Y           Z
 ---------------------------------------------------------------------
      1          6           0        0.542569   -0.199479   -0.035727
      2          6           0        1.949204   -0.479513   -0.008375
      3          6           0       -0.355796   -1.301933   -0.018231
      4          6           0        0.030579    1.111765   -0.017836
      5          6           0       -1.736214   -1.067006    0.000915
      6          6           0       -1.335536    1.334029    0.010805
      7          1           0        0.715735    1.954058   -0.015981
      8          6           0       -2.210585    0.240546    0.015060
      9          1           0       -2.437844   -1.894296    0.009858
     10          1           0       -1.724646    2.348835    0.031369
     11          1           0       -3.285842    0.409152    0.034768
     12          1           0        2.270557   -1.494399    0.203357
     13          8           0        2.881181    0.392956    0.009483
     14          1           0        0.107265   -2.297451   -0.018904
 ---------------------------------------------------------------------

 SCF Done:  E(RB3LYP) =  -345.535631947     A.U. after   13 cycles

 The electronic state is 1-A.
 Alpha  occ. eigenvalues --  -19.12148 -10.27077 -10.21221 -10.20652 -10.20528
 Alpha  occ. eigenvalues --  -10.20371 -10.20291 -10.20070  -1.02268  -0.88449
 Alpha  occ. eigenvalues --   -0.79101  -0.77400  -0.67246  -0.63277  -0.58733
 Alpha  occ. eigenvalues --   -0.53493  -0.49933  -0.47419  -0.45430  -0.44642
 Alpha  occ. eigenvalues --   -0.42849  -0.41244  -0.38159  -0.36906  -0.36454
 Alpha  occ. eigenvalues --   -0.28159  -0.27808  -0.26751
 Alpha virt. eigenvalues --   -0.08879  -0.03404   0.01798   0.04262   0.06313
 Alpha virt. eigenvalues --    0.08416   0.09846   0.11491   0.12936   0.13663
 Alpha virt. eigenvalues --    0.21683   0.22339   0.25042   0.25840   0.26728

 Mulliken charges:
               1
     1  C   -0.336694
     2  C    0.379481
     3  C    0.016443
     4  C    0.059272
     5  C   -0.034589
     6  C   -0.044002
     7  H    0.059579
     8  C   -0.041198
     9  H    0.077271
    10  H    0.078957
    11  H    0.079123
    12  H    0.056862
    13  O   -0.420049
    14  H    0.069545
 Sum of Mulliken charges =  -0.00000

 Dipole moment (field-independent basis, Debye):
    X=             -4.2598    Y=             -1.5896    Z=              0.0998  Tot=              4.5478
 Quadrupole moment (field-independent basis, Debye-Ang):
   XX=            -53.2991   YY=            -40.2161   ZZ=            -49.9305
   XY=             -4.7849   XZ=             -0.0001   YZ=             -0.0477

 Normal termination of Gaussian 16 at Fri Sep 22 16:26:44 2023.
