 Gaussian 16, Revision A.03,
 Gaussian 16:  ES64L-G16RevA.03 25-Dec-2016

 ----------------------------------------------------------------------
 #p b3lyp/gen scrf=(cpcm,solvent=toluene) pop=hirshfeld empiricaldisper
 sion=gd3bj
 ----------------------------------------------------------------------

 ---------------------
 tmpdir/M3_ref_133.gjf
 ---------------------
 Symbolic Z-matrix:
 Charge =  0 Multiplicity = 1

                         Standard orientation:
 ---------------------------------------------------------------------
 Center     Atomic      Atomic             Coordinates (Angstroms)
 Number     Number       Type             X           Y           Z
 ---------------------------------------------------------------------
      1          6           0       -3.670052   -1.244743   -0.171884
      2          6           0       -3.204589    0.169724    0.188674
      3          6           0       -1.696204    0.375259    0.040826
      4          6           0       -0.826830   -0.692810    0.060407
      5          6           0       -1.159726    1.690623   -0.053827
      6          6           0        0.580215   -0.510369    0.023140
      7          1           0       -1.198625   -1.712889    0.103012
      8          6           0        0.197250    1.906038   -0.062523
      9          1           0       -1.826220    2.544079   -0.150923
     10          6           0        1.110103    0.817916   -0.005423
     11          6           0        1.480502   -1.610053    0.013165
     12          1           0        0.585364    2.921131   -0.138473
     13          6           0        2.518097    0.997782    0.003751
     14          6           0        2.841432   -1.403809   -0.009560
     15          1           0        1.075237   -2.621163    0.023237
     16          6           0        3.363952   -0.088273   -0.003056
     17          1           0        2.916024    2.008706    0.032360
     18          1           0        3.521800   -2.253328   -0.023720
     19          1           0        4.441988    0.059689    0.002079
     20          1           0       -3.321399   -1.539422   -1.165155
     21          1           0       -3.304606   -1.966854    0.566678
     22          1           0       -4.765610   -1.277542   -0.154187
     23          1           0       -3.539783    0.440005    1.230236
     24          1           0       -3.789068    0.953871   -0.467284
 ---------------------------------------------------------------------

 SCF Done:  E(RB3LYP) =  -464.484075968     A.U. after   12 cycles

 The electronic state is 1-A.
 Alpha  occ. eigenvalues --  -10.19226 -10.19192 -10.19178 -10.19096 -10.18499
 Alpha  occ. eigenvalues --  -10.18498 -10.18489 -10.18435 -10.18383 -10.18286
 Alpha  occ. eigenvalues --  -10.17997 -10.17076  -0.88515  -0.83709  -0.78963
 Alpha  occ. eigenvalues --   -0.77289  -0.74074  -0.71857  -0.64976  -0.62329
 Alpha  occ. eigenvalues --   -0.60553  -0.58795  -0.52156  -0.51355  -0.48963
 Alpha  occ. eigenvalues --   -0.45696  -0.45244  -0.44681  -0.42879  -0.42483
 Alpha  occ. eigenvalues --   -0.41245  -0.39987  -0.39019  -0.36955  -0.36471
 Alpha  occ. eigenvalues --   -0.35380  -0.34048  -0.33441  -0.32500  -0.29451
 Alpha  occ. eigenvalues --   -0.24969  -0.22556
 Alpha virt. eigenvalues --   -0.04999  -0.02400   0.01382   0.04801   0.05364
 Alpha virt. eigenvalues --    0.05961   0.07122   0.07840   0.08481   0.10442
 Alpha virt. eigenvalues --    0.10942   0.11296   0.12272   0.14217   0.15190

 Mulliken charges:
               1
     1  C   -0.187850
     2  C   -0.144690
     3  C   -0.230939
     4  C    0.062088
     5  C    0.001835
     6  C   -0.126799
     7  H    0.036549
     8  C   -0.004637
     9  H    0.041946
    10  C   -0.133607
    11  C   -0.013694
    12  H    0.048233
    13  C    0.002515
    14  C   -0.039755
    15  H    0.046565
    16  C   -0.043750
    17  H    0.045943
    18  H    0.062952
    19  H    0.063728
    20  H    0.097578
    21  H    0.099268
    22  H    0.092764
    23  H    0.119467
    24  H    0.104290
 Sum of Mulliken charges =  -0.00000

 Dipole moment (field-independent basis, Debye):
    X=             -0.6550    Y=             -0.0204    Z=              0.0987  Tot=              0.6627
 Quadrupole moment (field-independent basis, Debye-Ang):
   XX=            -63.4797   YY=            -65.3552   ZZ=            -78.2098
   XY=             -0.0763   XZ=             -0.4723   YZ=             -0.4534

 Normal termination of Gaussian 16 at Fri Sep 22 16:30:12 2023.
