 Gaussian 16, Revision A.03,
 Gaussian 16:  ES64L-G16RevA.03 25-Dec-2016

 ----------------------------------------------------------------------
 #p b3lyp/gen scrf=(cpcm,solvent=toluene) pop=hirshfeld empiricaldisper
 sion=gd3bj
 ----------------------------------------------------------------------

 ---------------------
 tmpdir/M3_ref_104.gjf
 ---------------------
 Symbolic Z-matrix:
 Charge =  0 Multiplicity = 1

                         Standard orientation:
 ---------------------------------------------------------------------
 Center     Atomic      Atomic             Coordinates (Angstroms)
 Number     Number       Type             X           Y           Z
 ---------------------------------------------------------------------
      1          1           0        0.513799   -0.786677   -0.565667
      2          6           0       -0.006305    0.000109   -0.004777
      3          1           0        0.204574   -0.160082    1.059970
      4          1           0       -1.104992   -0.023127   -0.177357
      5          1           0        0.424451    0.969232   -0.288284
 ---------------------------------------------------------------------

 SCF Done:  E(RB3LYP) =  -40.5136665940     A.U. after    7 cycles

 The electronic state is 1-A.
 Alpha  occ. eigenvalues --  -10.16463  -0.69234  -0.39607  -0.39110  -0.38885
 Alpha virt. eigenvalues --    0.05617   0.12348   0.12551   0.12563   0.37189
 Alpha virt. eigenvalues --    0.37427   0.38387   0.63145   0.63670   0.63697
 Alpha virt. eigenvalues --    0.67345   0.96109   1.28825   1.29108   1.84421

 Mulliken charges:
               1
     1  H    0.088013
     2  C   -0.356091
     3  H    0.085104
     4  H    0.095164
     5  H    0.087810
 Sum of Mulliken charges =   0.00000

 Dipole moment (field-independent basis, Debye):
    X=              0.0405    Y=             -0.0007    Z=              0.0237  Tot=              0.0470
 Quadrupole moment (field-independent basis, Debye-Ang):
   XX=             -8.3315   YY=             -8.5065   ZZ=             -8.5578
   XY=             -0.0008   XZ=             -0.0044   YZ=              0.0024

 Normal termination of Gaussian 16 at Fri Sep 22 16:27:33 2023.
