 Gaussian 16, Revision A.03,
 Gaussian 16:  ES64L-G16RevA.03 25-Dec-2016

 ----------------------------------------------------------------------
 #p b3lyp/gen scrf=(cpcm,solvent=toluene) pop=hirshfeld empiricaldisper
 sion=gd3bj
 ----------------------------------------------------------------------

 ---------------------
 tmpdir/M3_ref_211.gjf
 ---------------------
 Symbolic Z-matrix:
 Charge =  0 Multiplicity = 1

                         Standard orientation:
 ---------------------------------------------------------------------
 Center     Atomic      Atomic             Coordinates (Angstroms)
 Number     Number       Type             X           Y           Z
 ---------------------------------------------------------------------
      1          6           0        1.297767   -0.261438    0.020916
      2          6           0       -0.004150    0.569673   -0.018724
      3          6           0       -1.295996   -0.269045   -0.001250
      4          1           0        2.180059    0.377072   -0.328200
      5          1           0        1.241671   -1.146735   -0.656564
      6          1           0        1.512521   -0.590233    1.037910
      7          1           0       -0.074796    1.372870    0.813136
      8          1           0        0.028022    1.123855   -0.962053
      9          1           0       -1.282377   -1.101396   -0.727232
     10          1           0       -2.140079    0.408179   -0.186820
     11          1           0       -1.450744   -0.678752    1.004175
 ---------------------------------------------------------------------

 SCF Done:  E(RB3LYP) =  -119.126855105     A.U. after   10 cycles

 The electronic state is 1-A.
 Alpha  occ. eigenvalues --  -10.17627 -10.17045 -10.16512  -0.77614  -0.67936
 Alpha  occ. eigenvalues --   -0.57857  -0.45406  -0.43191  -0.39892  -0.38515
 Alpha  occ. eigenvalues --   -0.34106  -0.33379  -0.32317
 Alpha virt. eigenvalues --    0.04439   0.08025   0.08584   0.09031   0.11633
 Alpha virt. eigenvalues --    0.13341   0.14075   0.14708   0.19054   0.23734
 Alpha virt. eigenvalues --    0.36735   0.38340   0.40026   0.41079   0.42128

 Mulliken charges:
               1
     1  C   -0.220745
     2  C   -0.277249
     3  C   -0.204379
     4  H    0.090148
     5  H    0.088641
     6  H    0.087403
     7  H    0.093795
     8  H    0.085166
     9  H    0.088719
    10  H    0.085853
    11  H    0.082647
 Sum of Mulliken charges =  -0.00000

 Dipole moment (field-independent basis, Debye):
    X=             -0.0372    Y=              0.0536    Z=             -0.0301  Tot=              0.0719
 Quadrupole moment (field-independent basis, Debye-Ang):
   XX=            -22.8425   YY=            -22.2084   ZZ=            -21.7688
   XY=             -0.1225   XZ=             -0.1512   YZ=              0.2141

 Normal termination of Gaussian 16 at Fri Sep 22 16:29:47 2023.
