 Gaussian 16, Revision A.03,
 Gaussian 16:  ES64L-G16RevA.03 25-Dec-2016

 ----------------------------------------------------------------------
 #p b3lyp/gen scrf=(cpcm,solvent=toluene) pop=hirshfeld empiricaldisper
 sion=gd3bj
 ----------------------------------------------------------------------

 --------------------
 tmpdir/M3_ref_30.gjf
 --------------------
 Symbolic Z-matrix:
 Charge =  0 Multiplicity = 1

                         Standard orientation:
 ---------------------------------------------------------------------
 Center     Atomic      Atomic             Coordinates (Angstroms)
 Number     Number       Type             X           Y           Z
 ---------------------------------------------------------------------
      1          6           0        0.008641    0.005764    0.003256
      2          1           0       -0.039941   -0.077641    1.089160
      3          1           0       -0.606159   -0.852777   -0.435996
      4          1           0       -0.473401    0.958277   -0.322677
      5          1           0        1.067656   -0.062445   -0.350024
 ---------------------------------------------------------------------

 SCF Done:  E(RB3LYP) =  -40.5121060550     A.U. after    7 cycles

 The electronic state is 1-A.
 Alpha  occ. eigenvalues --  -10.17094  -0.68779  -0.39413  -0.39293  -0.38170
 Alpha virt. eigenvalues --    0.05353   0.11794   0.12189   0.12537   0.37303
 Alpha virt. eigenvalues --    0.37583   0.38268   0.61324   0.62722   0.63185
 Alpha virt. eigenvalues --    0.65869   0.95747   1.29085   1.29419   1.83417

 Mulliken charges:
               1
     1  C   -0.371188
     2  H    0.090049
     3  H    0.090657
     4  H    0.093289
     5  H    0.097193
 Sum of Mulliken charges =   0.00000

 Dipole moment (field-independent basis, Debye):
    X=             -0.0204    Y=             -0.0005    Z=              0.0270  Tot=              0.0338
 Quadrupole moment (field-independent basis, Debye-Ang):
   XX=             -8.4184   YY=             -8.5767   ZZ=             -8.5455
   XY=             -0.0408   XZ=             -0.0267   YZ=             -0.0341

 Normal termination of Gaussian 16 at Fri Sep 22 16:26:59 2023.
