 Gaussian 16, Revision A.03,
 Gaussian 16:  ES64L-G16RevA.03 25-Dec-2016

 ----------------------------------------------------------------------
 #p b3lyp/gen scrf=(cpcm,solvent=toluene) pop=hirshfeld empiricaldisper
 sion=gd3bj
 ----------------------------------------------------------------------

 -------------------
 tmpdir/M3_ref_1.gjf
 -------------------
 Symbolic Z-matrix:
 Charge =  0 Multiplicity = 1

                         Standard orientation:
 ---------------------------------------------------------------------
 Center     Atomic      Atomic             Coordinates (Angstroms)
 Number     Number       Type             X           Y           Z
 ---------------------------------------------------------------------
      1          6           0        0.954087   -0.006472    0.001218
      2          8           0        2.285828   -0.126366   -0.010593
      3          6           0        0.221195   -1.225306    0.010273
      4          6           0        0.265409    1.212887    0.002470
      5          6           0       -1.186057   -1.187570    0.004662
      6          6           0       -1.125598    1.216436    0.000059
      7          1           0        0.806103    2.153322    0.000249
      8          6           0       -1.858057    0.022734   -0.003831
      9          1           0       -1.746537   -2.117459   -0.003624
     10          1           0       -1.648537    2.171168   -0.003815
     11          1           0       -2.944808    0.045310   -0.014991
     12          1           0        2.864699    0.676699    0.042499
     13          1           0        0.756585   -2.114373   -0.024683
 ---------------------------------------------------------------------

 SCF Done:  E(RB3LYP) =  -307.436376511     A.U. after   12 cycles

 The electronic state is 1-A.
 Alpha  occ. eigenvalues --  -19.15882 -10.24902 -10.18572 -10.18494 -10.18111
 Alpha  occ. eigenvalues --  -10.17630 -10.17499  -1.07459  -0.85735  -0.75625
 Alpha  occ. eigenvalues --   -0.74784  -0.63528  -0.61631  -0.55742  -0.50587
 Alpha  occ. eigenvalues --   -0.47518  -0.44665  -0.43069  -0.42309  -0.39055
 Alpha  occ. eigenvalues --   -0.36878  -0.34722  -0.34299  -0.26270  -0.23103
 Alpha virt. eigenvalues --   -0.01858   0.00003   0.03255   0.05217   0.08356
 Alpha virt. eigenvalues --    0.09925   0.12385   0.13525   0.14666   0.22224
 Alpha virt. eigenvalues --    0.23033   0.26139   0.29918   0.31052   0.38533

 Mulliken charges:
               1
     1  C    0.161994
     2  O   -0.405443
     3  C   -0.049930
     4  C   -0.095221
     5  C   -0.046538
     6  C   -0.061210
     7  H    0.066635
     8  C   -0.067769
     9  H    0.065826
    10  H    0.065703
    11  H    0.060034
    12  H    0.261220
    13  H    0.044699
 Sum of Mulliken charges =  -0.00000

 Dipole moment (field-independent basis, Debye):
    X=              0.7547    Y=              1.5666    Z=              0.0517  Tot=              1.7397
 Quadrupole moment (field-independent basis, Debye-Ang):
   XX=            -34.8547   YY=            -36.4766   ZZ=            -45.7528
   XY=              4.9225   XZ=              0.3384   YZ=              0.1420

 Normal termination of Gaussian 16 at Fri Sep 22 16:27:05 2023.
