 Gaussian 16, Revision A.03,
 Gaussian 16:  ES64L-G16RevA.03 25-Dec-2016

 ----------------------------------------------------------------------
 #p b3lyp/gen scrf=(cpcm,solvent=toluene) pop=hirshfeld empiricaldisper
 sion=gd3bj
 ----------------------------------------------------------------------

 ---------------------
 tmpdir/M3_ref_162.gjf
 ---------------------
 Symbolic Z-matrix:
 Charge =  0 Multiplicity = 1

                         Standard orientation:
 ---------------------------------------------------------------------
 Center     Atomic      Atomic             Coordinates (Angstroms)
 Number     Number       Type             X           Y           Z
 ---------------------------------------------------------------------
      1          6           0       -0.721630    0.396719    0.022851
      2          7           0        0.373758   -0.362443    0.051337
      3          6           0        1.770745    0.105652   -0.032235
      4          1           0       -0.638747    1.499344    0.079667
      5          8           0       -1.855567   -0.142765   -0.036127
      6          1           0        0.298777   -1.408720    0.064027
      7          1           0        2.297414   -0.764191   -0.462314
      8          1           0        2.146278    0.344868    0.971269
      9          1           0        1.829817    0.993688   -0.666688
 ---------------------------------------------------------------------

 SCF Done:  E(RB3LYP) =  -209.173444549     A.U. after   11 cycles

 The electronic state is 1-A.
 Alpha  occ. eigenvalues --  -19.08249 -14.35194 -10.27861 -10.22492  -1.02397
 Alpha  occ. eigenvalues --   -0.92512  -0.71795  -0.62643  -0.51146  -0.48396
 Alpha  occ. eigenvalues --   -0.46137  -0.41688  -0.40150  -0.38281  -0.25881
 Alpha  occ. eigenvalues --   -0.25587
 Alpha virt. eigenvalues --    0.00741   0.03540   0.05693   0.09089   0.11350
 Alpha virt. eigenvalues --    0.11991   0.15994   0.22063   0.30206   0.37569
 Alpha virt. eigenvalues --    0.40459   0.42235   0.46288   0.48324   0.55264

 Mulliken charges:
               1
     1  C    0.364514
     2  N   -0.467882
     3  C   -0.003515
     4  H    0.071128
     5  O   -0.494455
     6  H    0.207199
     7  H    0.106308
     8  H    0.108032
     9  H    0.108672
 Sum of Mulliken charges =  -0.00000

 Dipole moment (field-independent basis, Debye):
    X=              5.1540    Y=              0.4455    Z=              0.0623  Tot=              5.1736
 Quadrupole moment (field-independent basis, Debye-Ang):
   XX=            -30.8711   YY=            -20.7460   ZZ=            -24.9976
   XY=             -1.9133   XZ=             -0.3758   YZ=             -0.0249

 Normal termination of Gaussian 16 at Fri Sep 22 16:28:58 2023.
