 Gaussian 16, Revision A.03,
 Gaussian 16:  ES64L-G16RevA.03 25-Dec-2016

 ----------------------------------------------------------------------
 #p b3lyp/gen scrf=(cpcm,solvent=toluene) pop=hirshfeld empiricaldisper
 sion=gd3bj
 ----------------------------------------------------------------------

 --------------------
 tmpdir/M3_ref_54.gjf
 --------------------
 Symbolic Z-matrix:
 Charge =  0 Multiplicity = 1

                         Standard orientation:
 ---------------------------------------------------------------------
 Center     Atomic      Atomic             Coordinates (Angstroms)
 Number     Number       Type             X           Y           Z
 ---------------------------------------------------------------------
      1          1           0        0.270847    0.678640   -0.812759
      2          6           0       -0.004592   -0.009069   -0.002367
      3          1           0       -0.120767    0.610292    0.895175
      4          1           0       -0.963883   -0.514233   -0.213583
      5          1           0        0.841353   -0.720286    0.145370
 ---------------------------------------------------------------------

 SCF Done:  E(RB3LYP) =  -40.5133331919     A.U. after    7 cycles

 The electronic state is 1-A.
 Alpha  occ. eigenvalues --  -10.16558  -0.69172  -0.39790  -0.39051  -0.38641
 Alpha virt. eigenvalues --    0.05575   0.12297   0.12456   0.12556   0.36919
 Alpha virt. eigenvalues --    0.37494   0.38633   0.62927   0.63425   0.63682
 Alpha virt. eigenvalues --    0.67096   0.96056   1.28629   1.29405   1.83153

 Mulliken charges:
               1
     1  H    0.085977
     2  C   -0.358483
     3  H    0.084880
     4  H    0.094820
     5  H    0.092806
 Sum of Mulliken charges =   0.00000

 Dipole moment (field-independent basis, Debye):
    X=              0.0109    Y=              0.0546    Z=              0.0103  Tot=              0.0566
 Quadrupole moment (field-independent basis, Debye-Ang):
   XX=             -8.3145   YY=             -8.4865   ZZ=             -8.6182
   XY=              0.0192   XZ=              0.0009   YZ=              0.0036

 Normal termination of Gaussian 16 at Fri Sep 22 16:27:03 2023.
