 Gaussian 16, Revision A.03,
 Gaussian 16:  ES64L-G16RevA.03 25-Dec-2016

 ----------------------------------------------------------------------
 #p b3lyp/gen scrf=(cpcm,solvent=toluene) pop=hirshfeld empiricaldisper
 sion=gd3bj
 ----------------------------------------------------------------------

 --------------------
 tmpdir/M3_ref_96.gjf
 --------------------
 Symbolic Z-matrix:
 Charge =  0 Multiplicity = 1

                         Standard orientation:
 ---------------------------------------------------------------------
 Center     Atomic      Atomic             Coordinates (Angstroms)
 Number     Number       Type             X           Y           Z
 ---------------------------------------------------------------------
      1          6           0        1.260458   -0.263819   -0.006039
      2          6           0       -0.000098    0.616174   -0.000835
      3          6           0       -1.253165   -0.275437   -0.001070
      4          1           0        1.330300   -0.891174   -0.902890
      5          1           0        2.174436    0.335850    0.059412
      6          1           0        1.231160   -0.937103    0.860994
      7          1           0       -0.065308    1.294150   -0.905827
      8          1           0       -0.003572    1.247006    0.915394
      9          1           0       -2.169243    0.329123   -0.033244
     10          1           0       -1.264777   -0.956497   -0.859041
     11          1           0       -1.276167   -0.882868    0.912864
 ---------------------------------------------------------------------

 SCF Done:  E(RB3LYP) =  -119.131689429     A.U. after   10 cycles

 The electronic state is 1-A.
 Alpha  occ. eigenvalues --  -10.17556 -10.16397 -10.16282  -0.78020  -0.67889
 Alpha  occ. eigenvalues --   -0.58192  -0.45730  -0.43707  -0.39842  -0.38051
 Alpha  occ. eigenvalues --   -0.34044  -0.33608  -0.33006
 Alpha virt. eigenvalues --    0.04707   0.08545   0.08838   0.08867   0.11701
 Alpha virt. eigenvalues --    0.13420   0.14433   0.15427   0.19039   0.23211
 Alpha virt. eigenvalues --    0.37741   0.38703   0.39859   0.40056   0.41167

 Mulliken charges:
               1
     1  C   -0.208338
     2  C   -0.260613
     3  C   -0.214469
     4  H    0.084182
     5  H    0.086125
     6  H    0.081044
     7  H    0.092236
     8  H    0.090725
     9  H    0.085048
    10  H    0.082920
    11  H    0.081143
 Sum of Mulliken charges =  -0.00000

 Dipole moment (field-independent basis, Debye):
    X=              0.0026    Y=              0.0226    Z=              0.0284  Tot=              0.0364
 Quadrupole moment (field-independent basis, Debye-Ang):
   XX=            -22.7047   YY=            -22.2938   ZZ=            -21.6555
   XY=             -0.1123   XZ=              0.0658   YZ=              0.0620

 Normal termination of Gaussian 16 at Fri Sep 22 16:28:14 2023.
