 Gaussian 16, Revision A.03,
 Gaussian 16:  ES64L-G16RevA.03 25-Dec-2016

 ----------------------------------------------------------------------
 #p b3lyp/gen scrf=(cpcm,solvent=toluene) pop=hirshfeld empiricaldisper
 sion=gd3bj
 ----------------------------------------------------------------------

 ---------------------
 tmpdir/M3_ref_127.gjf
 ---------------------
 Symbolic Z-matrix:
 Charge =  0 Multiplicity = 1

                         Standard orientation:
 ---------------------------------------------------------------------
 Center     Atomic      Atomic             Coordinates (Angstroms)
 Number     Number       Type             X           Y           Z
 ---------------------------------------------------------------------
      1          6           0       -3.536087   -0.678823    0.078495
      2          6           0       -2.093386   -0.181805   -0.025991
      3          6           0       -1.034570   -1.062606   -0.017841
      4          6           0       -1.819472    1.214700   -0.067141
      5          6           0        0.311172   -0.611586   -0.015022
      6          1           0       -1.203027   -2.136023   -0.015620
      7          6           0       -0.529734    1.687426   -0.035991
      8          1           0       -2.636401    1.926775   -0.154351
      9          6           0        0.574928    0.794024    0.010102
     10          6           0        1.406957   -1.516413   -0.036615
     11          1           0       -0.343701    2.760255   -0.071284
     12          6           0        1.921256    1.241085    0.059270
     13          6           0        2.702600   -1.051432   -0.019666
     14          1           0        1.204524   -2.586345   -0.067448
     15          6           0        2.960953    0.339038    0.039926
     16          1           0        2.115825    2.308078    0.128569
     17          1           0        3.534396   -1.753105   -0.043167
     18          1           0        3.989830    0.691446    0.075998
     19          1           0       -3.936004   -0.514498    1.119323
     20          1           0       -4.249039    0.000502   -0.567259
     21          1           0       -3.664107   -1.738733   -0.221922
 ---------------------------------------------------------------------

 SCF Done:  E(RB3LYP) =  -425.173557461     A.U. after   12 cycles

 The electronic state is 1-A.
 Alpha  occ. eigenvalues --  -10.19545 -10.19234 -10.19155 -10.19031 -10.18591
 Alpha  occ. eigenvalues --  -10.18542 -10.18532 -10.18475 -10.18420 -10.18383
 Alpha  occ. eigenvalues --  -10.18128  -0.88550  -0.83566  -0.78488  -0.76358
 Alpha  occ. eigenvalues --   -0.73321  -0.68760  -0.62971  -0.60545  -0.60353
 Alpha  occ. eigenvalues --   -0.52121  -0.51312  -0.49142  -0.45522  -0.44928
 Alpha  occ. eigenvalues --   -0.43060  -0.42363  -0.41861  -0.40145  -0.39338
 Alpha  occ. eigenvalues --   -0.38370  -0.37100  -0.34566  -0.33863  -0.32875
 Alpha  occ. eigenvalues --   -0.29494  -0.25054  -0.22584
 Alpha virt. eigenvalues --   -0.05069  -0.02440   0.01346   0.04814   0.05454
 Alpha virt. eigenvalues --    0.06402   0.07247   0.08236   0.09488   0.11046
 Alpha virt. eigenvalues --    0.11419   0.12525   0.14366   0.15287   0.18042

 Mulliken charges:
               1
     1  C   -0.092334
     2  C   -0.291189
     3  C    0.073535
     4  C    0.004012
     5  C   -0.136424
     6  H    0.032404
     7  C   -0.004833
     8  H    0.044000
     9  C   -0.134747
    10  C   -0.009208
    11  H    0.049155
    12  C    0.002810
    13  C   -0.041589
    14  H    0.047014
    15  C   -0.044560
    16  H    0.046262
    17  H    0.064146
    18  H    0.063975
    19  H    0.119232
    20  H    0.104483
    21  H    0.103856
 Sum of Mulliken charges =  -0.00000

 Dipole moment (field-independent basis, Debye):
    X=             -0.5185    Y=             -0.0232    Z=              0.0992  Tot=              0.5284
 Quadrupole moment (field-independent basis, Debye-Ang):
   XX=            -56.9664   YY=            -58.1956   ZZ=            -71.7865
   XY=              0.0244   XZ=             -0.1412   YZ=              0.0982

 Normal termination of Gaussian 16 at Fri Sep 22 16:29:05 2023.
