 Gaussian 16, Revision A.03,
 Gaussian 16:  ES64L-G16RevA.03 25-Dec-2016

 ----------------------------------------------------------------------
 #p b3lyp/gen scrf=(cpcm,solvent=toluene) pop=hirshfeld empiricaldisper
 sion=gd3bj
 ----------------------------------------------------------------------

 ---------------------
 tmpdir/M3_ref_210.gjf
 ---------------------
 Symbolic Z-matrix:
 Charge =  0 Multiplicity = 1

                         Standard orientation:
 ---------------------------------------------------------------------
 Center     Atomic      Atomic             Coordinates (Angstroms)
 Number     Number       Type             X           Y           Z
 ---------------------------------------------------------------------
      1          6           0        0.006747    0.006028   -0.014068
      2          1           0        0.170853   -0.114979    1.061316
      3          1           0        0.990959   -0.216886   -0.496362
      4          1           0       -0.370242    1.040173   -0.192122
      5          1           0       -0.832050   -0.744476   -0.288424
 ---------------------------------------------------------------------

 SCF Done:  E(RB3LYP) =  -40.5100052276     A.U. after    8 cycles

 The electronic state is 1-A.
 Alpha  occ. eigenvalues --  -10.17265  -0.68706  -0.39952  -0.38672  -0.37972
 Alpha virt. eigenvalues --    0.05234   0.11592   0.12187   0.12407   0.36293
 Alpha virt. eigenvalues --    0.37653   0.39358   0.60512   0.62504   0.63016
 Alpha virt. eigenvalues --    0.65878   0.95720   1.28682   1.30069   1.79999

 Mulliken charges:
               1
     1  C   -0.374851
     2  H    0.083278
     3  H    0.099443
     4  H    0.096529
     5  H    0.095602
 Sum of Mulliken charges =   0.00000

 Dipole moment (field-independent basis, Debye):
    X=              0.0102    Y=              0.0061    Z=              0.1009  Tot=              0.1016
 Quadrupole moment (field-independent basis, Debye-Ang):
   XX=             -8.3017   YY=             -8.5116   ZZ=             -8.7718
   XY=             -0.0665   XZ=             -0.0272   YZ=             -0.0238

 Normal termination of Gaussian 16 at Fri Sep 22 16:29:38 2023.
