 Gaussian 16, Revision A.03,
 Gaussian 16:  ES64L-G16RevA.03 25-Dec-2016

 ----------------------------------------------------------------------
 #p b3lyp/gen scrf=(cpcm,solvent=toluene) pop=hirshfeld empiricaldisper
 sion=gd3bj
 ----------------------------------------------------------------------

 ---------------------
 tmpdir/M3_ref_230.gjf
 ---------------------
 Symbolic Z-matrix:
 Charge =  0 Multiplicity = 1

                         Standard orientation:
 ---------------------------------------------------------------------
 Center     Atomic      Atomic             Coordinates (Angstroms)
 Number     Number       Type             X           Y           Z
 ---------------------------------------------------------------------
      1          6           0        1.263501   -0.218385   -0.002749
      2          6           0        0.133529    0.502783   -0.001690
      3          6           0       -1.206616   -0.182501    0.000606
      4          1           0        2.276506    0.153101    0.015064
      5          1           0        1.192094   -1.307487   -0.000696
      6          1           0        0.085203    1.590877   -0.001044
      7          1           0       -1.797691    0.107999   -0.880262
      8          1           0       -1.107851   -1.273486    0.006467
      9          1           0       -1.790739    0.117614    0.883470
 ---------------------------------------------------------------------

 SCF Done:  E(RB3LYP) =  -117.896615308     A.U. after   10 cycles

 The electronic state is 1-A.
 Alpha  occ. eigenvalues --  -10.18513 -10.17276 -10.17048  -0.79110  -0.68379
 Alpha  occ. eigenvalues --   -0.56158  -0.47225  -0.42112  -0.41363  -0.37481
 Alpha  occ. eigenvalues --   -0.35051  -0.26244
 Alpha virt. eigenvalues --    0.00564   0.05863   0.07913   0.09220   0.11887
 Alpha virt. eigenvalues --    0.12439   0.14521   0.22424   0.32107   0.36569
 Alpha virt. eigenvalues --    0.40192   0.40382   0.48140   0.49074   0.53474

 Mulliken charges:
               1
     1  C   -0.129408
     2  C   -0.251032
     3  C   -0.165580
     4  H    0.092508
     5  H    0.086806
     6  H    0.076829
     7  H    0.101430
     8  H    0.087099
     9  H    0.101349
 Sum of Mulliken charges =  -0.00000

 Dipole moment (field-independent basis, Debye):
    X=             -0.4467    Y=              0.0753    Z=              0.0204  Tot=              0.4534
 Quadrupole moment (field-independent basis, Debye-Ang):
   XX=            -19.4123   YY=            -19.1252   ZZ=            -22.0789
   XY=             -0.4189   XZ=              0.0403   YZ=              0.0038

 Normal termination of Gaussian 16 at Fri Sep 22 16:30:49 2023.
