 Gaussian 16, Revision A.03,
 Gaussian 16:  ES64L-G16RevA.03 25-Dec-2016

 ----------------------------------------------------------------------
 #p b3lyp/gen scrf=(cpcm,solvent=toluene) pop=hirshfeld empiricaldisper
 sion=gd3bj
 ----------------------------------------------------------------------

 --------------------
 tmpdir/M3_ref_14.gjf
 --------------------
 Symbolic Z-matrix:
 Charge =  0 Multiplicity = 1

                         Standard orientation:
 ---------------------------------------------------------------------
 Center     Atomic      Atomic             Coordinates (Angstroms)
 Number     Number       Type             X           Y           Z
 ---------------------------------------------------------------------
      1          6           0       -0.123721    0.404379    0.019755
      2          7           0        1.087444   -0.182821   -0.044687
      3          1           0       -0.074534    1.467986    0.083897
      4          8           0       -1.250199   -0.242917   -0.010845
      5          1           0        1.881581    0.468463   -0.015353
      6          1           0        1.324769   -1.139644    0.212489
 ---------------------------------------------------------------------

 SCF Done:  E(RB3LYP) =  -169.866936623     A.U. after   11 cycles

 The electronic state is 1-A.
 Alpha  occ. eigenvalues --  -19.09543 -14.35951 -10.29103  -1.00951  -0.91872
 Alpha  occ. eigenvalues --   -0.64826  -0.55207  -0.49968  -0.41245  -0.39790
 Alpha  occ. eigenvalues --   -0.28144  -0.26284
 Alpha virt. eigenvalues --   -0.00875   0.03564   0.06441   0.12049   0.20361
 Alpha virt. eigenvalues --    0.30212   0.41655   0.43377   0.47926   0.51657
 Alpha virt. eigenvalues --    0.55018   0.66107   0.66974   0.68912   0.74238

 Mulliken charges:
               1
     1  C    0.366393
     2  N   -0.344310
     3  H    0.072430
     4  O   -0.503346
     5  H    0.203528
     6  H    0.205304
 Sum of Mulliken charges =  -0.00000

 Dipole moment (field-independent basis, Debye):
    X=              5.0040    Y=              1.2326    Z=              0.5934  Tot=              5.1876
 Quadrupole moment (field-independent basis, Debye-Ang):
   XX=            -18.2078   YY=            -15.0242   ZZ=            -18.7998
   XY=             -1.3294   XZ=              0.6574   YZ=             -0.5094

 Normal termination of Gaussian 16 at Fri Sep 22 16:26:35 2023.
