 Gaussian 16, Revision A.03,
 Gaussian 16:  ES64L-G16RevA.03 25-Dec-2016

 ----------------------------------------------------------------------
 #p b3lyp/gen scrf=(cpcm,solvent=toluene) pop=hirshfeld empiricaldisper
 sion=gd3bj
 ----------------------------------------------------------------------

 --------------------
 tmpdir/M3_ref_56.gjf
 --------------------
 Symbolic Z-matrix:
 Charge =  0 Multiplicity = 1

                         Standard orientation:
 ---------------------------------------------------------------------
 Center     Atomic      Atomic             Coordinates (Angstroms)
 Number     Number       Type             X           Y           Z
 ---------------------------------------------------------------------
      1          1           0       -1.145530   -0.291597   -0.984339
      2          6           0       -0.772165    0.010025    0.001719
      3          6           0        0.768101    0.010010   -0.012448
      4          1           0       -1.203353    0.993406    0.260718
      5          1           0       -1.102797   -0.767529    0.702888
      6          1           0        1.225426    0.860335   -0.577047
      7          1           0        1.133595   -1.033901   -0.357079
      8          1           0        1.117044    0.119080    1.019234
 ---------------------------------------------------------------------

 SCF Done:  E(RB3LYP) =  -79.8175072932     A.U. after    9 cycles

 The electronic state is 1-A.
 Alpha  occ. eigenvalues --  -10.17347 -10.16729  -0.75067  -0.61028  -0.43869
 Alpha  occ. eigenvalues --   -0.43005  -0.36447  -0.34899  -0.33735
 Alpha virt. eigenvalues --    0.04776   0.08999   0.10008   0.10589   0.13446
 Alpha virt. eigenvalues --    0.13940   0.20989   0.37422   0.38279   0.39946
 Alpha virt. eigenvalues --    0.44789   0.49460   0.57819   0.61404   0.63495

 Mulliken charges:
               1
     1  H    0.085366
     2  C   -0.253966
     3  C   -0.282735
     4  H    0.092853
     5  H    0.086424
     6  H    0.095863
     7  H    0.093388
     8  H    0.082809
 Sum of Mulliken charges =  -0.00000

 Dipole moment (field-independent basis, Debye):
    X=             -0.0361    Y=             -0.0097    Z=              0.0714  Tot=              0.0806
 Quadrupole moment (field-independent basis, Debye-Ang):
   XX=            -16.0952   YY=            -14.7590   ZZ=            -15.3212
   XY=              0.0698   XZ=              0.0507   YZ=             -0.0376

 Normal termination of Gaussian 16 at Fri Sep 22 16:26:26 2023.
