 Gaussian 16, Revision A.03,
 Gaussian 16:  ES64L-G16RevA.03 25-Dec-2016

 ----------------------------------------------------------------------
 #p b3lyp/gen scrf=(cpcm,solvent=toluene) pop=hirshfeld empiricaldisper
 sion=gd3bj
 ----------------------------------------------------------------------

 --------------------
 tmpdir/M3_ref_83.gjf
 --------------------
 Symbolic Z-matrix:
 Charge =  0 Multiplicity = 1

                         Standard orientation:
 ---------------------------------------------------------------------
 Center     Atomic      Atomic             Coordinates (Angstroms)
 Number     Number       Type             X           Y           Z
 ---------------------------------------------------------------------
      1          6           0        0.561442   -0.010583   -0.003863
      2          8           0       -0.695555    0.005855    0.000866
      3          1           0        1.124615    0.942610    0.007901
      4          1           0        1.071167   -0.925948    0.008352
 ---------------------------------------------------------------------

 SCF Done:  E(RB3LYP) =  -114.483315008     A.U. after    9 cycles

 The electronic state is 1-A.
 Alpha  occ. eigenvalues --  -19.14207 -10.28031  -1.04289  -0.65068  -0.50354
 Alpha  occ. eigenvalues --   -0.44862  -0.39096  -0.27685
 Alpha virt. eigenvalues --   -0.06475   0.06067   0.11463   0.17364   0.40457
 Alpha virt. eigenvalues --    0.45847   0.52679   0.56871   0.59603   0.71716
 Alpha virt. eigenvalues --    0.79233   0.87425   0.97831   1.32096   1.49404

 Mulliken charges:
               1
     1  C    0.208091
     2  O   -0.389183
     3  H    0.095780
     4  H    0.085312
 Sum of Mulliken charges =   0.00000

 Dipole moment (field-independent basis, Debye):
    X=              2.9272    Y=             -0.0786    Z=              0.0030  Tot=              2.9283
 Quadrupole moment (field-independent basis, Debye-Ang):
   XX=            -12.0069   YY=            -11.4536   ZZ=            -11.6702
   XY=             -0.0280   XZ=              0.0087   YZ=              0.0004

 Normal termination of Gaussian 16 at Fri Sep 22 16:27:47 2023.
