 Gaussian 16, Revision A.03,
 Gaussian 16:  ES64L-G16RevA.03 25-Dec-2016

 ----------------------------------------------------------------------
 #p b3lyp/gen scrf=(cpcm,solvent=toluene) pop=hirshfeld empiricaldisper
 sion=gd3bj
 ----------------------------------------------------------------------

 --------------------
 tmpdir/M3_ref_85.gjf
 --------------------
 Symbolic Z-matrix:
 Charge =  0 Multiplicity = 1

                         Standard orientation:
 ---------------------------------------------------------------------
 Center     Atomic      Atomic             Coordinates (Angstroms)
 Number     Number       Type             X           Y           Z
 ---------------------------------------------------------------------
      1          6           0       -1.174163   -0.147449    0.003606
      2          6           0        0.232660    0.452663   -0.007799
      3          8           0        1.235675   -0.305033    0.006052
      4          1           0       -1.230924   -0.981301   -0.764021
      5          1           0       -1.898698    0.612562   -0.292688
      6          1           0       -1.470819   -0.514429    1.033284
      7          1           0        0.364057    1.492150    0.000167
 ---------------------------------------------------------------------

 SCF Done:  E(RB3LYP) =  -153.805443393     A.U. after   10 cycles

 The electronic state is 1-A.
 Alpha  occ. eigenvalues --  -19.12805 -10.27696 -10.19454  -1.03588  -0.74886
 Alpha  occ. eigenvalues --   -0.60103  -0.48127  -0.44205  -0.43501  -0.39565
 Alpha  occ. eigenvalues --   -0.36156  -0.26796
 Alpha virt. eigenvalues --   -0.05274   0.05377   0.07592   0.11211   0.12006
 Alpha virt. eigenvalues --    0.19817   0.21605   0.39848   0.41622   0.44977
 Alpha virt. eigenvalues --    0.46368   0.55793   0.58025   0.59134   0.60163

 Mulliken charges:
               1
     1  C   -0.249807
     2  C    0.203627
     3  O   -0.395998
     4  H    0.132960
     5  H    0.097237
     6  H    0.144679
     7  H    0.067301
 Sum of Mulliken charges =  -0.00000

 Dipole moment (field-independent basis, Debye):
    X=             -2.8549    Y=              1.5649    Z=              0.0289  Tot=              3.2558
 Quadrupole moment (field-independent basis, Debye-Ang):
   XX=            -21.6271   YY=            -17.7971   ZZ=            -17.8429
   XY=              1.3867   XZ=             -0.1652   YZ=              0.0366

 Normal termination of Gaussian 16 at Fri Sep 22 16:27:57 2023.
