 Gaussian 16, Revision A.03,
 Gaussian 16:  ES64L-G16RevA.03 25-Dec-2016

 ----------------------------------------------------------------------
 #p b3lyp/gen scrf=(cpcm,solvent=toluene) pop=hirshfeld empiricaldisper
 sion=gd3bj
 ----------------------------------------------------------------------

 --------------------
 tmpdir/M3_ref_60.gjf
 --------------------
 Symbolic Z-matrix:
 Charge =  0 Multiplicity = 1

                         Standard orientation:
 ---------------------------------------------------------------------
 Center     Atomic      Atomic             Coordinates (Angstroms)
 Number     Number       Type             X           Y           Z
 ---------------------------------------------------------------------
      1          6           0        1.247885   -0.264041   -0.000738
      2          6           0       -0.004022    0.607878   -0.010279
      3          6           0       -1.252004   -0.273123   -0.000504
      4          1           0        1.307417   -0.983439   -0.852089
      5          1           0        1.272072   -0.838933    0.937498
      6          1           0        2.161431    0.344017   -0.012968
      7          1           0        0.008247    1.278194    0.859178
      8          1           0       -0.013568    1.251063   -0.904341
      9          1           0       -1.259239   -0.928307   -0.889732
     10          1           0       -2.165657    0.335596    0.014629
     11          1           0       -1.261858   -0.882472    0.916955
 ---------------------------------------------------------------------

 SCF Done:  E(RB3LYP) =  -119.132261146     A.U. after   10 cycles

 The electronic state is 1-A.
 Alpha  occ. eigenvalues --  -10.16948 -10.16443 -10.16391  -0.78348  -0.67799
 Alpha  occ. eigenvalues --   -0.58331  -0.45972  -0.43863  -0.39612  -0.38073
 Alpha  occ. eigenvalues --   -0.34158  -0.33581  -0.32996
 Alpha virt. eigenvalues --    0.04732   0.08624   0.08776   0.08890   0.11778
 Alpha virt. eigenvalues --    0.13661   0.14297   0.15322   0.19443   0.23480
 Alpha virt. eigenvalues --    0.37455   0.38473   0.40165   0.40735   0.40939

 Mulliken charges:
               1
     1  C   -0.220833
     2  C   -0.244652
     3  C   -0.212031
     4  H    0.087039
     5  H    0.080422
     6  H    0.083518
     7  H    0.087048
     8  H    0.086498
     9  H    0.086774
    10  H    0.084666
    11  H    0.081551
 Sum of Mulliken charges =   0.00000

 Dipole moment (field-independent basis, Debye):
    X=              0.0057    Y=              0.1077    Z=              0.0406  Tot=              0.1152
 Quadrupole moment (field-independent basis, Debye-Ang):
   XX=            -22.7496   YY=            -22.2799   ZZ=            -21.6025
   XY=             -0.0728   XZ=             -0.0350   YZ=              0.1496

 Normal termination of Gaussian 16 at Fri Sep 22 16:26:44 2023.
