 Gaussian 16, Revision A.03,
 Gaussian 16:  ES64L-G16RevA.03 25-Dec-2016

 ----------------------------------------------------------------------
 #p b3lyp/gen scrf=(cpcm,solvent=toluene) pop=hirshfeld empiricaldisper
 sion=gd3bj
 ----------------------------------------------------------------------

 --------------------
 tmpdir/M3_ref_19.gjf
 --------------------
 Symbolic Z-matrix:
 Charge =  0 Multiplicity = 1

                         Standard orientation:
 ---------------------------------------------------------------------
 Center     Atomic      Atomic             Coordinates (Angstroms)
 Number     Number       Type             X           Y           Z
 ---------------------------------------------------------------------
      1          7           0       -0.003982    0.011073   -0.005769
      2          1           0        0.624168   -0.799200    0.012433
      3          1           0        0.406070    0.868014    0.014269
      4          1           0       -1.002363   -0.146323    0.013683
 ---------------------------------------------------------------------

 SCF Done:  E(RB3LYP) =  -56.5368353318     A.U. after    8 cycles

 The electronic state is 1-A.
 Alpha  occ. eigenvalues --  -14.27433  -0.83221  -0.48787  -0.46419  -0.23169
 Alpha virt. eigenvalues --    0.05146   0.12382   0.13117   0.52105   0.54939
 Alpha virt. eigenvalues --    0.60001   0.66064   0.76448   0.77577   1.07614
 Alpha virt. eigenvalues --    1.48188   1.49900   1.85371   1.96555   2.01854

 Mulliken charges:
               1
     1  N   -0.500963
     2  H    0.173828
     3  H    0.148985
     4  H    0.178150
 Sum of Mulliken charges =   0.00000

 Dipole moment (field-independent basis, Debye):
    X=              0.0261    Y=             -0.0961    Z=              0.1096  Tot=              0.1480
 Quadrupole moment (field-independent basis, Debye-Ang):
   XX=             -5.5146   YY=             -5.7919   ZZ=             -9.3357
   XY=              0.0563   XZ=             -0.0003   YZ=              0.0041

 Normal termination of Gaussian 16 at Fri Sep 22 16:26:57 2023.
