 Gaussian 16, Revision A.03,
 Gaussian 16:  ES64L-G16RevA.03 25-Dec-2016

 ----------------------------------------------------------------------
 #p b3lyp/gen scrf=(cpcm,solvent=toluene) pop=hirshfeld empiricaldisper
 sion=gd3bj
 ----------------------------------------------------------------------

 ---------------------
 tmpdir/M3_ref_187.gjf
 ---------------------
 Symbolic Z-matrix:
 Charge =  0 Multiplicity = 1

                         Standard orientation:
 ---------------------------------------------------------------------
 Center     Atomic      Atomic             Coordinates (Angstroms)
 Number     Number       Type             X           Y           Z
 ---------------------------------------------------------------------
      1          6           0       -0.001377    0.033620    0.078557
      2          6           0        1.456930    0.121672    0.022465
      3          8           0        2.041927   -1.075797   -0.191013
      4          6           0       -0.800762   -1.108835    0.149992
      5          6           0       -0.870484    1.153458   -0.062569
      6          7           0       -2.118217   -0.703007    0.038033
      7          6           0       -2.163087    0.690947   -0.100968
      8          1           0       -0.562510    2.188744   -0.147463
      9          8           0        2.090512    1.160964    0.134352
     10          1           0        3.031295   -1.125011   -0.210793
     11          1           0       -0.473859   -2.100230    0.375614
     12          1           0       -2.892089   -1.353904   -0.168081
     13          1           0       -3.062136    1.284939   -0.187092
 ---------------------------------------------------------------------

 SCF Done:  E(RB3LYP) =  -398.704490155     A.U. after   12 cycles

 The electronic state is 1-A.
 Alpha  occ. eigenvalues --  -19.16674 -19.10654 -14.38430 -10.31394 -10.22250
 Alpha  occ. eigenvalues --  -10.21370 -10.18407 -10.17629  -1.10294  -1.01489
 Alpha  occ. eigenvalues --   -0.99081  -0.80393  -0.74804  -0.67598  -0.60841
 Alpha  occ. eigenvalues --   -0.57540  -0.56154  -0.49268  -0.47237  -0.45488
 Alpha  occ. eigenvalues --   -0.44664  -0.42800  -0.41519  -0.39256  -0.38671
 Alpha  occ. eigenvalues --   -0.32496  -0.28440  -0.26741  -0.23853
 Alpha virt. eigenvalues --   -0.03173   0.01698   0.03536   0.04404   0.08188
 Alpha virt. eigenvalues --    0.09572   0.10742   0.11123   0.18697   0.19570
 Alpha virt. eigenvalues --    0.22861   0.24974   0.26087   0.30275   0.33153

 Mulliken charges:
               1
     1  C   -0.318520
     2  C    0.514646
     3  O   -0.395300
     4  C    0.241402
     5  C   -0.082778
     6  N   -0.391859
     7  C    0.160992
     8  H    0.047782
     9  O   -0.417967
    10  H    0.259300
    11  H    0.079565
    12  H    0.211992
    13  H    0.090742
 Sum of Mulliken charges =  -0.00000

 Dipole moment (field-independent basis, Debye):
    X=             -3.3815    Y=             -3.4620    Z=             -0.5071  Tot=              4.8660
 Quadrupole moment (field-independent basis, Debye-Ang):
   XX=            -33.1891   YY=            -43.9326   ZZ=            -49.0393
   XY=             -4.0430   XZ=              0.3717   YZ=             -1.0814

 Normal termination of Gaussian 16 at Fri Sep 22 16:29:02 2023.
