 Gaussian 16, Revision A.03,
 Gaussian 16:  ES64L-G16RevA.03 25-Dec-2016

 ----------------------------------------------------------------------
 #p b3lyp/gen scrf=(cpcm,solvent=toluene) pop=hirshfeld empiricaldisper
 sion=gd3bj
 ----------------------------------------------------------------------

 ---------------------
 tmpdir/M3_ref_153.gjf
 ---------------------
 Symbolic Z-matrix:
 Charge =  0 Multiplicity = 1

                         Standard orientation:
 ---------------------------------------------------------------------
 Center     Atomic      Atomic             Coordinates (Angstroms)
 Number     Number       Type             X           Y           Z
 ---------------------------------------------------------------------
      1          6           0        0.008123   -0.003192   -0.002377
      2          1           0        0.754532   -0.804453    0.013965
      3          1           0       -0.621390   -0.008350    0.904630
      4          1           0       -0.725572   -0.117885   -0.822039
      5          1           0        0.543690    0.949840   -0.082292
 ---------------------------------------------------------------------

 SCF Done:  E(RB3LYP) =  -40.5129454632     A.U. after    7 cycles

 The electronic state is 1-A.
 Alpha  occ. eigenvalues --  -10.16437  -0.69266  -0.40506  -0.39019  -0.38113
 Alpha virt. eigenvalues --    0.05628   0.12328   0.12534   0.12562   0.36575
 Alpha virt. eigenvalues --    0.37151   0.39574   0.62899   0.63682   0.64218
 Alpha virt. eigenvalues --    0.67126   0.95454   1.28278   1.30303   1.82900

 Mulliken charges:
               1
     1  C   -0.355514
     2  H    0.092364
     3  H    0.086051
     4  H    0.088254
     5  H    0.088844
 Sum of Mulliken charges =   0.00000

 Dipole moment (field-independent basis, Debye):
    X=             -0.0239    Y=              0.0134    Z=              0.0116  Tot=              0.0297
 Quadrupole moment (field-independent basis, Debye-Ang):
   XX=             -8.2092   YY=             -8.5148   ZZ=             -8.6711
   XY=             -0.0115   XZ=              0.0006   YZ=             -0.0029

 Normal termination of Gaussian 16 at Fri Sep 22 16:28:39 2023.
