 Gaussian 16, Revision A.03,
 Gaussian 16:  ES64L-G16RevA.03 25-Dec-2016

 ----------------------------------------------------------------------
 #p b3lyp/gen scrf=(cpcm,solvent=toluene) pop=hirshfeld empiricaldisper
 sion=gd3bj
 ----------------------------------------------------------------------

 ---------------------
 tmpdir/M3_ref_253.gjf
 ---------------------
 Symbolic Z-matrix:
 Charge = -1 Multiplicity = 1

                         Standard orientation:
 ---------------------------------------------------------------------
 Center     Atomic      Atomic             Coordinates (Angstroms)
 Number     Number       Type             X           Y           Z
 ---------------------------------------------------------------------
      1         17           0       -0.000000    0.276235   -0.000000
      2          1           0        0.109117   -2.009121    0.000000
      3          1           0       -0.109117   -2.686874    0.000000
 ---------------------------------------------------------------------

 SCF Done:  E(RB3LYP) =  -461.508536727     A.U. after    9 cycles

 The electronic state is 1-A'.
 Alpha  occ. eigenvalues -- -101.30690  -9.24163  -7.00430  -7.00420  -7.00411
 Alpha  occ. eigenvalues --   -0.59260  -0.34478  -0.14424  -0.14410  -0.13972
 Alpha virt. eigenvalues --    0.17658   0.38330   0.50485   0.50571   0.52162
 Alpha virt. eigenvalues --    0.70960   0.85456   0.92283   0.92436   0.92449
 Alpha virt. eigenvalues --    0.92511   0.96959   1.60069   1.61576   2.28777

 Mulliken charges:
               1
     1  Cl  -0.952298
     2  H    0.073490
     3  H   -0.121192
 Sum of Mulliken charges =  -1.00000

 Dipole moment (field-independent basis, Debye):
    X=              0.0597    Y=             -0.6099    Z=              0.0000  Tot=              0.6128
 Quadrupole moment (field-independent basis, Debye-Ang):
   XX=            -18.1507   YY=            -20.9456   ZZ=            -18.1903
   XY=             -0.0956   XZ=             -0.0000   YZ=             -0.0000

 Normal termination of Gaussian 16 at Fri Sep 22 16:30:28 2023.
