 Gaussian 16, Revision A.03,
 Gaussian 16:  ES64L-G16RevA.03 25-Dec-2016

 ----------------------------------------------------------------------
 #p b3lyp/gen scrf=(cpcm,solvent=toluene) pop=hirshfeld empiricaldisper
 sion=gd3bj
 ----------------------------------------------------------------------

 ---------------------
 tmpdir/M3_ref_132.gjf
 ---------------------
 Symbolic Z-matrix:
 Charge =  0 Multiplicity = 1

                         Standard orientation:
 ---------------------------------------------------------------------
 Center     Atomic      Atomic             Coordinates (Angstroms)
 Number     Number       Type             X           Y           Z
 ---------------------------------------------------------------------
      1          7           0        4.042920    0.064996    0.454832
      2          6           0        3.073552   -0.782906   -0.310706
      3          6           0        1.650707   -0.249822   -0.135598
      4          6           0        0.571960   -1.104381   -0.080812
      5          6           0        1.413110    1.153262   -0.092555
      6          6           0       -0.760808   -0.620471   -0.017504
      7          1           0        0.714110   -2.181599   -0.082336
      8          6           0        0.135295    1.657282   -0.060648
      9          1           0        2.250432    1.845691   -0.054304
     10          6           0       -0.991509    0.790965   -0.041252
     11          6           0       -1.875487   -1.497916    0.069121
     12          1           0       -0.022686    2.734593   -0.025177
     13          6           0       -2.327383    1.270582   -0.024163
     14          6           0       -3.158641   -1.001387    0.115586
     15          1           0       -1.697605   -2.572235    0.098804
     16          6           0       -3.386116    0.394521    0.057270
     17          1           0       -2.499496    2.341479   -0.092642
     18          1           0       -4.004765   -1.682216    0.188573
     19          1           0       -4.406665    0.771817    0.071735
     20          1           0        3.948322    0.181757    1.376040
     21          1           0        4.736007    0.527021   -0.156559
     22          1           0        3.422346   -0.636317   -1.372362
     23          1           0        3.191483   -1.843344   -0.008028
 ---------------------------------------------------------------------

 SCF Done:  E(RB3LYP) =  -480.497816630     A.U. after   12 cycles

 The electronic state is 1-A.
 Alpha  occ. eigenvalues --  -14.28331 -10.21480 -10.19098 -10.19022 -10.18825
 Alpha  occ. eigenvalues --  -10.18449 -10.18430 -10.18386 -10.18342 -10.18315
 Alpha  occ. eigenvalues --  -10.18040 -10.17960  -0.88736  -0.87121  -0.82733
 Alpha  occ. eigenvalues --   -0.78214  -0.75303  -0.73027  -0.67027  -0.62794
 Alpha  occ. eigenvalues --   -0.60353  -0.60175  -0.52633  -0.51834  -0.50625
 Alpha  occ. eigenvalues --   -0.49102  -0.45406  -0.44796  -0.43294  -0.42398
 Alpha  occ. eigenvalues --   -0.42147  -0.40424  -0.39747  -0.38619  -0.37373
 Alpha  occ. eigenvalues --   -0.34375  -0.33775  -0.33091  -0.29415  -0.25277
 Alpha  occ. eigenvalues --   -0.22687  -0.22002
 Alpha virt. eigenvalues --   -0.04957  -0.02433   0.01446   0.04267   0.05299
 Alpha virt. eigenvalues --    0.06382   0.07339   0.08537   0.08885   0.10109
 Alpha virt. eigenvalues --    0.11053   0.11484   0.14323   0.14894   0.15724

 Mulliken charges:
               1
     1  N   -0.465659
     2  C    0.166649
     3  C   -0.294459
     4  C    0.063773
     5  C    0.046422
     6  C   -0.133740
     7  H    0.029209
     8  C   -0.001137
     9  H    0.026418
    10  C   -0.134376
    11  C   -0.009407
    12  H    0.046806
    13  C    0.002214
    14  C   -0.042111
    15  H    0.046037
    16  C   -0.044031
    17  H    0.045504
    18  H    0.063446
    19  H    0.063422
    20  H    0.132719
    21  H    0.185106
    22  H    0.113167
    23  H    0.094030
 Sum of Mulliken charges =  -0.00000

 Dipole moment (field-independent basis, Debye):
    X=              0.8124    Y=              0.1314    Z=             -0.1812  Tot=              0.8427
 Quadrupole moment (field-independent basis, Debye-Ang):
   XX=            -62.0226   YY=            -64.7264   ZZ=            -75.5820
   XY=              1.7541   XZ=             -1.8381   YZ=             -0.1131

 Normal termination of Gaussian 16 at Fri Sep 22 16:28:58 2023.
