 Gaussian 16, Revision A.03,
 Gaussian 16:  ES64L-G16RevA.03 25-Dec-2016

 ----------------------------------------------------------------------
 #p b3lyp/gen scrf=(cpcm,solvent=toluene) pop=hirshfeld empiricaldisper
 sion=gd3bj
 ----------------------------------------------------------------------

 ---------------------
 tmpdir/M3_ref_204.gjf
 ---------------------
 Symbolic Z-matrix:
 Charge =  0 Multiplicity = 1

                         Standard orientation:
 ---------------------------------------------------------------------
 Center     Atomic      Atomic             Coordinates (Angstroms)
 Number     Number       Type             X           Y           Z
 ---------------------------------------------------------------------
      1          6           0        0.754428   -0.012989    0.001695
      2          6           0       -0.757720   -0.002634    0.000156
      3          1           0       -1.139034   -1.028708   -0.077058
      4          1           0        1.108195    1.116676    0.043516
      5          1           0        1.166017   -0.465872   -0.909944
      6          1           0        1.169004   -0.554024    0.858001
      7          1           0       -1.142210    0.448152    0.921829
      8          1           0       -1.142220    0.577515   -0.847446
 ---------------------------------------------------------------------

 SCF Done:  E(RB3LYP) =  -79.8178339699     A.U. after    9 cycles

 The electronic state is 1-A.
 Alpha  occ. eigenvalues --  -10.17219 -10.16455  -0.75585  -0.60916  -0.43843
 Alpha  occ. eigenvalues --   -0.43526  -0.37135  -0.34466  -0.33584
 Alpha virt. eigenvalues --    0.04769   0.09163   0.10010   0.10546   0.13342
 Alpha virt. eigenvalues --    0.13920   0.21869   0.36875   0.39028   0.39907
 Alpha virt. eigenvalues --    0.46175   0.47072   0.59335   0.60671   0.64219

 Mulliken charges:
               1
     1  C   -0.278895
     2  C   -0.246623
     3  H    0.085127
     4  H    0.087501
     5  H    0.088760
     6  H    0.089811
     7  H    0.087189
     8  H    0.087131
 Sum of Mulliken charges =  -0.00000

 Dipole moment (field-independent basis, Debye):
    X=             -0.0528    Y=             -0.0648    Z=             -0.0071  Tot=              0.0839
 Quadrupole moment (field-independent basis, Debye-Ang):
   XX=            -16.1207   YY=            -15.0064   ZZ=            -15.0496
   XY=             -0.2245   XZ=             -0.0085   YZ=             -0.0177

 Normal termination of Gaussian 16 at Fri Sep 22 16:29:32 2023.
