 Gaussian 16, Revision A.03,
 Gaussian 16:  ES64L-G16RevA.03 25-Dec-2016

 ----------------------------------------------------------------------
 #p b3lyp/gen scrf=(cpcm,solvent=toluene) pop=hirshfeld empiricaldisper
 sion=gd3bj
 ----------------------------------------------------------------------

 --------------------
 tmpdir/M3_ref_34.gjf
 --------------------
 Symbolic Z-matrix:
 Charge =  0 Multiplicity = 1

                         Standard orientation:
 ---------------------------------------------------------------------
 Center     Atomic      Atomic             Coordinates (Angstroms)
 Number     Number       Type             X           Y           Z
 ---------------------------------------------------------------------
      1          7           0       -1.204470   -0.281372    0.044453
      2          6           0       -0.042310    0.590466   -0.035868
      3          6           0        1.253257   -0.249050    0.027553
      4          1           0       -1.933582   -0.209812    0.639040
      5          1           0       -1.408977   -0.788626   -0.825349
      6          1           0       -0.119282    1.156698   -0.994686
      7          1           0       -0.092602    1.282914    0.804662
      8          1           0        2.163697    0.279657   -0.339661
      9          1           0        1.478965   -0.686955    1.076077
     10          1           0        1.077386   -1.112765   -0.621361
 ---------------------------------------------------------------------

 SCF Done:  E(RB3LYP) =  -135.144062198     A.U. after   10 cycles

 The electronic state is 1-A.
 Alpha  occ. eigenvalues --  -14.27564 -10.20078 -10.16629  -0.87260  -0.72206
 Alpha  occ. eigenvalues --   -0.60518  -0.50769  -0.45234  -0.41048  -0.38882
 Alpha  occ. eigenvalues --   -0.36255  -0.33818  -0.21549
 Alpha virt. eigenvalues --    0.04793   0.07994   0.08700   0.09371   0.11908
 Alpha virt. eigenvalues --    0.13454   0.16307   0.20676   0.22649   0.39319
 Alpha virt. eigenvalues --    0.39878   0.45009   0.46349   0.51639   0.57223

 Mulliken charges:
               1
     1  N   -0.476292
     2  C   -0.006450
     3  C   -0.219903
     4  H    0.131189
     5  H    0.163904
     6  H    0.081436
     7  H    0.090173
     8  H    0.078068
     9  H    0.086750
    10  H    0.071125
 Sum of Mulliken charges =  -0.00000

 Dipole moment (field-independent basis, Debye):
    X=             -0.6358    Y=              0.3338    Z=             -0.3372  Tot=              0.7933
 Quadrupole moment (field-independent basis, Debye-Ang):
   XX=            -19.7537   YY=            -21.8082   ZZ=            -19.8240
   XY=              0.6978   XZ=             -0.1881   YZ=              1.2515

 Normal termination of Gaussian 16 at Fri Sep 22 16:26:28 2023.
