 Gaussian 16, Revision A.03,
 Gaussian 16:  ES64L-G16RevA.03 25-Dec-2016

 ----------------------------------------------------------------------
 #p b3lyp/gen scrf=(cpcm,solvent=toluene) pop=hirshfeld empiricaldisper
 sion=gd3bj
 ----------------------------------------------------------------------

 ---------------------
 tmpdir/M3_ref_232.gjf
 ---------------------
 Symbolic Z-matrix:
 Charge =  0 Multiplicity = 1

                         Standard orientation:
 ---------------------------------------------------------------------
 Center     Atomic      Atomic             Coordinates (Angstroms)
 Number     Number       Type             X           Y           Z
 ---------------------------------------------------------------------
      1          6           0        0.008323   -0.009754   -0.003891
      2          1           0       -0.210492    0.299609    1.028456
      3          1           0        1.040911   -0.346729   -0.084480
      4          1           0       -0.153840    0.875221   -0.636036
      5          1           0       -0.726518   -0.769575   -0.284596
 ---------------------------------------------------------------------

 SCF Done:  E(RB3LYP) =  -40.5135924944     A.U. after    7 cycles

 The electronic state is 1-A.
 Alpha  occ. eigenvalues --  -10.16242  -0.69404  -0.40143  -0.39013  -0.38724
 Alpha virt. eigenvalues --    0.05706   0.12521   0.12554   0.12679   0.37149
 Alpha virt. eigenvalues --    0.37262   0.38593   0.63478   0.63705   0.64501
 Alpha virt. eigenvalues --    0.67894   0.96260   1.28670   1.29121   1.83617

 Mulliken charges:
               1
     1  C   -0.350226
     2  H    0.083901
     3  H    0.093000
     4  H    0.084563
     5  H    0.088762
 Sum of Mulliken charges =  -0.00000

 Dipole moment (field-independent basis, Debye):
    X=             -0.0284    Y=              0.0334    Z=              0.0142  Tot=              0.0461
 Quadrupole moment (field-independent basis, Debye-Ang):
   XX=             -8.2833   YY=             -8.5054   ZZ=             -8.5603
   XY=             -0.0039   XZ=              0.0017   YZ=              0.0081

 Normal termination of Gaussian 16 at Fri Sep 22 16:29:58 2023.
