 Gaussian 16, Revision A.03,
 Gaussian 16:  ES64L-G16RevA.03 25-Dec-2016

 ----------------------------------------------------------------------
 #p b3lyp/gen scrf=(cpcm,solvent=toluene) pop=hirshfeld empiricaldisper
 sion=gd3bj
 ----------------------------------------------------------------------

 ---------------------
 tmpdir/M3_ref_163.gjf
 ---------------------
 Symbolic Z-matrix:
 Charge =  0 Multiplicity = 1

                         Standard orientation:
 ---------------------------------------------------------------------
 Center     Atomic      Atomic             Coordinates (Angstroms)
 Number     Number       Type             X           Y           Z
 ---------------------------------------------------------------------
      1          6           0       -1.242493   -0.236414   -0.000518
      2          7           0        0.011022    0.584061    0.013021
      3          6           0        1.232059   -0.244453   -0.004332
      4          1           0       -0.834289   -1.286616   -0.027050
      5          1           0       -1.806412   -0.064508    0.938894
      6          1           0       -1.829088   -0.024950   -0.915408
      7          1           0       -0.029844    1.515611   -0.028843
      8          1           0        0.876290   -1.199869   -0.428109
      9          1           0        1.609925   -0.376109    1.017995
     10          1           0        1.998872    0.233214   -0.619523
 ---------------------------------------------------------------------

 SCF Done:  E(RB3LYP) =  -135.120850841     A.U. after   10 cycles

 The electronic state is 1-A.
 Alpha  occ. eigenvalues --  -14.27101 -10.19604 -10.19252  -0.87751  -0.68815
 Alpha  occ. eigenvalues --   -0.64053  -0.48703  -0.43477  -0.40915  -0.39475
 Alpha  occ. eigenvalues --   -0.38925  -0.35584  -0.19218
 Alpha virt. eigenvalues --    0.05011   0.08672   0.09139   0.09907   0.11818
 Alpha virt. eigenvalues --    0.13009   0.15305   0.18497   0.22945   0.38887
 Alpha virt. eigenvalues --    0.39968   0.43824   0.47510   0.48011   0.54034

 Mulliken charges:
               1
     1  C   -0.023890
     2  N   -0.582592
     3  C    0.005470
     4  H    0.074986
     5  H    0.087003
     6  H    0.085123
     7  H    0.117354
     8  H    0.079354
     9  H    0.074221
    10  H    0.082971
 Sum of Mulliken charges =  -0.00000

 Dipole moment (field-independent basis, Debye):
    X=             -0.0123    Y=              0.0029    Z=             -0.1863  Tot=              0.1867
 Quadrupole moment (field-independent basis, Debye-Ang):
   XX=            -20.5347   YY=            -19.2409   ZZ=            -21.9945
   XY=              0.0112   XZ=             -0.0875   YZ=             -0.0894

 Normal termination of Gaussian 16 at Fri Sep 22 16:29:06 2023.
