 Gaussian 16, Revision A.03,
 Gaussian 16:  ES64L-G16RevA.03 25-Dec-2016

 ----------------------------------------------------------------------
 #p b3lyp/gen scrf=(cpcm,solvent=toluene) pop=hirshfeld empiricaldisper
 sion=gd3bj
 ----------------------------------------------------------------------

 ---------------------
 tmpdir/M3_ref_188.gjf
 ---------------------
 Symbolic Z-matrix:
 Charge =  0 Multiplicity = 1

                         Standard orientation:
 ---------------------------------------------------------------------
 Center     Atomic      Atomic             Coordinates (Angstroms)
 Number     Number       Type             X           Y           Z
 ---------------------------------------------------------------------
      1          6           0       -0.304872   -0.223541   -0.022445
      2          6           0       -1.741275   -0.472407    0.088781
      3          8           0       -2.603532    0.380015   -0.066017
      4          6           0        0.738101   -1.151306   -0.050420
      5          6           0        0.280626    1.074788    0.006468
      6          7           0        1.926018   -0.443543   -0.021409
      7          6           0        1.646194    0.929153    0.021565
      8          1           0       -0.259329    2.013691    0.034431
      9          1           0       -1.973062   -1.524236    0.349777
     10          1           0        0.647263   -2.205579   -0.194961
     11          1           0        2.835885   -0.879661    0.195319
     12          1           0        2.382732    1.720340    0.029741
 ---------------------------------------------------------------------

 SCF Done:  E(RB3LYP) =  -323.463954960     A.U. after   13 cycles

 The electronic state is 1-A.
 Alpha  occ. eigenvalues --  -19.11425 -14.38761 -10.26412 -10.22716 -10.21660
 Alpha  occ. eigenvalues --  -10.17990 -10.17635  -1.04240  -0.99380  -0.80335
 Alpha  occ. eigenvalues --   -0.74981  -0.65828  -0.60229  -0.57261  -0.53519
 Alpha  occ. eigenvalues --   -0.47965  -0.45186  -0.43972  -0.43001  -0.41721
 Alpha  occ. eigenvalues --   -0.39627  -0.38051  -0.27035  -0.26039  -0.24207
 Alpha virt. eigenvalues --   -0.05048   0.00963   0.03723   0.06839   0.08046
 Alpha virt. eigenvalues --    0.08905   0.10576   0.11778   0.18447   0.19155
 Alpha virt. eigenvalues --    0.22160   0.25173   0.29356   0.31367   0.34490

 Mulliken charges:
               1
     1  C   -0.359125
     2  C    0.360710
     3  O   -0.385356
     4  C    0.216778
     5  C   -0.081536
     6  N   -0.390409
     7  C    0.159382
     8  H    0.047523
     9  H    0.042568
    10  H    0.084086
    11  H    0.212541
    12  H    0.092838
 Sum of Mulliken charges =  -0.00000

 Dipole moment (field-independent basis, Debye):
    X=              5.7631    Y=             -2.4805    Z=              0.5991  Tot=              6.3028
 Quadrupole moment (field-independent basis, Debye-Ang):
   XX=            -41.1989   YY=            -34.8030   ZZ=            -43.7436
   XY=              1.8435   XZ=              0.2534   YZ=              0.0928

 Normal termination of Gaussian 16 at Fri Sep 22 16:29:22 2023.
