 Gaussian 16, Revision A.03,
 Gaussian 16:  ES64L-G16RevA.03 25-Dec-2016

 ----------------------------------------------------------------------
 #p b3lyp/gen scrf=(cpcm,solvent=toluene) pop=hirshfeld empiricaldisper
 sion=gd3bj
 ----------------------------------------------------------------------

 ---------------------
 tmpdir/M3_ref_227.gjf
 ---------------------
 Symbolic Z-matrix:
 Charge =  0 Multiplicity = 1

                         Standard orientation:
 ---------------------------------------------------------------------
 Center     Atomic      Atomic             Coordinates (Angstroms)
 Number     Number       Type             X           Y           Z
 ---------------------------------------------------------------------
      1          6           0        0.248324    0.389555    0.000663
      2          6           0       -1.161114   -0.137066   -0.001186
      3          8           0        1.223181   -0.278504   -0.000499
      4          1           0        0.325320    1.476420    0.001881
      5          1           0       -1.694415    0.202685    0.898528
      6          1           0       -1.715767    0.262528   -0.862447
      7          1           0       -1.223846   -1.228534   -0.030838
 ---------------------------------------------------------------------

 SCF Done:  E(RB3LYP) =  -153.813345804     A.U. after   10 cycles

 The electronic state is 1-A.
 Alpha  occ. eigenvalues --  -19.12836 -10.27032 -10.18371  -1.07687  -0.75531
 Alpha  occ. eigenvalues --   -0.58935  -0.48869  -0.45107  -0.45015  -0.39951
 Alpha  occ. eigenvalues --   -0.37923  -0.26602
 Alpha virt. eigenvalues --   -0.02608   0.05553   0.08242   0.10849   0.11849
 Alpha virt. eigenvalues --    0.20972   0.22920   0.41307   0.42273   0.44287
 Alpha virt. eigenvalues --    0.45819   0.54881   0.58738   0.60934   0.64791

 Mulliken charges:
               1
     1  C    0.178702
     2  C   -0.237958
     3  O   -0.331597
     4  H    0.046059
     5  H    0.120543
     6  H    0.119211
     7  H    0.105040
 Sum of Mulliken charges =  -0.00000

 Dipole moment (field-independent basis, Debye):
    X=             -2.7037    Y=              1.3248    Z=              0.0148  Tot=              3.0108
 Quadrupole moment (field-independent basis, Debye-Ang):
   XX=            -21.1235   YY=            -18.1630   ZZ=            -17.8748
   XY=              0.9990   XZ=             -0.0159   YZ=             -0.0133

 Normal termination of Gaussian 16 at Fri Sep 22 16:30:32 2023.
