 Gaussian 16, Revision A.03,
 Gaussian 16:  ES64L-G16RevA.03 25-Dec-2016

 ----------------------------------------------------------------------
 #p b3lyp/gen scrf=(cpcm,solvent=toluene) pop=hirshfeld empiricaldisper
 sion=gd3bj
 ----------------------------------------------------------------------

 --------------------
 tmpdir/M3_ref_29.gjf
 --------------------
 Symbolic Z-matrix:
 Charge =  0 Multiplicity = 1

                         Standard orientation:
 ---------------------------------------------------------------------
 Center     Atomic      Atomic             Coordinates (Angstroms)
 Number     Number       Type             X           Y           Z
 ---------------------------------------------------------------------
      1          6           0        0.771422    0.014505    0.005272
      2          6           0       -0.770508    0.008845    0.005734
      3          1           0        1.113628   -0.936984   -0.529124
      4          1           0        1.139195   -0.034316    1.030388
      5          1           0        1.180360    0.914795   -0.517432
      6          1           0       -1.223790    0.965197    0.321354
      7          1           0       -1.113757   -0.226707   -1.013122
      8          1           0       -1.101119   -0.822086    0.641895
 ---------------------------------------------------------------------

 SCF Done:  E(RB3LYP) =  -79.8187335122     A.U. after    9 cycles

 The electronic state is 1-A.
 Alpha  occ. eigenvalues --  -10.17177 -10.16681  -0.75098  -0.60952  -0.43808
 Alpha  occ. eigenvalues --   -0.43382  -0.36168  -0.34717  -0.34104
 Alpha virt. eigenvalues --    0.04789   0.09154   0.10041   0.10434   0.13835
 Alpha virt. eigenvalues --    0.13979   0.20866   0.37370   0.38971   0.39758
 Alpha virt. eigenvalues --    0.45578   0.48232   0.57783   0.62169   0.63823

 Mulliken charges:
               1
     1  C   -0.275544
     2  C   -0.260062
     3  H    0.089200
     4  H    0.088551
     5  H    0.094224
     6  H    0.093436
     7  H    0.084407
     8  H    0.085788
 Sum of Mulliken charges =  -0.00000

 Dipole moment (field-independent basis, Debye):
    X=             -0.0293    Y=             -0.0407    Z=              0.0094  Tot=              0.0510
 Quadrupole moment (field-independent basis, Debye-Ang):
   XX=            -16.1999   YY=            -14.8713   ZZ=            -15.1166
   XY=             -0.0249   XZ=              0.0270   YZ=             -0.0392

 Normal termination of Gaussian 16 at Fri Sep 22 16:26:57 2023.
