 Gaussian 16, Revision A.03,
 Gaussian 16:  ES64L-G16RevA.03 25-Dec-2016

 ----------------------------------------------------------------------
 #p b3lyp/gen scrf=(cpcm,solvent=toluene) pop=hirshfeld empiricaldisper
 sion=gd3bj
 ----------------------------------------------------------------------

 ---------------------
 tmpdir/M3_ref_216.gjf
 ---------------------
 Symbolic Z-matrix:
 Charge =  0 Multiplicity = 1

                         Standard orientation:
 ---------------------------------------------------------------------
 Center     Atomic      Atomic             Coordinates (Angstroms)
 Number     Number       Type             X           Y           Z
 ---------------------------------------------------------------------
      1          7           0       -0.630120   -0.021475   -0.118240
      2          6           0       -2.088844   -0.028059    0.092550
      3          1           0       -2.410943    1.009503   -0.040644
      4          6           0        0.135506    1.128808   -0.058381
      5          6           0        0.210545   -1.141098   -0.053654
      6          6           0        1.471987    0.739240    0.048292
      7          6           0        1.502994   -0.684885    0.033866
      8          1           0        2.391700   -1.300778    0.102777
      9          1           0       -2.654957   -0.619803   -0.669243
     10          1           0       -2.293399   -0.320741    1.148851
     11          1           0       -0.227479    2.123729   -0.196256
     12          1           0       -0.111581   -2.171915   -0.100365
     13          1           0        2.324372    1.346287    0.206529
 ---------------------------------------------------------------------

 SCF Done:  E(RB3LYP) =  -249.451077068     A.U. after   12 cycles

 The electronic state is 1-A.
 Alpha  occ. eigenvalues --  -14.36572 -10.22447 -10.19497 -10.19272 -10.15747
 Alpha  occ. eigenvalues --  -10.15589  -0.97854  -0.79897  -0.72169  -0.68868
 Alpha  occ. eigenvalues --   -0.56973  -0.55672  -0.52713  -0.46360  -0.44379
 Alpha  occ. eigenvalues --   -0.41767  -0.40923  -0.38003  -0.37512  -0.36902
 Alpha  occ. eigenvalues --   -0.24113  -0.21763
 Alpha virt. eigenvalues --    0.01610   0.04994   0.06524   0.07498   0.08751
 Alpha virt. eigenvalues --    0.10490   0.11402   0.12008   0.12733   0.13749
 Alpha virt. eigenvalues --    0.21095   0.23500   0.27669   0.30649   0.36680

 Mulliken charges:
               1
     1  N   -0.572041
     2  C    0.017659
     3  H    0.094266
     4  C    0.144400
     5  C    0.145586
     6  C   -0.149618
     7  C   -0.157941
     8  H    0.049193
     9  H    0.115455
    10  H    0.115062
    11  H    0.083229
    12  H    0.076323
    13  H    0.038426
 Sum of Mulliken charges =  -0.00000

 Dipole moment (field-independent basis, Debye):
    X=             -2.4417    Y=              0.0046    Z=              0.1897  Tot=              2.4491
 Quadrupole moment (field-independent basis, Debye-Ang):
   XX=            -31.8641   YY=            -33.3572   ZZ=            -40.4226
   XY=             -0.3247   XZ=              0.4854   YZ=             -0.0838

 Normal termination of Gaussian 16 at Fri Sep 22 16:31:09 2023.
