 Gaussian 16, Revision A.03,
 Gaussian 16:  ES64L-G16RevA.03 25-Dec-2016

 ----------------------------------------------------------------------
 #p b3lyp/gen scrf=(cpcm,solvent=toluene) pop=hirshfeld empiricaldisper
 sion=gd3bj
 ----------------------------------------------------------------------

 ---------------------
 tmpdir/M3_ref_156.gjf
 ---------------------
 Symbolic Z-matrix:
 Charge =  0 Multiplicity = 1

                         Standard orientation:
 ---------------------------------------------------------------------
 Center     Atomic      Atomic             Coordinates (Angstroms)
 Number     Number       Type             X           Y           Z
 ---------------------------------------------------------------------
      1          6           0       -0.759900   -0.020493    0.000978
      2          6           0        0.765217   -0.005442   -0.004810
      3          1           0        1.179454   -0.823475   -0.603679
      4          1           0       -1.161172   -0.295760   -0.983135
      5          1           0       -1.174797   -0.683768    0.764230
      6          1           0       -1.029373    1.081157    0.244175
      7          1           0        1.008318    0.992140   -0.415953
      8          1           0        1.145665   -0.114685    1.017352
 ---------------------------------------------------------------------

 SCF Done:  E(RB3LYP) =  -79.8138090068     A.U. after    9 cycles

 The electronic state is 1-A.
 Alpha  occ. eigenvalues --  -10.16915 -10.16476  -0.75580  -0.60601  -0.44489
 Alpha  occ. eigenvalues --   -0.43799  -0.35925  -0.34483  -0.33806
 Alpha virt. eigenvalues --    0.04601   0.09230   0.09554   0.09900   0.14722
 Alpha virt. eigenvalues --    0.15063   0.21133   0.36687   0.38918   0.40791
 Alpha virt. eigenvalues --    0.46460   0.48767   0.58873   0.61061   0.64032

 Mulliken charges:
               1
     1  C   -0.277867
     2  C   -0.252945
     3  H    0.088010
     4  H    0.090331
     5  H    0.089262
     6  H    0.086729
     7  H    0.089405
     8  H    0.087074
 Sum of Mulliken charges =  -0.00000

 Dipole moment (field-independent basis, Debye):
    X=              0.0254    Y=             -0.0376    Z=              0.0054  Tot=              0.0456
 Quadrupole moment (field-independent basis, Debye-Ang):
   XX=            -16.4943   YY=            -14.8450   ZZ=            -14.9812
   XY=              0.0417   XZ=              0.1276   YZ=             -0.0403

 Normal termination of Gaussian 16 at Fri Sep 22 16:28:24 2023.
