 Gaussian 16, Revision A.03,
 Gaussian 16:  ES64L-G16RevA.03 25-Dec-2016

 ----------------------------------------------------------------------
 # b3lyp/6-31g(d) freq=hpmodes geom=check guess=read opt=(noeigen,addre
 dundant,maxstep=10) optcyc=60
 ----------------------------------------------------------------------

 -----
 title
 -----
 Structure from the checkpoint file:  "bnts-OMe-ts-no-disp.chk"
 Charge =  0 Multiplicity = 1

 SCF Done:  E(RB3LYP) =  -861.644066706     A.U. after    1 cycles
 Optimization completed.
    -- Stationary point found.
 Normal termination of Gaussian 16 at Tue Mar  5 10:29:14 2024.

 --------------------------------------------------------------------
 #N Geom=AllCheck Guess=TCheck SCRF=Check GenChk RB3LYP/6-31G(d) Freq
 --------------------------------------------------------------------

 Structure from the checkpoint file:  "bnts-OMe-ts-no-disp.chk"
 -----
 title
 -----
 Charge =  0 Multiplicity = 1

                         Standard orientation:
 ---------------------------------------------------------------------
 Center     Atomic      Atomic             Coordinates (Angstroms)
 Number     Number       Type             X           Y           Z
 ---------------------------------------------------------------------
      1          6           0        4.035686    0.854871    0.421723
      2          6           0        4.208182   -0.476908    1.207488
      3          6           0        3.985578   -1.807349    0.453794
      4          6           0        2.533465   -2.326728    0.398631
      5          6           0        2.701205    1.625468    0.558495
      6          6           0        1.606713    1.290382   -0.482856
      7          1           0        4.257001    0.685326   -0.641791
      8          1           0        3.581589   -0.455717    2.110446
      9          1           0        4.367956   -1.709620   -0.571144
     10          1           0        4.821337    1.534359    0.774665
     11          1           0        5.243529   -0.495379    1.570774
     12          1           0        4.591989   -2.587759    0.933294
     13          1           0        2.493443   -3.259320   -0.175812
     14          1           0        2.192315   -2.580794    1.412655
     15          1           0        2.914362    2.698714    0.475802
     16          1           0        2.269730    1.467688    1.554553
     17          1           0        1.986983    1.526968   -1.492087
     18          6           0        1.303864   -0.145599   -0.411966
     19          6           0        1.626896   -1.313216   -0.166433
     20          7           0       -0.678347   -0.420007   -1.544276
     21          7           0       -0.698097   -1.658981   -1.336623
     22          7           0       -0.036604   -2.531420   -0.933435
     23          6           0       -1.956131    0.313483   -1.606863
     24          1           0       -1.648871    1.356693   -1.700509
     25          1           0       -2.488196    0.040789   -2.527770
     26          6           0       -2.860338    0.127192   -0.403873
     27          6           0       -2.474374    0.605678    0.856691
     28          6           0       -4.087537   -0.531039   -0.534288
     29          6           0       -3.306319    0.426779    1.960818
     30          1           0       -1.518782    1.112495    0.959920
     31          6           0       -4.922545   -0.708406    0.571445
     32          1           0       -4.393633   -0.907450   -1.508281
     33          6           0       -4.532700   -0.229637    1.821945
     34          1           0       -2.998897    0.802164    2.933697
     35          1           0       -5.873792   -1.221103    0.454254
     36          1           0       -5.179446   -0.366583    2.684734
     37          8           0        0.425158    2.067464   -0.257309
     38          6           0        0.521092    3.418682   -0.669445
     39          1           0       -0.481395    3.845170   -0.577992
     40          1           0        1.207556    4.007041   -0.044426
     41          1           0        0.848879    3.497551   -1.718000
 ---------------------------------------------------------------------

 SCF Done:  E(RB3LYP) =  -861.644066706     A.U. after    1 cycles

 The electronic state is 1-A.
 Alpha  occ. eigenvalues --  -19.15495 -14.45418 -14.38270 -14.37205 -10.25391
 Alpha  occ. eigenvalues --  -10.23265 -10.22283 -10.19557 -10.18978 -10.18587
 Alpha  occ. eigenvalues --  -10.18567 -10.18472 -10.18424 -10.18377 -10.18363
 Alpha  occ. eigenvalues --  -10.18280 -10.18223 -10.18161 -10.17971 -10.17806
 Alpha  occ. eigenvalues --   -1.09803  -1.03483  -0.92725  -0.84649  -0.81834
 Alpha  occ. eigenvalues --   -0.78010  -0.76702  -0.76209  -0.73638  -0.70191
 Alpha  occ. eigenvalues --   -0.69751  -0.68028  -0.65049  -0.59926  -0.59196
 Alpha  occ. eigenvalues --   -0.58902  -0.57287  -0.52925  -0.51245  -0.50506
 Alpha  occ. eigenvalues --   -0.49335  -0.49136  -0.47366  -0.46867  -0.46093
 Alpha  occ. eigenvalues --   -0.45377  -0.44657  -0.44422  -0.43319  -0.42724
 Alpha  occ. eigenvalues --   -0.42042  -0.41209  -0.40425  -0.40316  -0.39046
 Alpha  occ. eigenvalues --   -0.38972  -0.38445  -0.37818  -0.35395  -0.35081
 Alpha  occ. eigenvalues --   -0.34349  -0.33688  -0.33133  -0.32519  -0.31868
 Alpha  occ. eigenvalues --   -0.31385  -0.28549  -0.26543  -0.24727  -0.24358
 Alpha  occ. eigenvalues --   -0.24273  -0.23158  -0.22874
 Alpha virt. eigenvalues --   -0.03673   0.00086   0.00621   0.02113   0.03836
 Alpha virt. eigenvalues --    0.05549   0.08518   0.09328   0.10288   0.11273
 Alpha virt. eigenvalues --    0.12173   0.13137   0.13347   0.13853   0.14557

 Mulliken charges:
               1
     1  C   -0.267282
     2  C   -0.256810
     3  C   -0.256798
     4  C   -0.347953
     5  C   -0.272659
     6  C    0.054488
     7  H    0.137036
     8  H    0.136463
     9  H    0.140062
    10  H    0.134244
    11  H    0.133074
    12  H    0.131981
    13  H    0.165719
    14  H    0.163407
    15  H    0.129969
    16  H    0.149562
    17  H    0.134119
    18  C    0.096447
    19  C    0.013613
    20  N   -0.287361
    21  N    0.252245
    22  N   -0.223648
    23  C   -0.224123
    24  H    0.177069
    25  H    0.154557
    26  C    0.144641
    27  C   -0.177769
    28  C   -0.182285
    29  C   -0.132079
    30  H    0.165725
    31  C   -0.127519
    32  H    0.123735
    33  C   -0.127662
    34  H    0.127675
    35  H    0.127665
    36  H    0.127040
    37  O   -0.470545
    38  C   -0.201660
    39  H    0.161842
    40  H    0.139629
    41  H    0.134147
 Sum of Mulliken charges =  -0.00000

 Dipole moment (field-independent basis, Debye):
    X=              1.1245    Y=              2.4730    Z=              0.1452  Tot=              2.7206
 Quadrupole moment (field-independent basis, Debye-Ang):
   XX=           -107.1088   YY=           -116.2128   ZZ=           -114.2682
   XY=              2.3997   XZ=              2.0340   YZ=             -3.4122

  Exact polarizability: 231.172   6.904 179.171   7.844   1.860 161.263
 Approx polarizability: 307.297  13.209 315.006  18.405  -5.758 270.005

 ******    1 imaginary frequencies (negative Signs) ******

                      1                      2                      3
                      A                      A                      A
 Frequencies --   -334.1902                17.4334                31.8569
 Red. masses --     10.8071                 4.6298                 3.8305
 Frc consts  --      0.7111                 0.0008                 0.0023
 IR Inten    --     60.7228                 0.2913                 0.1163

                      4                      5                      6
                      A                      A                      A
 Frequencies --     38.0042                48.6405                67.9011
 Red. masses --      3.7747                 4.3220                 2.4541
 Frc consts  --      0.0032                 0.0060                 0.0067
 IR Inten    --      0.0351                 0.2340                 1.2800

                      7                      8                      9
                      A                      A                      A
 Frequencies --     77.7552                91.1646               107.0266
 Red. masses --      3.0624                 4.4827                 3.3148
 Frc consts  --      0.0109                 0.0220                 0.0224
 IR Inten    --      0.4494                 0.4338                 1.5874

                     10                     11                     12
                      A                      A                      A
 Frequencies --    132.9293               150.8077               164.5314
 Red. masses --      2.7377                 3.8409                 2.6371
 Frc consts  --      0.0285                 0.0515                 0.0421
 IR Inten    --      1.7940                 2.1158                 0.6963

                     13                     14                     15
                      A                      A                      A
 Frequencies --    184.8472               223.9072               228.6252
 Red. masses --      2.4853                 2.5816                 3.9429
 Frc consts  --      0.0500                 0.0763                 0.1214
 IR Inten    --      0.8404                 1.5788                 2.3397

                     16                     17                     18
                      A                      A                      A
 Frequencies --    269.8297               283.2255               317.8077
 Red. masses --      6.2220                 2.6293                 2.6560
 Frc consts  --      0.2669                 0.1243                 0.1581
 IR Inten    --      3.8916                 1.0862                 0.7618

                     19                     20                     21
                      A                      A                      A
 Frequencies --    333.2165               349.3535               369.5273
 Red. masses --      2.6799                 2.0362                 3.8869
 Frc consts  --      0.1753                 0.1464                 0.3127
 IR Inten    --      1.4673                 3.0637                10.8559

                     22                     23                     24
                      A                      A                      A
 Frequencies --    389.8823               410.1633               418.5997
 Red. masses --      4.3324                 2.4469                 3.0243
 Frc consts  --      0.3880                 0.2425                 0.3122
 IR Inten    --      3.0551                 0.2890                 0.1808

                     25                     26                     27
                      A                      A                      A
 Frequencies --    443.3018               481.7130               492.0970
 Red. masses --      2.6065                 3.5326                 3.7521
 Frc consts  --      0.3018                 0.4830                 0.5353
 IR Inten    --      0.6017                11.0827                 3.9077

                     28                     29                     30
                      A                      A                      A
 Frequencies --    508.8865               568.5353               592.9237
 Red. masses --      4.5489                 7.8378                 4.3294
 Frc consts  --      0.6941                 1.4927                 0.8968
 IR Inten    --     17.7729                 1.0616                31.0952

                     31                     32                     33
                      A                      A                      A
 Frequencies --    613.2384               635.5260               672.1347
 Red. masses --      5.7166                 6.2755                 4.9360
 Frc consts  --      1.2666                 1.4934                 1.3138
 IR Inten    --     25.0791                 0.9922                91.3602

                     34                     35                     36
                      A                      A                      A
 Frequencies --    713.6452               718.8316               762.6144
 Red. masses --      2.6070                 1.9277                 1.9480
 Frc consts  --      0.7823                 0.5869                 0.6675
 IR Inten    --     17.3450                38.1559                24.3808

                     37                     38                     39
                      A                      A                      A
 Frequencies --    806.4622               817.0930               827.7941
 Red. masses --      2.2833                 1.8163                 3.5906
 Frc consts  --      0.8749                 0.7145                 1.4496
 IR Inten    --      0.6224                11.3810                 2.6931

                     40                     41                     42
                      A                      A                      A
 Frequencies --    868.4727               869.0286               898.8073
 Red. masses --      1.8770                 1.2505                 2.6641
 Frc consts  --      0.8341                 0.5564                 1.2680
 IR Inten    --      1.1958                 0.0370                 2.1078

                     43                     44                     45
                      A                      A                      A
 Frequencies --    902.7235               938.3894               964.7068
 Red. masses --      3.1552                 1.5764                 3.5366
 Frc consts  --      1.5149                 0.8178                 1.9392
 IR Inten    --     10.6905                 2.0309                23.2950

                     46                     47                     48
                      A                      A                      A
 Frequencies --    977.7909               988.5410               996.2304
 Red. masses --      1.3349                 1.9309                 2.6422
 Frc consts  --      0.7520                 1.1117                 1.5450
 IR Inten    --      0.7346                 9.1356                17.2552

                     49                     50                     51
                      A                      A                      A
 Frequencies --    998.4717              1006.7812              1016.2472
 Red. masses --      1.8369                 1.3008                 2.3481
 Frc consts  --      1.0789                 0.7768                 1.4288
 IR Inten    --      3.2799                 0.3865                 8.8116

                     52                     53                     54
                      A                      A                      A
 Frequencies --   1018.7524              1054.0805              1059.6579
 Red. masses --      6.1657                 2.5450                 2.2588
 Frc consts  --      3.7703                 1.6660                 1.4943
 IR Inten    --      0.7784                 2.6229                 3.9377

                     55                     56                     57
                      A                      A                      A
 Frequencies --   1098.8320              1111.4835              1117.6526
 Red. masses --      2.6479                 2.2302                 1.5679
 Frc consts  --      1.8837                 1.6233                 1.1539
 IR Inten    --      0.3930                 1.7217                 4.6529

                     58                     59                     60
                      A                      A                      A
 Frequencies --   1127.2678              1174.3855              1184.1759
 Red. masses --      6.5101                 1.3462                 2.1914
 Frc consts  --      4.8741                 1.0939                 1.8105
 IR Inten    --    150.4598                 9.3886                31.6603

                     61                     62                     63
                      A                      A                      A
 Frequencies --   1189.6479              1192.8782              1216.2396
 Red. masses --      1.3535                 1.1039                 1.1636
 Frc consts  --      1.1286                 0.9255                 1.0141
 IR Inten    --      3.8981                 0.0969                 2.7523

                     64                     65                     66
                      A                      A                      A
 Frequencies --   1226.4445              1226.6853              1241.7690
 Red. masses --      1.4920                 2.7073                 1.2714
 Frc consts  --      1.3222                 2.4002                 1.1551
 IR Inten    --     27.3695                 3.1782                 3.5469

                     67                     68                     69
                      A                      A                      A
 Frequencies --   1261.8579              1270.5546              1292.4696
 Red. masses --      1.2453                 1.1218                 1.1743
 Frc consts  --      1.1683                 1.0670                 1.1557
 IR Inten    --      8.8564                 1.4856                 2.8918

                     70                     71                     72
                      A                      A                      A
 Frequencies --   1309.5076              1328.9972              1355.7643
 Red. masses --      1.0921                 3.6898                 1.1456
 Frc consts  --      1.1034                 3.8397                 1.2407
 IR Inten    --      3.3338               140.5103                 6.9116

                     73                     74                     75
                      A                      A                      A
 Frequencies --   1363.6888              1375.0680              1376.7538
 Red. masses --      4.4440                 1.2896                 1.3863
 Frc consts  --      4.8692                 1.4366                 1.5482
 IR Inten    --     14.7777                 7.3935                 5.9248

                     76                     77                     78
                      A                      A                      A
 Frequencies --   1378.4040              1396.4806              1398.0859
 Red. masses --      1.3555                 1.2946                 1.4273
 Frc consts  --      1.5174                 1.4875                 1.6438
 IR Inten    --      4.0382                 6.9945                 8.0094

                     79                     80                     81
                      A                      A                      A
 Frequencies --   1401.8706              1408.8306              1414.6310
 Red. masses --      1.5996                 1.4290                 1.3443
 Frc consts  --      1.8521                 1.6711                 1.5850
 IR Inten    --      8.4501                33.0705                32.6362

                     82                     83                     84
                      A                      A                      A
 Frequencies --   1498.3635              1501.9314              1506.0273
 Red. masses --      1.1308                 1.9617                 1.0856
 Frc consts  --      1.4958                 2.6073                 1.4508
 IR Inten    --      1.9067                 4.2895                 4.9818

                     85                     86                     87
                      A                      A                      A
 Frequencies --   1509.3260              1510.5891              1512.0268
 Red. masses --      1.1843                 1.0905                 1.0891
 Frc consts  --      1.5895                 1.4662                 1.4670
 IR Inten    --     15.4489                 1.5588                 2.8145

                     88                     89                     90
                      A                      A                      A
 Frequencies --   1519.3138              1520.7821              1523.0098
 Red. masses --      1.0820                 1.0772                 1.0846
 Frc consts  --      1.4715                 1.4679                 1.4822
 IR Inten    --      3.4522                 1.4534                 9.1753

                     91                     92                     93
                      A                      A                      A
 Frequencies --   1541.1197              1547.3340              1645.2959
 Red. masses --      1.0667                 2.1028                 5.4918
 Frc consts  --      1.4927                 2.9664                 8.7589
 IR Inten    --      8.0855                12.5849                 0.8808

                     94                     95                     96
                      A                      A                      A
 Frequencies --   1665.1688              2005.6013              2165.8665
 Red. masses --      5.4413                13.5283                11.7951
 Frc consts  --      8.8893                32.0613                32.5999
 IR Inten    --      2.2927               187.2180                13.0207

                     97                     98                     99
                      A                      A                      A
 Frequencies --   2967.9170              3002.2133              3025.1955
 Red. masses --      1.0817                 1.0390                 1.0634
 Frc consts  --      5.6137                 5.5177                 5.7340
 IR Inten    --     29.4501                66.0699                24.4035

                    100                    101                    102
                      A                      A                      A
 Frequencies --   3029.1001              3031.0531              3032.8532
 Red. masses --      1.0629                 1.0683                 1.0641
 Frc consts  --      5.7461                 5.7826                 5.7670
 IR Inten    --      5.9720                13.4532                32.7911

                    103                    104                    105
                      A                      A                      A
 Frequencies --   3041.5973              3044.7795              3057.0343
 Red. masses --      1.0689                 1.0714                 1.1000
 Frc consts  --      5.8262                 5.8524                 6.0565
 IR Inten    --     13.2013                50.2150                33.4610

                    106                    107                    108
                      A                      A                      A
 Frequencies --   3063.5138              3069.7707              3073.7605
 Red. masses --      1.0980                 1.0982                 1.0951
 Frc consts  --      6.0716                 6.0974                 6.0961
 IR Inten    --     69.9720                47.2222                88.5617

                    109                    110                    111
                      A                      A                      A
 Frequencies --   3082.7380              3089.9626              3133.9220
 Red. masses --      1.0975                 1.1018                 1.0981
 Frc consts  --      6.1451                 6.1983                 6.3540
 IR Inten    --     32.0599                48.3850                27.5549

                    112                    113                    114
                      A                      A                      A
 Frequencies --   3139.5368              3172.0966              3180.7842
 Red. masses --      1.0921                 1.0863                 1.0871
 Frc consts  --      6.3421                 6.4402                 6.4799
 IR Inten    --      6.5998                 7.3438                 2.5299

                    115                    116                    117
                      A                      A                      A
 Frequencies --   3191.6566              3203.4803              3209.9333
 Red. masses --      1.0915                 1.0949                 1.0961
 Frc consts  --      6.5509                 6.6199                 6.6543
 IR Inten    --     31.2866                19.7785                15.9011

 - Thermochemistry -
 -------------------
 Temperature   298.150 Kelvin.  Pressure   1.00000 Atm.
 Atom     1 has atomic number  6 and mass  12.00000

 Molecular mass:   271.16846 amu.
 Principal axes and moments of inertia in atomic units:
                           1         2         3
     Eigenvalues --  3322.296708926.89874**********
           X            0.99998   0.00042   0.00577
           Y           -0.00023   0.99944  -0.03349
           Z           -0.00578   0.03349   0.99942
 This molecule is an asymmetric top.
 Rotational symmetry number  1.
 Warning -- assumption of classical behavior for rotation
           may cause significant error
 Rotational temperatures (Kelvin)      0.02607     0.00970     0.00853
 Rotational constants (GHZ):           0.54322     0.20217     0.17765
    1 imaginary frequencies ignored.
 Zero-point vibrational energy     911408.5 (Joules/Mol)
                                  217.83185 (Kcal/Mol)
 Warning -- explicit consideration of  30 degrees of freedom as
           vibrations may cause significant error
 Vibrational temperatures:     25.08    45.83    54.68    69.98    97.69
          (Kelvin)            111.87   131.17   153.99   191.26   216.98
                              236.72   265.95   322.15   328.94   388.22
                              407.50   457.25   479.42   502.64   531.67
                              560.95   590.13   602.27   637.81   693.08
                              708.02   732.17   818.00   853.08   882.31
                              914.38   967.05  1026.78  1034.24  1097.23
                             1160.32  1175.61  1191.01  1249.54  1250.34
                             1293.18  1298.82  1350.13  1388.00  1406.82
                             1422.29  1433.35  1436.58  1448.53  1462.15
                             1465.76  1516.59  1524.61  1580.97  1599.18
                             1608.05  1621.89  1689.68  1703.76  1711.64
                             1716.29  1749.90  1764.58  1764.93  1786.63
                             1815.53  1828.04  1859.58  1884.09  1912.13
                             1950.64  1962.04  1978.42  1980.84  1983.22
                             2009.22  2011.53  2016.98  2026.99  2035.34
                             2155.81  2160.94  2166.84  2171.58  2173.40
                             2175.47  2185.95  2188.07  2191.27  2217.33
                             2226.27  2367.21  2395.81  2885.61  3116.20
                             4270.17  4319.52  4352.58  4358.20  4361.01
                             4363.60  4376.18  4380.76  4398.39  4407.71
                             4416.72  4422.46  4435.37  4445.77  4509.01
                             4517.09  4563.94  4576.44  4592.08  4609.09
                             4618.38

 Zero-point correction=                           0.347137 (Hartree/Particle)
 Thermal correction to Energy=                    0.366640
 Thermal correction to Enthalpy=                  0.367585
 Thermal correction to Gibbs Free Energy=         0.296958
 Sum of electronic and zero-point Energies=           -861.296930
 Sum of electronic and thermal Energies=              -861.277426
 Sum of electronic and thermal Enthalpies=            -861.276482
 Sum of electronic and thermal Free Energies=         -861.347109

                     E (Thermal)             CV                S
                      KCal/Mol        Cal/Mol-Kelvin    Cal/Mol-Kelvin
 Total                  230.070             73.059            148.647
 Electronic               0.000              0.000              0.000
 Translational            0.889              2.981             42.692
 Rotational               0.889              2.981             34.065
 Vibrational            228.293             67.097             71.891
 Vibration     1          0.593              1.986              6.907
 Vibration     2          0.594              1.983              5.710
 Vibration     3          0.594              1.982              5.360
 Vibration     4          0.595              1.978              4.872
 Vibration     5          0.598              1.970              4.213
 Vibration     6          0.599              1.964              3.947
 Vibration     7          0.602              1.955              3.635
 Vibration     8          0.606              1.944              3.322
 Vibration     9          0.613              1.920              2.903
 Vibration    10          0.618              1.902              2.662
 Vibration    11          0.623              1.886              2.497
 Vibration    12          0.631              1.861              2.279
 Vibration    13          0.649              1.805              1.927
 Vibration    14          0.651              1.797              1.890
 Vibration    15          0.674              1.729              1.597
 Vibration    16          0.682              1.705              1.514
 Vibration    17          0.704              1.640              1.321
 Vibration    18          0.715              1.609              1.244
 Vibration    19          0.727              1.577              1.169
 Vibration    20          0.742              1.535              1.082
 Vibration    21          0.758              1.492              1.001
 Vibration    22          0.774              1.448              0.926
 Vibration    23          0.781              1.430              0.897
 Vibration    24          0.803              1.376              0.816
 Vibration    25          0.838              1.291              0.705
 Vibration    26          0.848              1.268              0.678
 Vibration    27          0.864              1.230              0.636
 Vibration    28          0.925              1.099              0.507
 Vibration    29          0.950              1.047              0.462
 Vibration    30          0.973              1.004              0.427

                           ! Non-Optimized Parameters !
 Normal termination of Gaussian 16 at Tue Mar  5 10:34:15 2024.
