 Gaussian 16, Revision A.03,
 Gaussian 16:  ES64L-G16RevA.03 25-Dec-2016

 ---------------------------------------------------------------------
 # b3lyp/6-31g(d) geom=connectivity opt=(noeigen,maxstep=10) optcyc=60
 ---------------------------------------------------------------------

 -----
 title
 -----
 Symbolic Z-matrix:
 Charge =  0 Multiplicity = 1

 SCF Done:  E(RB3LYP) =  -861.644062097     A.U. after   18 cycles
 SCF Done:  E(RB3LYP) =  -861.644064428     A.U. after   10 cycles
 SCF Done:  E(RB3LYP) =  -861.644065125     A.U. after    9 cycles
 SCF Done:  E(RB3LYP) =  -861.644065774     A.U. after    8 cycles
 SCF Done:  E(RB3LYP) =  -861.644066340     A.U. after    9 cycles
 SCF Done:  E(RB3LYP) =  -861.644066537     A.U. after    8 cycles
 SCF Done:  E(RB3LYP) =  -861.644066690     A.U. after    8 cycles
 SCF Done:  E(RB3LYP) =  -861.644066796     A.U. after    8 cycles
 SCF Done:  E(RB3LYP) =  -861.644067007     A.U. after    9 cycles
 SCF Done:  E(RB3LYP) =  -861.644067752     A.U. after   10 cycles
 SCF Done:  E(RB3LYP) =  -861.781963444     A.U. after   11 cycles
 SCF Done:  E(RB3LYP) =  -861.782137430     A.U. after   12 cycles
 SCF Done:  E(RB3LYP) =  -861.782203689     A.U. after   10 cycles
 SCF Done:  E(RB3LYP) =  -861.782221292     A.U. after   10 cycles
 SCF Done:  E(RB3LYP) =  -861.782224290     A.U. after    9 cycles
 SCF Done:  E(RB3LYP) =  -861.782225485     A.U. after    8 cycles
 SCF Done:  E(RB3LYP) =  -861.782225775     A.U. after    7 cycles
 SCF Done:  E(RB3LYP) =  -861.782225834     A.U. after    7 cycles
 SCF Done:  E(RB3LYP) =  -861.782225877     A.U. after    6 cycles
 SCF Done:  E(RB3LYP) =  -861.782225898     A.U. after    6 cycles
 Optimization completed.
    -- Stationary point found.

                         Standard orientation:
 ---------------------------------------------------------------------
 Center     Atomic      Atomic             Coordinates (Angstroms)
 Number     Number       Type             X           Y           Z
 ---------------------------------------------------------------------
      1          6           0        3.743550    0.849346   -0.828025
      2          6           0        4.670723   -0.112378   -0.063835
      3          6           0        4.081366   -1.476632    0.326695
      4          6           0        2.817965   -1.460390    1.218977
      5          6           0        2.672832    1.554001    0.045306
      6          6           0        1.224657    1.210627   -0.327748
      7          1           0        3.261348    0.307171   -1.653521
      8          1           0        5.036243    0.396732    0.840349
      9          1           0        3.860001   -2.056565   -0.579158
     10          1           0        4.368000    1.615276   -1.303203
     11          1           0        5.559210   -0.299904   -0.681643
     12          1           0        4.864338   -2.032033    0.859677
     13          1           0        2.745897   -2.426645    1.728973
     14          1           0        2.924350   -0.703914    2.006492
     15          1           0        2.783484    2.639063   -0.052214
     16          1           0        2.819248    1.333748    1.107598
     17          1           0        1.084112    1.459713   -1.395667
     18          6           0        0.877493   -0.236655   -0.126978
     19          6           0        1.512069   -1.307454    0.487677
     20          7           0       -0.278327   -0.783787   -0.619972
     21          7           0       -0.351490   -2.096923   -0.337744
     22          7           0        0.725700   -2.415000    0.325028
     23          6           0       -1.390594   -0.155297   -1.338620
     24          1           0       -1.071163    0.856534   -1.597132
     25          1           0       -1.531750   -0.712394   -2.269113
     26          6           0       -2.686618   -0.125551   -0.549604
     27          6           0       -2.774921    0.568215    0.664846
     28          6           0       -3.818658   -0.776893   -1.047324
     29          6           0       -3.979614    0.604361    1.365210
     30          1           0       -1.894206    1.068545    1.057169
     31          6           0       -5.027170   -0.734851   -0.348893
     32          1           0       -3.753971   -1.326874   -1.983271
     33          6           0       -5.109698   -0.044053    0.859637
     34          1           0       -4.037664    1.140943    2.308740
     35          1           0       -5.898696   -1.247920   -0.746629
     36          1           0       -6.047568   -0.013303    1.407927
     37          8           0        0.280564    1.982337    0.432116
     38          6           0        0.144406    3.331857    0.021485
     39          1           0       -0.703878    3.741835    0.575108
     40          1           0        1.034799    3.934841    0.246259
     41          1           0       -0.064556    3.406919   -1.057687
 ---------------------------------------------------------------------

 The electronic state is 1-A.
 Alpha  occ. eigenvalues --  -19.16442 -14.41246 -14.37077 -14.33341 -10.26095
 Alpha  occ. eigenvalues --  -10.24023 -10.23996 -10.22355 -10.20375 -10.19805
 Alpha  occ. eigenvalues --  -10.19267 -10.19035 -10.18887 -10.18811 -10.18761
 Alpha  occ. eigenvalues --  -10.18715 -10.18504 -10.18458 -10.18382 -10.18187
 Alpha  occ. eigenvalues --   -1.08091  -1.04345  -0.90583  -0.85086  -0.83220
 Alpha  occ. eigenvalues --   -0.79147  -0.78252  -0.76647  -0.74109  -0.71739
 Alpha  occ. eigenvalues --   -0.70653  -0.69344  -0.65791  -0.60837  -0.60693
 Alpha  occ. eigenvalues --   -0.59985  -0.58626  -0.56737  -0.56199  -0.52054
 Alpha  occ. eigenvalues --   -0.51315  -0.50200  -0.47753  -0.47150  -0.46766
 Alpha  occ. eigenvalues --   -0.45838  -0.45585  -0.44951  -0.44304  -0.42875
 Alpha  occ. eigenvalues --   -0.42229  -0.41601  -0.41216  -0.40128  -0.39678
 Alpha  occ. eigenvalues --   -0.39199  -0.37583  -0.36950  -0.35797  -0.35620
 Alpha  occ. eigenvalues --   -0.34646  -0.34463  -0.33721  -0.32758  -0.32220
 Alpha  occ. eigenvalues --   -0.31215  -0.30671  -0.27809  -0.26712  -0.25333
 Alpha  occ. eigenvalues --   -0.24664  -0.24433  -0.23409
 Alpha virt. eigenvalues --   -0.00457  -0.00196   0.00471   0.04854   0.07030
 Alpha virt. eigenvalues --    0.08159   0.09656   0.10392   0.11557   0.12089
 Alpha virt. eigenvalues --    0.12417   0.13226   0.13676   0.14052   0.14840

 Mulliken charges:
               1
     1  C   -0.270901
     2  C   -0.263037
     3  C   -0.252955
     4  C   -0.345653
     5  C   -0.286962
     6  C    0.069034
     7  H    0.141666
     8  H    0.131168
     9  H    0.145084
    10  H    0.137729
    11  H    0.133562
    12  H    0.135848
    13  H    0.169595
    14  H    0.145397
    15  H    0.139415
    16  H    0.157422
    17  H    0.121519
    18  C    0.328378
    19  C    0.188766
    20  N   -0.313812
    21  N   -0.073086
    22  N   -0.330605
    23  C   -0.236737
    24  H    0.174119
    25  H    0.177628
    26  C    0.172557
    27  C   -0.184086
    28  C   -0.178336
    29  C   -0.131278
    30  H    0.167083
    31  C   -0.127988
    32  H    0.129126
    33  C   -0.126036
    34  H    0.130090
    35  H    0.130932
    36  H    0.129797
    37  O   -0.474008
    38  C   -0.202234
    39  H    0.167477
    40  H    0.143165
    41  H    0.131157
 Sum of Mulliken charges =  -0.00000

 Dipole moment (field-independent basis, Debye):
    X=              0.9957    Y=              4.8671    Z=             -1.5614  Tot=              5.2075
 Quadrupole moment (field-independent basis, Debye-Ang):
   XX=           -106.1257   YY=           -124.5440   ZZ=           -114.1926
   XY=              1.7178   XZ=              0.6487   YZ=              1.1484

 1\1\GINC-NODE92\FOpt\RB3LYP\6-31G(d)\C16H21N3O1\LIAOYT\28-Aug-2024\0\\
 # b3lyp/6-31g(d) geom=connectivity opt=(noeigen,maxstep=10) optcyc=60\
 \title\\0,1\C,3.8128803515,0.6720154349,-0.5612410115\C,4.6577855847,-
 0.4662362448,0.0379828172\C,3.9668831281,-1.8292717597,0.1987022004\C,
 2.695018424,-1.8665460877,1.0782386583\C,2.7826258672,1.3011674663,0.4
 126311069\C,1.319208644,1.1295132235,-0.0154232072\H,3.3052537159,0.30
 80556144,-1.4655436309\H,5.0455341556,-0.1391230558,1.0141974071\H,3.7
 178719467,-2.2362992812,-0.790345172\H,4.4972839029,1.4575477991,-0.90

 Normal termination of Gaussian 16 at Wed Aug 28 17:01:24 2024.
