 Gaussian 16, Revision A.03,
 Gaussian 16:  ES64L-G16RevA.03 25-Dec-2016

 ----------------------------------------------------------------------
 # b3lyp/6-31g(d) geom=connectivity opt=(noeigen,addredundant,maxstep=1
 0) optcyc=60
 ----------------------------------------------------------------------

 -----
 title
 -----
 Symbolic Z-matrix:
 Charge =  0 Multiplicity = 1

 SCF Done:  E(RB3LYP) =  -861.644062097     A.U. after   18 cycles
 SCF Done:  E(RB3LYP) =  -861.644064426     A.U. after   10 cycles
 SCF Done:  E(RB3LYP) =  -861.644065138     A.U. after    9 cycles
 SCF Done:  E(RB3LYP) =  -861.644065774     A.U. after    8 cycles
 SCF Done:  E(RB3LYP) =  -861.644066331     A.U. after    9 cycles
 SCF Done:  E(RB3LYP) =  -861.644066524     A.U. after    8 cycles
 SCF Done:  E(RB3LYP) =  -861.644066663     A.U. after    8 cycles
 SCF Done:  E(RB3LYP) =  -861.644066706     A.U. after    8 cycles
 Optimization completed.
    -- Stationary point found.

                         Standard orientation:
 ---------------------------------------------------------------------
 Center     Atomic      Atomic             Coordinates (Angstroms)
 Number     Number       Type             X           Y           Z
 ---------------------------------------------------------------------
      1          6           0        4.035686    0.854871    0.421723
      2          6           0        4.208182   -0.476908    1.207488
      3          6           0        3.985578   -1.807349    0.453794
      4          6           0        2.533465   -2.326728    0.398631
      5          6           0        2.701205    1.625468    0.558495
      6          6           0        1.606713    1.290382   -0.482856
      7          1           0        4.257001    0.685326   -0.641791
      8          1           0        3.581589   -0.455717    2.110446
      9          1           0        4.367956   -1.709620   -0.571144
     10          1           0        4.821337    1.534359    0.774665
     11          1           0        5.243529   -0.495379    1.570774
     12          1           0        4.591989   -2.587759    0.933294
     13          1           0        2.493443   -3.259320   -0.175812
     14          1           0        2.192315   -2.580794    1.412655
     15          1           0        2.914362    2.698714    0.475802
     16          1           0        2.269730    1.467688    1.554553
     17          1           0        1.986983    1.526968   -1.492087
     18          6           0        1.303864   -0.145599   -0.411966
     19          6           0        1.626896   -1.313216   -0.166433
     20          7           0       -0.678347   -0.420007   -1.544276
     21          7           0       -0.698097   -1.658981   -1.336623
     22          7           0       -0.036604   -2.531420   -0.933435
     23          6           0       -1.956131    0.313483   -1.606863
     24          1           0       -1.648871    1.356693   -1.700509
     25          1           0       -2.488196    0.040789   -2.527770
     26          6           0       -2.860338    0.127192   -0.403873
     27          6           0       -2.474374    0.605678    0.856691
     28          6           0       -4.087537   -0.531039   -0.534288
     29          6           0       -3.306319    0.426779    1.960818
     30          1           0       -1.518782    1.112495    0.959920
     31          6           0       -4.922545   -0.708406    0.571445
     32          1           0       -4.393633   -0.907450   -1.508281
     33          6           0       -4.532700   -0.229637    1.821945
     34          1           0       -2.998897    0.802164    2.933697
     35          1           0       -5.873792   -1.221103    0.454254
     36          1           0       -5.179446   -0.366583    2.684734
     37          8           0        0.425158    2.067464   -0.257309
     38          6           0        0.521092    3.418682   -0.669445
     39          1           0       -0.481395    3.845170   -0.577992
     40          1           0        1.207556    4.007041   -0.044426
     41          1           0        0.848879    3.497551   -1.718000
 ---------------------------------------------------------------------

 The electronic state is 1-A.
 Alpha  occ. eigenvalues --  -19.15495 -14.45418 -14.38270 -14.37205 -10.25391
 Alpha  occ. eigenvalues --  -10.23265 -10.22283 -10.19557 -10.18978 -10.18587
 Alpha  occ. eigenvalues --  -10.18567 -10.18472 -10.18424 -10.18377 -10.18363
 Alpha  occ. eigenvalues --  -10.18280 -10.18223 -10.18161 -10.17971 -10.17806
 Alpha  occ. eigenvalues --   -1.09803  -1.03483  -0.92725  -0.84649  -0.81834
 Alpha  occ. eigenvalues --   -0.78010  -0.76702  -0.76209  -0.73638  -0.70191
 Alpha  occ. eigenvalues --   -0.69751  -0.68028  -0.65049  -0.59926  -0.59196
 Alpha  occ. eigenvalues --   -0.58902  -0.57287  -0.52925  -0.51245  -0.50506
 Alpha  occ. eigenvalues --   -0.49335  -0.49136  -0.47366  -0.46867  -0.46093
 Alpha  occ. eigenvalues --   -0.45377  -0.44657  -0.44422  -0.43319  -0.42724
 Alpha  occ. eigenvalues --   -0.42042  -0.41209  -0.40425  -0.40316  -0.39046
 Alpha  occ. eigenvalues --   -0.38972  -0.38445  -0.37818  -0.35395  -0.35081
 Alpha  occ. eigenvalues --   -0.34349  -0.33688  -0.33133  -0.32519  -0.31868
 Alpha  occ. eigenvalues --   -0.31385  -0.28549  -0.26543  -0.24727  -0.24358
 Alpha  occ. eigenvalues --   -0.24273  -0.23158  -0.22874
 Alpha virt. eigenvalues --   -0.03673   0.00086   0.00621   0.02113   0.03836
 Alpha virt. eigenvalues --    0.05549   0.08518   0.09328   0.10288   0.11273
 Alpha virt. eigenvalues --    0.12173   0.13137   0.13347   0.13853   0.14557

 Mulliken charges:
               1
     1  C   -0.267282
     2  C   -0.256810
     3  C   -0.256798
     4  C   -0.347953
     5  C   -0.272659
     6  C    0.054488
     7  H    0.137036
     8  H    0.136463
     9  H    0.140062
    10  H    0.134244
    11  H    0.133074
    12  H    0.131981
    13  H    0.165719
    14  H    0.163407
    15  H    0.129969
    16  H    0.149562
    17  H    0.134119
    18  C    0.096446
    19  C    0.013613
    20  N   -0.287361
    21  N    0.252246
    22  N   -0.223649
    23  C   -0.224123
    24  H    0.177069
    25  H    0.154557
    26  C    0.144641
    27  C   -0.177768
    28  C   -0.182285
    29  C   -0.132079
    30  H    0.165724
    31  C   -0.127519
    32  H    0.123735
    33  C   -0.127662
    34  H    0.127675
    35  H    0.127665
    36  H    0.127040
    37  O   -0.470545
    38  C   -0.201660
    39  H    0.161842
    40  H    0.139629
    41  H    0.134147
 Sum of Mulliken charges =  -0.00000

 Dipole moment (field-independent basis, Debye):
    X=              1.1245    Y=              2.4730    Z=              0.1452  Tot=              2.7206
 Quadrupole moment (field-independent basis, Debye-Ang):
   XX=           -107.1089   YY=           -116.2128   ZZ=           -114.2682
   XY=              2.3997   XZ=              2.0340   YZ=             -3.4122

 Normal termination of Gaussian 16 at Tue Mar  5 09:55:06 2024.
