 Gaussian 16, Revision A.03,
 Gaussian 16:  ES64L-G16RevA.03 25-Dec-2016

 ----------------------------------------------------------------------
 # b3lyp/6-31g(d) geom=connectivity em=gd3 opt=(noeigen,maxstep=10) opt
 cyc=60
 ----------------------------------------------------------------------

 -----
 title
 -----
 Symbolic Z-matrix:
 Charge =  0 Multiplicity = 1

 SCF Done:  E(RB3LYP) =  -861.686509285     A.U. after   18 cycles
 SCF Done:  E(RB3LYP) =  -861.685902239     A.U. after   13 cycles
 SCF Done:  E(RB3LYP) =  -861.686943908     A.U. after   13 cycles
 SCF Done:  E(RB3LYP) =  -861.687046219     A.U. after   11 cycles
 SCF Done:  E(RB3LYP) =  -861.687095580     A.U. after   12 cycles
 SCF Done:  E(RB3LYP) =  -861.687172309     A.U. after   13 cycles
 SCF Done:  E(RB3LYP) =  -861.687225889     A.U. after   14 cycles
 SCF Done:  E(RB3LYP) =  -861.687256971     A.U. after   12 cycles
 SCF Done:  E(RB3LYP) =  -861.687498336     A.U. after   14 cycles
 SCF Done:  E(RB3LYP) =  -861.687686667     A.U. after   15 cycles
 SCF Done:  E(RB3LYP) =  -861.825466257     A.U. after   11 cycles
 SCF Done:  E(RB3LYP) =  -861.825610328     A.U. after   12 cycles
 SCF Done:  E(RB3LYP) =  -861.825721704     A.U. after   12 cycles
 SCF Done:  E(RB3LYP) =  -861.825762708     A.U. after   11 cycles
 SCF Done:  E(RB3LYP) =  -861.825788508     A.U. after   11 cycles
 SCF Done:  E(RB3LYP) =  -861.825793043     A.U. after    9 cycles
 SCF Done:  E(RB3LYP) =  -861.825794347     A.U. after    9 cycles
 SCF Done:  E(RB3LYP) =  -861.825794911     A.U. after    8 cycles
 SCF Done:  E(RB3LYP) =  -861.825795074     A.U. after    7 cycles
 SCF Done:  E(RB3LYP) =  -861.825795138     A.U. after    7 cycles
 Optimization completed.
    -- Stationary point found.

                         Standard orientation:
 ---------------------------------------------------------------------
 Center     Atomic      Atomic             Coordinates (Angstroms)
 Number     Number       Type             X           Y           Z
 ---------------------------------------------------------------------
      1          6           0        3.722366    0.922550   -0.773957
      2          6           0        4.656380   -0.032694   -0.010655
      3          6           0        4.088995   -1.419758    0.326994
      4          6           0        2.815363   -1.449917    1.203873
      5          6           0        2.619803    1.585172    0.091812
      6          6           0        1.193882    1.210024   -0.323396
      7          1           0        3.265335    0.379899   -1.613484
      8          1           0        4.983736    0.460132    0.916768
      9          1           0        3.885897   -1.970873   -0.600829
     10          1           0        4.334967    1.710396   -1.227773
     11          1           0        5.564666   -0.181897   -0.609707
     12          1           0        4.875442   -1.979375    0.850118
     13          1           0        2.759673   -2.423746    1.701153
     14          1           0        2.891963   -0.699661    2.000401
     15          1           0        2.700053    2.675066    0.022026
     16          1           0        2.743718    1.343999    1.151980
     17          1           0        1.072605    1.468603   -1.391131
     18          6           0        0.878727   -0.245571   -0.153391
     19          6           0        1.519588   -1.314724    0.454338
     20          7           0       -0.257727   -0.801049   -0.676947
     21          7           0       -0.317094   -2.120182   -0.417583
     22          7           0        0.754488   -2.432603    0.257598
     23          6           0       -1.377644   -0.165498   -1.372512
     24          1           0       -1.061621    0.847511   -1.631702
     25          1           0       -1.537470   -0.716934   -2.303111
     26          6           0       -2.651853   -0.135942   -0.550793
     27          6           0       -2.678223    0.483020    0.705822
     28          6           0       -3.819746   -0.714363   -1.054375
     29          6           0       -3.861294    0.519854    1.442015
     30          1           0       -1.767989    0.925011    1.098701
     31          6           0       -5.006464   -0.671098   -0.319192
     32          1           0       -3.801067   -1.208941   -2.022781
     33          6           0       -5.029264   -0.053735    0.931290
     34          1           0       -3.872460    0.997511    2.418360
     35          1           0       -5.907358   -1.127296   -0.720755
     36          1           0       -5.949818   -0.023428    1.508189
     37          8           0        0.216352    1.943450    0.430221
     38          6           0       -0.037126    3.254910   -0.041119
     39          1           0       -0.853218    3.652036    0.567500
     40          1           0        0.834951    3.916535    0.059909
     41          1           0       -0.351434    3.251313   -1.097598
 ---------------------------------------------------------------------

 The electronic state is 1-A.
 Alpha  occ. eigenvalues --  -19.16500 -14.41224 -14.37116 -14.33375 -10.26072
 Alpha  occ. eigenvalues --  -10.24110 -10.24000 -10.22299 -10.20378 -10.19750
 Alpha  occ. eigenvalues --  -10.19264 -10.19039 -10.18866 -10.18777 -10.18726
 Alpha  occ. eigenvalues --  -10.18660 -10.18514 -10.18466 -10.18224 -10.18194
 Alpha  occ. eigenvalues --   -1.08124  -1.04495  -0.90654  -0.85049  -0.83318
 Alpha  occ. eigenvalues --   -0.79186  -0.78327  -0.76653  -0.74064  -0.71773
 Alpha  occ. eigenvalues --   -0.70652  -0.69331  -0.65861  -0.60863  -0.60750
 Alpha  occ. eigenvalues --   -0.59954  -0.58629  -0.56757  -0.56277  -0.52058
 Alpha  occ. eigenvalues --   -0.51412  -0.50284  -0.47803  -0.47259  -0.46783
 Alpha  occ. eigenvalues --   -0.45908  -0.45550  -0.44969  -0.44287  -0.42900
 Alpha  occ. eigenvalues --   -0.42265  -0.41580  -0.41206  -0.40228  -0.39705
 Alpha  occ. eigenvalues --   -0.39240  -0.37519  -0.36942  -0.35792  -0.35618
 Alpha  occ. eigenvalues --   -0.34647  -0.34496  -0.33682  -0.32828  -0.32303
 Alpha  occ. eigenvalues --   -0.31255  -0.30727  -0.27894  -0.26719  -0.25335
 Alpha  occ. eigenvalues --   -0.24631  -0.24386  -0.23393
 Alpha virt. eigenvalues --   -0.00401  -0.00172   0.00462   0.04865   0.06934
 Alpha virt. eigenvalues --    0.08142   0.09729   0.10315   0.11567   0.11847
 Alpha virt. eigenvalues --    0.12303   0.13364   0.13604   0.14042   0.14836

 Mulliken charges:
               1
     1  C   -0.271757
     2  C   -0.263065
     3  C   -0.253175
     4  C   -0.345367
     5  C   -0.283136
     6  C    0.062272
     7  H    0.141691
     8  H    0.131472
     9  H    0.145206
    10  H    0.137938
    11  H    0.133575
    12  H    0.136011
    13  H    0.169348
    14  H    0.145616
    15  H    0.139434
    16  H    0.157463
    17  H    0.123252
    18  C    0.331255
    19  C    0.188485
    20  N   -0.313316
    21  N   -0.072439
    22  N   -0.331167
    23  C   -0.237729
    24  H    0.173241
    25  H    0.178349
    26  C    0.170773
    27  C   -0.184189
    28  C   -0.180123
    29  C   -0.132547
    30  H    0.172379
    31  C   -0.128375
    32  H    0.127800
    33  C   -0.126152
    34  H    0.129817
    35  H    0.130483
    36  H    0.129387
    37  O   -0.472189
    38  C   -0.203665
    39  H    0.169053
    40  H    0.141943
    41  H    0.132146
 Sum of Mulliken charges =  -0.00000

 Dipole moment (field-independent basis, Debye):
    X=              0.9341    Y=              4.9385    Z=             -1.4752  Tot=              5.2381
 Quadrupole moment (field-independent basis, Debye-Ang):
   XX=           -106.5215   YY=           -125.3737   ZZ=           -113.7849
   XY=              1.5188   XZ=              0.8675   YZ=              0.4206

 Normal termination of Gaussian 16 at Wed Mar  6 15:01:08 2024.
