 Gaussian 16, Revision A.03,
 Gaussian 16:  ES64L-G16RevA.03 25-Dec-2016

 ------------------------------------------------------------------
 # 6-31+g(d) scrf=(solvent=water,pcm) int=ultrafine m062x scf=tight
 ------------------------------------------------------------------

 ------------------------
 tmpdir/M1_conf_123_0.gjf
 ------------------------
 Symbolic Z-matrix:
 Charge = -1 Multiplicity = 1

                         Standard orientation:
 ---------------------------------------------------------------------
 Center     Atomic      Atomic             Coordinates (Angstroms)
 Number     Number       Type             X           Y           Z
 ---------------------------------------------------------------------
      1          7           0        0.000000    0.000000    0.541900
      2          6           0       -0.000000   -0.000000   -0.632217
 ---------------------------------------------------------------------

 SCF Done:  E(RM062X) =  -92.9322782957     A.U. after   10 cycles

 The electronic state is 1-SG.
 Alpha  occ. eigenvalues --  -14.69758 -10.49596  -0.93351  -0.43949  -0.34285
 Alpha  occ. eigenvalues --   -0.34285  -0.30675
 Alpha virt. eigenvalues --    0.04907   0.06841   0.06841   0.08736   0.14102
 Alpha virt. eigenvalues --    0.14102   0.16507   0.22756   0.22756   0.27847
 Alpha virt. eigenvalues --    0.52440   0.77412   0.77412   0.84222   1.00369

 Mulliken charges:
               1
     1  N   -0.668772
     2  C   -0.331228
 Sum of Mulliken charges =  -1.00000

 Dipole moment (field-independent basis, Debye):
    X=              0.0000    Y=              0.0000    Z=              0.4161  Tot=              0.4161
 Quadrupole moment (field-independent basis, Debye-Ang):
   XX=            -14.6389   YY=            -14.6389   ZZ=            -19.4957
   XY=             -0.0000   XZ=             -0.0000   YZ=             -0.0000

 Normal termination of Gaussian 16 at Fri Sep 22 17:11:39 2023.
