 Gaussian 16, Revision A.03,
 Gaussian 16:  ES64L-G16RevA.03 25-Dec-2016

 ------------------------------------------------------------------
 # 6-31+g(d) scrf=(solvent=water,pcm) int=ultrafine m062x scf=tight
 ------------------------------------------------------------------

 -----------------------
 tmpdir/M1_conf_62_0.gjf
 -----------------------
 Symbolic Z-matrix:
 Charge = -1 Multiplicity = 1

                         Standard orientation:
 ---------------------------------------------------------------------
 Center     Atomic      Atomic             Coordinates (Angstroms)
 Number     Number       Type             X           Y           Z
 ---------------------------------------------------------------------
      1          7           0       -0.000000   -0.000000    0.540588
      2          6           0        0.000000    0.000000   -0.630686
 ---------------------------------------------------------------------

 SCF Done:  E(RM062X) =  -92.9322363992     A.U. after   10 cycles

 The electronic state is 1-SG.
 Alpha  occ. eigenvalues --  -14.69689 -10.49501  -0.93453  -0.43897  -0.34343
 Alpha  occ. eigenvalues --   -0.34343  -0.30667
 Alpha virt. eigenvalues --    0.04904   0.06852   0.06852   0.08739   0.14145
 Alpha virt. eigenvalues --    0.14145   0.16519   0.22814   0.22814   0.27860
 Alpha virt. eigenvalues --    0.52496   0.77424   0.77424   0.84325   1.00436

 Mulliken charges:
               1
     1  N   -0.669051
     2  C   -0.330949
 Sum of Mulliken charges =  -1.00000

 Dipole moment (field-independent basis, Debye):
    X=              0.0000    Y=             -0.0000    Z=              0.4240  Tot=              0.4240
 Quadrupole moment (field-independent basis, Debye-Ang):
   XX=            -14.6278   YY=            -14.6278   ZZ=            -19.4870
   XY=              0.0000   XZ=              0.0000   YZ=              0.0000

 Normal termination of Gaussian 16 at Fri Sep 22 17:06:30 2023.
