 Gaussian 16, Revision A.03,
 Gaussian 16:  ES64L-G16RevA.03 25-Dec-2016

 ------------------------------------------------------------------
 # 6-31+g(d) scrf=(solvent=water,pcm) int=ultrafine m062x scf=tight
 ------------------------------------------------------------------

 -----------------------
 tmpdir/M1_conf_35_2.gjf
 -----------------------
 Symbolic Z-matrix:
 Charge =  0 Multiplicity = 1

                         Standard orientation:
 ---------------------------------------------------------------------
 Center     Atomic      Atomic             Coordinates (Angstroms)
 Number     Number       Type             X           Y           Z
 ---------------------------------------------------------------------
      1         17           0       -0.000000   -0.000000    0.077561
      2          1           0        0.000000    0.000000   -1.318529
 ---------------------------------------------------------------------

 SCF Done:  E(RM062X) =  -460.755250665     A.U. after    8 cycles

 The electronic state is 1-SG.
 Alpha  occ. eigenvalues -- -102.67817  -9.82503  -7.54913  -7.54235  -7.54235
 Alpha  occ. eigenvalues --   -0.92933  -0.51976  -0.39756  -0.39756
 Alpha virt. eigenvalues --    0.01462   0.07639   0.08626   0.08626   0.09217
 Alpha virt. eigenvalues --    0.58968   0.62427   0.63677   0.63677   0.80093
 Alpha virt. eigenvalues --    0.90558   0.90558   0.93186   0.93189   1.20305

 Mulliken charges:
               1
     1  Cl  -0.287048
     2  H    0.287048
 Sum of Mulliken charges =  -0.00000

 Dipole moment (field-independent basis, Debye):
    X=              0.0000    Y=              0.0000    Z=             -1.9608  Tot=              1.9608
 Quadrupole moment (field-independent basis, Debye-Ang):
   XX=            -14.3536   YY=            -14.3536   ZZ=             -9.9038
   XY=              0.0000   XZ=              0.0000   YZ=              0.0000

 Normal termination of Gaussian 16 at Fri Sep 22 17:04:16 2023.
