 Gaussian 16, Revision A.03,
 Gaussian 16:  ES64L-G16RevA.03 25-Dec-2016

 ------------------------------------------------------------------
 # 6-31+g(d) scrf=(solvent=water,pcm) int=ultrafine m062x scf=tight
 ------------------------------------------------------------------

 -----------------------
 tmpdir/M1_conf_26_1.gjf
 -----------------------
 Symbolic Z-matrix:
 Charge =  0 Multiplicity = 1

                         Standard orientation:
 ---------------------------------------------------------------------
 Center     Atomic      Atomic             Coordinates (Angstroms)
 Number     Number       Type             X           Y           Z
 ---------------------------------------------------------------------
      1          6           0        0.016894    0.000004    0.000000
      2          1           0        0.348727   -0.749331   -0.709361
      3          1           0        0.349787   -0.239233    1.003335
      4          1           0        0.348334    0.988975   -0.294764
      5          1           0       -1.148209   -0.000435    0.000787
 ---------------------------------------------------------------------

 SCF Done:  E(RM062X) =  -40.4806255340     A.U. after    9 cycles

 The electronic state is 1-A.
 Alpha  occ. eigenvalues --  -10.53156  -0.78220  -0.46122  -0.46121  -0.43868
 Alpha virt. eigenvalues --    0.03927   0.07141   0.07141   0.07375   0.20943
 Alpha virt. eigenvalues --    0.23489   0.23490   0.30746   0.68873   0.68874
 Alpha virt. eigenvalues --    0.70671   0.96103   1.00826   1.00828   1.10821

 Mulliken charges:
               1
     1  C   -0.828239
     2  H    0.212396
     3  H    0.212416
     4  H    0.212415
     5  H    0.191012
 Sum of Mulliken charges =   0.00000

 Dipole moment (field-independent basis, Debye):
    X=              0.0307    Y=              0.0001    Z=             -0.0000  Tot=              0.0307
 Quadrupole moment (field-independent basis, Debye-Ang):
   XX=             -8.6110   YY=             -8.4633   ZZ=             -8.4632
   XY=             -0.0001   XZ=              0.0003   YZ=             -0.0000

 Normal termination of Gaussian 16 at Fri Sep 22 17:03:35 2023.
