 Gaussian 16, Revision A.03,
 Gaussian 16:  ES64L-G16RevA.03 25-Dec-2016

 ------------------------------------------------------------------
 # 6-31+g(d) scrf=(solvent=water,pcm) int=ultrafine m062x scf=tight
 ------------------------------------------------------------------

 -----------------------
 tmpdir/M1_conf_57_1.gjf
 -----------------------
 Symbolic Z-matrix:
 Charge =  0 Multiplicity = 1

                         Standard orientation:
 ---------------------------------------------------------------------
 Center     Atomic      Atomic             Coordinates (Angstroms)
 Number     Number       Type             X           Y           Z
 ---------------------------------------------------------------------
      1          6           0       -0.062081    0.000001    0.000297
      2          1           0       -0.287933    0.924224   -0.509307
      3          1           0       -0.279206   -0.019656    1.057294
      4          1           0       -0.288125   -0.904571   -0.543346
      5          1           0        1.227749   -0.000003   -0.006422
 ---------------------------------------------------------------------

 SCF Done:  E(RM062X) =  -40.4631826630     A.U. after    9 cycles

 The electronic state is 1-A.
 Alpha  occ. eigenvalues --  -10.54346  -0.77781  -0.47302  -0.47302  -0.40337
 Alpha virt. eigenvalues --    0.03742   0.07010   0.07010   0.07718   0.16684
 Alpha virt. eigenvalues --    0.24106   0.24107   0.29721   0.68514   0.68515
 Alpha virt. eigenvalues --    0.72246   0.90220   1.02247   1.02248   1.10034

 Mulliken charges:
               1
     1  C   -0.824178
     2  H    0.223036
     3  H    0.223049
     4  H    0.223033
     5  H    0.155061
 Sum of Mulliken charges =  -0.00000

 Dipole moment (field-independent basis, Debye):
    X=             -0.0545    Y=              0.0000    Z=              0.0006  Tot=              0.0545
 Quadrupole moment (field-independent basis, Debye-Ang):
   XX=             -9.1674   YY=             -8.3775   ZZ=             -8.3779
   XY=             -0.0000   XZ=              0.0051   YZ=             -0.0000

 Normal termination of Gaussian 16 at Fri Sep 22 17:06:08 2023.
