 Gaussian 16, Revision A.03,
 Gaussian 16:  ES64L-G16RevA.03 25-Dec-2016

 ------------------------------------------------------------------
 # 6-31+g(d) scrf=(solvent=water,pcm) int=ultrafine m062x scf=tight
 ------------------------------------------------------------------

 -----------------------
 tmpdir/M1_conf_74_1.gjf
 -----------------------
 Symbolic Z-matrix:
 Charge =  0 Multiplicity = 1

                         Standard orientation:
 ---------------------------------------------------------------------
 Center     Atomic      Atomic             Coordinates (Angstroms)
 Number     Number       Type             X           Y           Z
 ---------------------------------------------------------------------
      1          6           0        0.098314   -0.000017    0.000207
      2          1           0        0.227882   -0.901531   -0.575081
      3          1           0        0.224316   -0.047774    1.068955
      4          1           0        0.228048    0.949178   -0.492410
      5          1           0       -1.270131    0.000228   -0.002706
 ---------------------------------------------------------------------

 SCF Done:  E(RM062X) =  -40.4452284754     A.U. after    9 cycles

 The electronic state is 1-A.
 Alpha  occ. eigenvalues --  -10.55119  -0.77757  -0.48076  -0.48075  -0.38144
 Alpha virt. eigenvalues --    0.03477   0.06931   0.06931   0.07952   0.13868
 Alpha virt. eigenvalues --    0.24449   0.24450   0.29052   0.68321   0.68322
 Alpha virt. eigenvalues --    0.72843   0.87259   1.02954   1.02956   1.09569

 Mulliken charges:
               1
     1  C   -0.828144
     2  H    0.232824
     3  H    0.232839
     4  H    0.232830
     5  H    0.129650
 Sum of Mulliken charges =   0.00000

 Dipole moment (field-independent basis, Debye):
    X=              0.0445    Y=              0.0000    Z=              0.0002  Tot=              0.0445
 Quadrupole moment (field-independent basis, Debye-Ang):
   XX=             -9.6475   YY=             -8.3243   ZZ=             -8.3244
   XY=              0.0003   XZ=             -0.0033   YZ=             -0.0000

 Normal termination of Gaussian 16 at Fri Sep 22 17:07:33 2023.
