 Gaussian 16, Revision A.03,
 Gaussian 16:  ES64L-G16RevA.03 25-Dec-2016

 ------------------------------------------------------------------
 # 6-31+g(d) scrf=(solvent=water,pcm) int=ultrafine m062x scf=tight
 ------------------------------------------------------------------

 ----------------------
 tmpdir/M1_conf_5_0.gjf
 ----------------------
 Symbolic Z-matrix:
 Charge = -1 Multiplicity = 1

                         Standard orientation:
 ---------------------------------------------------------------------
 Center     Atomic      Atomic             Coordinates (Angstroms)
 Number     Number       Type             X           Y           Z
 ---------------------------------------------------------------------
      1          7           0        0.000000   -0.000000    0.542392
      2          6           0       -0.000000    0.000000   -0.632790
 ---------------------------------------------------------------------

 SCF Done:  E(RM062X) =  -92.9322850813     A.U. after   10 cycles

 The electronic state is 1-SG.
 Alpha  occ. eigenvalues --  -14.69783 -10.49631  -0.93313  -0.43969  -0.34263
 Alpha  occ. eigenvalues --   -0.34263  -0.30678
 Alpha virt. eigenvalues --    0.04908   0.06837   0.06837   0.08735   0.14086
 Alpha virt. eigenvalues --    0.14086   0.16502   0.22734   0.22734   0.27842
 Alpha virt. eigenvalues --    0.52419   0.77407   0.77407   0.84183   1.00345

 Mulliken charges:
               1
     1  N   -0.668669
     2  C   -0.331331
 Sum of Mulliken charges =  -1.00000

 Dipole moment (field-independent basis, Debye):
    X=             -0.0000    Y=              0.0000    Z=              0.4131  Tot=              0.4131
 Quadrupole moment (field-independent basis, Debye-Ang):
   XX=            -14.6431   YY=            -14.6431   ZZ=            -19.4990
   XY=              0.0000   XZ=             -0.0000   YZ=              0.0000

 Normal termination of Gaussian 16 at Fri Sep 22 17:01:50 2023.
