 Gaussian 16, Revision A.03,
 Gaussian 16:  ES64L-G16RevA.03 25-Dec-2016

 ------------------------------------------------------------------
 # 6-31+g(d) scrf=(solvent=water,pcm) int=ultrafine m062x scf=tight
 ------------------------------------------------------------------

 -----------------------
 tmpdir/M1_conf_50_1.gjf
 -----------------------
 Symbolic Z-matrix:
 Charge =  0 Multiplicity = 1

                         Standard orientation:
 ---------------------------------------------------------------------
 Center     Atomic      Atomic             Coordinates (Angstroms)
 Number     Number       Type             X           Y           Z
 ---------------------------------------------------------------------
      1          6           0       -0.049105    0.000004    0.000259
      2          1           0       -0.308096    0.917020   -0.508974
      3          1           0       -0.297653   -0.015874    1.051508
      4          1           0       -0.308377   -0.901105   -0.536486
      5          1           0        1.208754   -0.000062   -0.007605
 ---------------------------------------------------------------------

 SCF Done:  E(RM062X) =  -40.4689777911     A.U. after    9 cycles

 The electronic state is 1-A.
 Alpha  occ. eigenvalues --  -10.54038  -0.77849  -0.46982  -0.46980  -0.41250
 Alpha virt. eigenvalues --    0.03809   0.07044   0.07044   0.07626   0.17803
 Alpha virt. eigenvalues --    0.23945   0.23946   0.29993   0.68599   0.68601
 Alpha virt. eigenvalues --    0.71931   0.91585   1.01885   1.01888   1.10152

 Mulliken charges:
               1
     1  C   -0.824211
     2  H    0.219746
     3  H    0.219752
     4  H    0.219744
     5  H    0.164970
 Sum of Mulliken charges =  -0.00000

 Dipole moment (field-independent basis, Debye):
    X=             -0.0497    Y=              0.0000    Z=              0.0007  Tot=              0.0497
 Quadrupole moment (field-independent basis, Debye-Ang):
   XX=             -8.9992   YY=             -8.4020   ZZ=             -8.4030
   XY=              0.0000   XZ=              0.0049   YZ=             -0.0000

 Normal termination of Gaussian 16 at Fri Sep 22 17:05:33 2023.
