 Gaussian 16, Revision A.03,
 Gaussian 16:  ES64L-G16RevA.03 25-Dec-2016

 ------------------------------------------------------------------
 # 6-31+g(d) scrf=(solvent=water,pcm) int=ultrafine m062x scf=tight
 ------------------------------------------------------------------

 -----------------------
 tmpdir/M1_conf_25_1.gjf
 -----------------------
 Symbolic Z-matrix:
 Charge =  0 Multiplicity = 1

                         Standard orientation:
 ---------------------------------------------------------------------
 Center     Atomic      Atomic             Coordinates (Angstroms)
 Number     Number       Type             X           Y           Z
 ---------------------------------------------------------------------
      1          6           0       -0.016592    0.000006    0.000001
      2          1           0       -0.348747   -0.250814    1.000855
      3          1           0       -0.350969   -0.740426   -0.717513
      4          1           0       -0.348403    0.992539   -0.282345
      5          1           0        1.147673   -0.001336   -0.001002
 ---------------------------------------------------------------------

 SCF Done:  E(RM062X) =  -40.4806958191     A.U. after    9 cycles

 The electronic state is 1-A.
 Alpha  occ. eigenvalues --  -10.53149  -0.78223  -0.46113  -0.46112  -0.43894
 Alpha virt. eigenvalues --    0.03928   0.07142   0.07142   0.07373   0.20971
 Alpha virt. eigenvalues --    0.23483   0.23484   0.30752   0.68876   0.68877
 Alpha virt. eigenvalues --    0.70657   0.96151   1.00812   1.00814   1.10828

 Mulliken charges:
               1
     1  C   -0.828281
     2  H    0.212347
     3  H    0.212345
     4  H    0.212352
     5  H    0.191238
 Sum of Mulliken charges =  -0.00000

 Dipole moment (field-independent basis, Debye):
    X=             -0.0307    Y=              0.0002    Z=              0.0001  Tot=              0.0307
 Quadrupole moment (field-independent basis, Debye-Ang):
   XX=             -8.6076   YY=             -8.4640   ZZ=             -8.4640
   XY=              0.0004   XZ=              0.0003   YZ=              0.0000

 Normal termination of Gaussian 16 at Fri Sep 22 17:03:30 2023.
