 Gaussian 16, Revision A.03,
 Gaussian 16:  ES64L-G16RevA.03 25-Dec-2016

 ------------------------------------------------------------------
 # 6-31+g(d) scrf=(solvent=water,pcm) int=ultrafine m062x scf=tight
 ------------------------------------------------------------------

 ------------------------
 tmpdir/M1_conf_102_2.gjf
 ------------------------
 Symbolic Z-matrix:
 Charge =  0 Multiplicity = 1

                         Standard orientation:
 ---------------------------------------------------------------------
 Center     Atomic      Atomic             Coordinates (Angstroms)
 Number     Number       Type             X           Y           Z
 ---------------------------------------------------------------------
      1         17           0        0.000000    0.000000    0.097828
      2          1           0       -0.000000   -0.000000   -1.663074
 ---------------------------------------------------------------------

 SCF Done:  E(RM062X) =  -460.701170611     A.U. after    9 cycles

 The electronic state is 1-SG.
 Alpha  occ. eigenvalues -- -102.68557  -9.82845  -7.55277  -7.54559  -7.54559
 Alpha  occ. eigenvalues --   -0.90076  -0.46455  -0.39171  -0.39171
 Alpha virt. eigenvalues --   -0.07438   0.06433   0.08593   0.08593   0.09321
 Alpha virt. eigenvalues --    0.57916   0.62449   0.63897   0.63897   0.91798
 Alpha virt. eigenvalues --    0.91798   0.93359   0.93667   0.93668   0.97674

 Mulliken charges:
               1
     1  Cl  -0.315233
     2  H    0.315233
 Sum of Mulliken charges =  -0.00000

 Dipole moment (field-independent basis, Debye):
    X=             -0.0000    Y=             -0.0000    Z=             -2.5446  Tot=              2.5446
 Quadrupole moment (field-independent basis, Debye-Ang):
   XX=            -14.7454   YY=            -14.7454   ZZ=             -8.3242
   XY=             -0.0000   XZ=             -0.0000   YZ=             -0.0000

 Normal termination of Gaussian 16 at Fri Sep 22 17:09:53 2023.
