 Gaussian 16, Revision A.03,
 Gaussian 16:  ES64L-G16RevA.03 25-Dec-2016

 ------------------------------------------------------------------
 # 6-31+g(d) scrf=(solvent=water,pcm) int=ultrafine m062x scf=tight
 ------------------------------------------------------------------

 ------------------------
 tmpdir/M1_conf_121_1.gjf
 ------------------------
 Symbolic Z-matrix:
 Charge =  0 Multiplicity = 1

                         Standard orientation:
 ---------------------------------------------------------------------
 Center     Atomic      Atomic             Coordinates (Angstroms)
 Number     Number       Type             X           Y           Z
 ---------------------------------------------------------------------
      1          6           0        0.209339   -0.000006    0.000132
      2          1           0        0.041131   -0.922007   -0.535210
      3          1           0        0.039750   -0.002649    1.066009
      4          1           0        0.041195    0.924653   -0.530625
      5          1           0       -1.378107    0.000040   -0.000967
 ---------------------------------------------------------------------

 SCF Done:  E(RM062X) =  -40.3809460272     A.U. after    9 cycles

 The electronic state is 1-A.
 Alpha  occ. eigenvalues --  -10.57058  -0.78546  -0.48947  -0.48943  -0.34122
 Alpha virt. eigenvalues --    0.00731   0.06853   0.06854   0.07775   0.08585
 Alpha virt. eigenvalues --    0.24124   0.24128   0.28040   0.67842   0.67844
 Alpha virt. eigenvalues --    0.72817   0.85213   1.01686   1.01694   1.07915

 Mulliken charges:
               1
     1  C   -0.838030
     2  H    0.255321
     3  H    0.255309
     4  H    0.255322
     5  H    0.072078
 Sum of Mulliken charges =   0.00000

 Dipole moment (field-independent basis, Debye):
    X=             -0.2939    Y=              0.0000    Z=             -0.0001  Tot=              0.2939
 Quadrupole moment (field-independent basis, Debye-Ang):
   XX=            -10.7867   YY=             -8.4782   ZZ=             -8.4794
   XY=              0.0001   XZ=             -0.0024   YZ=             -0.0000

 Normal termination of Gaussian 16 at Fri Sep 22 17:11:32 2023.
