 Gaussian 16, Revision A.03,
 Gaussian 16:  ES64L-G16RevA.03 25-Dec-2016

 ------------------------------------------------------------------
 # 6-31+g(d) scrf=(solvent=water,pcm) int=ultrafine m062x scf=tight
 ------------------------------------------------------------------

 -----------------------
 tmpdir/M1_conf_69_1.gjf
 -----------------------
 Symbolic Z-matrix:
 Charge =  0 Multiplicity = 1

                         Standard orientation:
 ---------------------------------------------------------------------
 Center     Atomic      Atomic             Coordinates (Angstroms)
 Number     Number       Type             X           Y           Z
 ---------------------------------------------------------------------
      1          6           0        0.087108   -0.000015    0.000227
      2          1           0        0.246610   -0.903970   -0.564446
      3          1           0        0.242174   -0.037493    1.066012
      4          1           0        0.246780    0.941327   -0.499586
      5          1           0       -1.258210    0.000227   -0.003343
 ---------------------------------------------------------------------

 SCF Done:  E(RM062X) =  -40.4510231355     A.U. after    9 cycles

 The electronic state is 1-A.
 Alpha  occ. eigenvalues --  -10.54889  -0.77744  -0.47858  -0.47858  -0.38771
 Alpha virt. eigenvalues --    0.03574   0.06953   0.06953   0.07882   0.14701
 Alpha virt. eigenvalues --    0.24363   0.24364   0.29245   0.68375   0.68376
 Alpha virt. eigenvalues --    0.72692   0.88055   1.02790   1.02792   1.09760

 Mulliken charges:
               1
     1  C   -0.826440
     2  H    0.229745
     3  H    0.229765
     4  H    0.229751
     5  H    0.137179
 Sum of Mulliken charges =   0.00000

 Dipole moment (field-independent basis, Debye):
    X=              0.0518    Y=              0.0000    Z=              0.0003  Tot=              0.0518
 Quadrupole moment (field-independent basis, Debye-Ang):
   XX=             -9.4991   YY=             -8.3372   ZZ=             -8.3372
   XY=              0.0003   XZ=             -0.0036   YZ=             -0.0000

 Normal termination of Gaussian 16 at Fri Sep 22 17:07:08 2023.
