 Gaussian 16, Revision A.03,
 Gaussian 16:  ES64L-G16RevA.03 25-Dec-2016

 ------------------------------------------------------------------
 # 6-31+g(d) scrf=(solvent=water,pcm) int=ultrafine m062x scf=tight
 ------------------------------------------------------------------

 ------------------------
 tmpdir/M1_conf_111_0.gjf
 ------------------------
 Symbolic Z-matrix:
 Charge = -1 Multiplicity = 1

                         Standard orientation:
 ---------------------------------------------------------------------
 Center     Atomic      Atomic             Coordinates (Angstroms)
 Number     Number       Type             X           Y           Z
 ---------------------------------------------------------------------
      1          7           0        0.000000   -0.000000    0.541553
      2          6           0       -0.000000    0.000000   -0.631812
 ---------------------------------------------------------------------

 SCF Done:  E(RM062X) =  -92.9322706075     A.U. after   10 cycles

 The electronic state is 1-SG.
 Alpha  occ. eigenvalues --  -14.69740 -10.49570  -0.93378  -0.43935  -0.34300
 Alpha  occ. eigenvalues --   -0.34300  -0.30673
 Alpha virt. eigenvalues --    0.04906   0.06844   0.06844   0.08737   0.14114
 Alpha virt. eigenvalues --    0.14114   0.16510   0.22771   0.22771   0.27850
 Alpha virt. eigenvalues --    0.52455   0.77415   0.77415   0.84250   1.00387

 Mulliken charges:
               1
     1  N   -0.668845
     2  C   -0.331155
 Sum of Mulliken charges =  -1.00000

 Dipole moment (field-independent basis, Debye):
    X=              0.0000    Y=              0.0000    Z=              0.4182  Tot=              0.4182
 Quadrupole moment (field-independent basis, Debye-Ang):
   XX=            -14.6360   YY=            -14.6360   ZZ=            -19.4934
   XY=              0.0000   XZ=             -0.0000   YZ=             -0.0000

 Normal termination of Gaussian 16 at Fri Sep 22 17:10:39 2023.
