 Gaussian 16, Revision A.03,
 Gaussian 16:  ES64L-G16RevA.03 25-Dec-2016

 ------------------------------------------------------------------
 # 6-31+g(d) scrf=(solvent=water,pcm) int=ultrafine m062x scf=tight
 ------------------------------------------------------------------

 -----------------------
 tmpdir/M1_conf_11_1.gjf
 -----------------------
 Symbolic Z-matrix:
 Charge =  0 Multiplicity = 1

                         Standard orientation:
 ---------------------------------------------------------------------
 Center     Atomic      Atomic             Coordinates (Angstroms)
 Number     Number       Type             X           Y           Z
 ---------------------------------------------------------------------
      1          6           0       -0.014868    0.000021   -0.000001
      2          1           0       -0.351844   -0.567776   -0.860672
      3          1           0       -0.354196    1.028468   -0.060744
      4          1           0       -0.351695   -0.462449    0.921606
      5          1           0        1.146944    0.001631   -0.000186
 ---------------------------------------------------------------------

 SCF Done:  E(RM062X) =  -40.4809384272     A.U. after    9 cycles

 The electronic state is 1-A.
 Alpha  occ. eigenvalues --  -10.53148  -0.78218  -0.46053  -0.46049  -0.44013
 Alpha virt. eigenvalues --    0.03929   0.07146   0.07147   0.07362   0.21073
 Alpha virt. eigenvalues --    0.23432   0.23435   0.30757   0.68900   0.68902
 Alpha virt. eigenvalues --    0.70617   0.96356   1.00692   1.00700   1.10813

 Mulliken charges:
               1
     1  C   -0.828229
     2  H    0.212020
     3  H    0.212046
     4  H    0.212028
     5  H    0.192135
 Sum of Mulliken charges =  -0.00000

 Dipole moment (field-independent basis, Debye):
    X=             -0.0337    Y=             -0.0002    Z=              0.0001  Tot=              0.0337
 Quadrupole moment (field-independent basis, Debye-Ang):
   XX=             -8.5881   YY=             -8.4724   ZZ=             -8.4729
   XY=             -0.0005   XZ=              0.0001   YZ=             -0.0000

 Normal termination of Gaussian 16 at Fri Sep 22 17:02:21 2023.
