 Gaussian 16, Revision A.03,
 Gaussian 16:  ES64L-G16RevA.03 25-Dec-2016

 ------------------------------------------------------------------
 # 6-31+g(d) scrf=(solvent=water,pcm) int=ultrafine m062x scf=tight
 ------------------------------------------------------------------

 ------------------------
 tmpdir/M1_conf_109_1.gjf
 ------------------------
 Symbolic Z-matrix:
 Charge =  0 Multiplicity = 1

                         Standard orientation:
 ---------------------------------------------------------------------
 Center     Atomic      Atomic             Coordinates (Angstroms)
 Number     Number       Type             X           Y           Z
 ---------------------------------------------------------------------
      1          6           0        0.182619   -0.000003    0.000164
      2          1           0        0.085626   -0.922953   -0.547775
      3          1           0        0.083819   -0.013088    1.073195
      4          1           0        0.085644    0.936030   -0.525116
      5          1           0       -1.350805    0.000027   -0.001290
 ---------------------------------------------------------------------

 SCF Done:  E(RM062X) =  -40.3971053798     A.U. after    9 cycles

 The electronic state is 1-A.
 Alpha  occ. eigenvalues --  -10.56657  -0.78279  -0.48977  -0.48975  -0.34728
 Alpha virt. eigenvalues --    0.01813   0.06848   0.06848   0.08414   0.08786
 Alpha virt. eigenvalues --    0.24411   0.24414   0.28112   0.67939   0.67942
 Alpha virt. eigenvalues --    0.73040   0.84767   1.02465   1.02470   1.07923

 Mulliken charges:
               1
     1  C   -0.839210
     2  H    0.252269
     3  H    0.252278
     4  H    0.252271
     5  H    0.082392
 Sum of Mulliken charges =  -0.00000

 Dipole moment (field-independent basis, Debye):
    X=             -0.1637    Y=              0.0000    Z=             -0.0000  Tot=              0.1637
 Quadrupole moment (field-independent basis, Debye-Ang):
   XX=            -10.6060   YY=             -8.3875   ZZ=             -8.3885
   XY=              0.0001   XZ=             -0.0028   YZ=             -0.0000

 Normal termination of Gaussian 16 at Fri Sep 22 17:10:31 2023.
