 Gaussian 16, Revision A.03,
 Gaussian 16:  ES64L-G16RevA.03 25-Dec-2016

 ------------------------------------------------------------------
 # 6-31+g(d) scrf=(solvent=water,pcm) int=ultrafine m062x scf=tight
 ------------------------------------------------------------------

 ------------------------
 tmpdir/M1_conf_108_0.gjf
 ------------------------
 Symbolic Z-matrix:
 Charge = -1 Multiplicity = 1

                         Standard orientation:
 ---------------------------------------------------------------------
 Center     Atomic      Atomic             Coordinates (Angstroms)
 Number     Number       Type             X           Y           Z
 ---------------------------------------------------------------------
      1          7           0       -0.000000   -0.000000    0.541452
      2          6           0        0.000000    0.000000   -0.631694
 ---------------------------------------------------------------------

 SCF Done:  E(RM062X) =  -92.9322679030     A.U. after   10 cycles

 The electronic state is 1-SG.
 Alpha  occ. eigenvalues --  -14.69734 -10.49563  -0.93386  -0.43931  -0.34304
 Alpha  occ. eigenvalues --   -0.34304  -0.30672
 Alpha virt. eigenvalues --    0.04906   0.06845   0.06845   0.08737   0.14117
 Alpha virt. eigenvalues --    0.14117   0.16511   0.22776   0.22776   0.27851
 Alpha virt. eigenvalues --    0.52460   0.77416   0.77416   0.84258   1.00392

 Mulliken charges:
               1
     1  N   -0.668866
     2  C   -0.331134
 Sum of Mulliken charges =  -1.00000

 Dipole moment (field-independent basis, Debye):
    X=              0.0000    Y=             -0.0000    Z=              0.4188  Tot=              0.4188
 Quadrupole moment (field-independent basis, Debye-Ang):
   XX=            -14.6351   YY=            -14.6351   ZZ=            -19.4927
   XY=             -0.0000   XZ=              0.0000   YZ=              0.0000

 Normal termination of Gaussian 16 at Fri Sep 22 17:10:24 2023.
