 Gaussian 16, Revision A.03,
 Gaussian 16:  ES64L-G16RevA.03 25-Dec-2016

 ------------------------------------------------------------------
 # 6-31+g(d) scrf=(solvent=water,pcm) int=ultrafine m062x scf=tight
 ------------------------------------------------------------------

 ------------------------
 tmpdir/M1_conf_101_2.gjf
 ------------------------
 Symbolic Z-matrix:
 Charge =  0 Multiplicity = 1

                         Standard orientation:
 ---------------------------------------------------------------------
 Center     Atomic      Atomic             Coordinates (Angstroms)
 Number     Number       Type             X           Y           Z
 ---------------------------------------------------------------------
      1         17           0        0.000000    0.000000    0.097531
      2          1           0       -0.000000   -0.000000   -1.658026
 ---------------------------------------------------------------------

 SCF Done:  E(RM062X) =  -460.702057814     A.U. after    9 cycles

 The electronic state is 1-SG.
 Alpha  occ. eigenvalues -- -102.68554  -9.82845  -7.55277  -7.54560  -7.54560
 Alpha  occ. eigenvalues --   -0.90103  -0.46527  -0.39180  -0.39180
 Alpha virt. eigenvalues --   -0.07317   0.06440   0.08594   0.08594   0.09308
 Alpha virt. eigenvalues --    0.57926   0.62450   0.63892   0.63892   0.91783
 Alpha virt. eigenvalues --    0.91783   0.93191   0.93659   0.93660   0.97916

 Mulliken charges:
               1
     1  Cl  -0.314754
     2  H    0.314754
 Sum of Mulliken charges =  -0.00000

 Dipole moment (field-independent basis, Debye):
    X=             -0.0000    Y=             -0.0000    Z=             -2.5345  Tot=              2.5345
 Quadrupole moment (field-independent basis, Debye-Ang):
   XX=            -14.7405   YY=            -14.7405   ZZ=             -8.3534
   XY=              0.0000   XZ=              0.0000   YZ=             -0.0000

 Normal termination of Gaussian 16 at Fri Sep 22 17:09:49 2023.
