 Gaussian 16, Revision A.03,
 Gaussian 16:  ES64L-G16RevA.03 25-Dec-2016

 ------------------------------------------------------------------
 # 6-31+g(d) scrf=(solvent=water,pcm) int=ultrafine m062x scf=tight
 ------------------------------------------------------------------

 -----------------------
 tmpdir/M1_conf_67_1.gjf
 -----------------------
 Symbolic Z-matrix:
 Charge =  0 Multiplicity = 1

                         Standard orientation:
 ---------------------------------------------------------------------
 Center     Atomic      Atomic             Coordinates (Angstroms)
 Number     Number       Type             X           Y           Z
 ---------------------------------------------------------------------
      1          6           0        0.082731   -0.000013    0.000242
      2          1           0        0.253928   -0.907700   -0.555365
      3          1           0        0.248913   -0.027854    1.064869
      4          1           0        0.254094    0.935429   -0.507193
      5          1           0       -1.253322    0.000205   -0.003764
 ---------------------------------------------------------------------

 SCF Done:  E(RM062X) =  -40.4532309557     A.U. after    9 cycles

 The electronic state is 1-A.
 Alpha  occ. eigenvalues --  -10.54797  -0.77743  -0.47768  -0.47768  -0.39028
 Alpha virt. eigenvalues --    0.03608   0.06962   0.06962   0.07854   0.15034
 Alpha virt. eigenvalues --    0.24324   0.24325   0.29324   0.68398   0.68398
 Alpha virt. eigenvalues --    0.72625   0.88394   1.02712   1.02714   1.09821

 Mulliken charges:
               1
     1  C   -0.825867
     2  H    0.228549
     3  H    0.228570
     4  H    0.228553
     5  H    0.140195
 Sum of Mulliken charges =  -0.00000

 Dipole moment (field-independent basis, Debye):
    X=              0.0536    Y=              0.0000    Z=              0.0003  Tot=              0.0536
 Quadrupole moment (field-independent basis, Debye-Ang):
   XX=             -9.4409   YY=             -8.3432   ZZ=             -8.3433
   XY=              0.0002   XZ=             -0.0039   YZ=             -0.0000

 Normal termination of Gaussian 16 at Fri Sep 22 17:06:58 2023.
