 Gaussian 16, Revision A.03,
 Gaussian 16:  ES64L-G16RevA.03 25-Dec-2016

 ------------------------------------------------------------------
 # 6-31+g(d) scrf=(solvent=water,pcm) int=ultrafine m062x scf=tight
 ------------------------------------------------------------------

 ------------------------
 tmpdir/M1_conf_124_1.gjf
 ------------------------
 Symbolic Z-matrix:
 Charge =  0 Multiplicity = 1

                         Standard orientation:
 ---------------------------------------------------------------------
 Center     Atomic      Atomic             Coordinates (Angstroms)
 Number     Number       Type             X           Y           Z
 ---------------------------------------------------------------------
      1          6           0       -0.215648    0.000007    0.000110
      2          1           0       -0.030786    0.921537   -0.531587
      3          1           0       -0.029623   -0.000258    1.063776
      4          1           0       -0.030864   -0.921278   -0.532035
      5          1           0        1.385162   -0.000045   -0.000817
 ---------------------------------------------------------------------

 SCF Done:  E(RM062X) =  -40.3770737455     A.U. after    9 cycles

 The electronic state is 1-A.
 Alpha  occ. eigenvalues --  -10.57148  -0.78612  -0.48915  -0.48911  -0.34010
 Alpha virt. eigenvalues --    0.00431   0.06857   0.06857   0.07597   0.08611
 Alpha virt. eigenvalues --    0.24037   0.24041   0.28040   0.67824   0.67826
 Alpha virt. eigenvalues --    0.72758   0.85387   1.01462   1.01470   1.07972

 Mulliken charges:
               1
     1  C   -0.837298
     2  H    0.255770
     3  H    0.255751
     4  H    0.255771
     5  H    0.070006
 Sum of Mulliken charges =   0.00000

 Dipole moment (field-independent basis, Debye):
    X=              0.3282    Y=             -0.0000    Z=             -0.0001  Tot=              0.3282
 Quadrupole moment (field-independent basis, Debye-Ang):
   XX=            -10.8171   YY=             -8.5049   ZZ=             -8.5062
   XY=              0.0001   XZ=              0.0021   YZ=              0.0000

 Normal termination of Gaussian 16 at Fri Sep 22 17:11:47 2023.
