 Gaussian 16, Revision A.03,
 Gaussian 16:  ES64L-G16RevA.03 25-Dec-2016

 ------------------------------------------------------------------
 # 6-31+g(d) scrf=(solvent=water,pcm) int=ultrafine m062x scf=tight
 ------------------------------------------------------------------

 ----------------------
 tmpdir/M1_conf_2_1.gjf
 ----------------------
 Symbolic Z-matrix:
 Charge =  0 Multiplicity = 1

                         Standard orientation:
 ---------------------------------------------------------------------
 Center     Atomic      Atomic             Coordinates (Angstroms)
 Number     Number       Type             X           Y           Z
 ---------------------------------------------------------------------
      1          6           0       -0.014545    0.000001   -0.000013
      2          1           0       -0.351519    0.911972   -0.481948
      3          1           0       -0.357226   -0.039598    1.028722
      4          1           0       -0.351539   -0.872216   -0.550620
      5          1           0        1.147557   -0.000164    0.003927
 ---------------------------------------------------------------------

 SCF Done:  E(RM062X) =  -40.4809351955     A.U. after    9 cycles

 The electronic state is 1-A.
 Alpha  occ. eigenvalues --  -10.53162  -0.78207  -0.46034  -0.46034  -0.44026
 Alpha virt. eigenvalues --    0.03928   0.07148   0.07148   0.07361   0.21072
 Alpha virt. eigenvalues --    0.23415   0.23416   0.30746   0.68908   0.68911
 Alpha virt. eigenvalues --    0.70623   0.96369   1.00654   1.00657   1.10788

 Mulliken charges:
               1
     1  C   -0.828104
     2  H    0.211968
     3  H    0.211989
     4  H    0.211966
     5  H    0.192181
 Sum of Mulliken charges =   0.00000

 Dipole moment (field-independent basis, Debye):
    X=             -0.0350    Y=              0.0000    Z=             -0.0002  Tot=              0.0350
 Quadrupole moment (field-independent basis, Debye-Ang):
   XX=             -8.5847   YY=             -8.4757   ZZ=             -8.4759
   XY=              0.0001   XZ=             -0.0011   YZ=             -0.0000

 Normal termination of Gaussian 16 at Fri Sep 22 17:01:37 2023.
