 Gaussian 16, Revision A.03,
 Gaussian 16:  ES64L-G16RevA.03 25-Dec-2016

 ------------------------------------------------------------------
 # 6-31+g(d) scrf=(solvent=water,pcm) int=ultrafine m062x scf=tight
 ------------------------------------------------------------------

 ----------------------
 tmpdir/M1_conf_4_1.gjf
 ----------------------
 Symbolic Z-matrix:
 Charge =  0 Multiplicity = 1

                         Standard orientation:
 ---------------------------------------------------------------------
 Center     Atomic      Atomic             Coordinates (Angstroms)
 Number     Number       Type             X           Y           Z
 ---------------------------------------------------------------------
      1          6           0       -0.014600    0.000000   -0.000002
      2          1           0       -0.351752    0.925450   -0.455224
      3          1           0       -0.356347   -0.069265    1.027402
      4          1           0       -0.351758   -0.855972   -0.575313
      5          1           0        1.147454   -0.000216    0.003150
 ---------------------------------------------------------------------

 SCF Done:  E(RM062X) =  -40.4809357558     A.U. after    9 cycles

 The electronic state is 1-A.
 Alpha  occ. eigenvalues --  -10.53159  -0.78209  -0.46038  -0.46036  -0.44024
 Alpha virt. eigenvalues --    0.03928   0.07147   0.07148   0.07361   0.21072
 Alpha virt. eigenvalues --    0.23418   0.23420   0.30748   0.68907   0.68909
 Alpha virt. eigenvalues --    0.70622   0.96367   1.00661   1.00665   1.10793

 Mulliken charges:
               1
     1  C   -0.828122
     2  H    0.211978
     3  H    0.212000
     4  H    0.211971
     5  H    0.192174
 Sum of Mulliken charges =  -0.00000

 Dipole moment (field-independent basis, Debye):
    X=             -0.0348    Y=              0.0001    Z=             -0.0002  Tot=              0.0348
 Quadrupole moment (field-independent basis, Debye-Ang):
   XX=             -8.5852   YY=             -8.4753   ZZ=             -8.4753
   XY=              0.0001   XZ=             -0.0009   YZ=             -0.0000

 Normal termination of Gaussian 16 at Fri Sep 22 17:01:47 2023.
