 Gaussian 16, Revision A.03,
 Gaussian 16:  ES64L-G16RevA.03 25-Dec-2016

 ------------------------------------------------------------------
 # 6-31+g(d) scrf=(solvent=water,pcm) int=ultrafine m062x scf=tight
 ------------------------------------------------------------------

 -----------------------
 tmpdir/M1_conf_89_1.gjf
 -----------------------
 Symbolic Z-matrix:
 Charge =  0 Multiplicity = 1

                         Standard orientation:
 ---------------------------------------------------------------------
 Center     Atomic      Atomic             Coordinates (Angstroms)
 Number     Number       Type             X           Y           Z
 ---------------------------------------------------------------------
      1          6           0        0.133241   -0.000008    0.000197
      2          1           0        0.169185   -0.910061   -0.574064
      3          1           0        0.166462   -0.042437    1.075501
      4          1           0        0.169215    0.952450   -0.500595
      5          1           0       -1.304308    0.000099   -0.002027
 ---------------------------------------------------------------------

 SCF Done:  E(RM062X) =  -40.4260379994     A.U. after    9 cycles

 The electronic state is 1-A.
 Alpha  occ. eigenvalues --  -10.55803  -0.77892  -0.48615  -0.48614  -0.36452
 Alpha virt. eigenvalues --    0.03038   0.06878   0.06878   0.08162   0.11459
 Alpha virt. eigenvalues --    0.24587   0.24588   0.28542   0.68161   0.68163
 Alpha virt. eigenvalues --    0.73133   0.85463   1.03122   1.03124   1.08783

 Mulliken charges:
               1
     1  C   -0.834227
     2  H    0.242124
     3  H    0.242133
     4  H    0.242116
     5  H    0.107855
 Sum of Mulliken charges =  -0.00000

 Dipole moment (field-independent basis, Debye):
    X=             -0.0060    Y=             -0.0001    Z=              0.0002  Tot=              0.0060
 Quadrupole moment (field-independent basis, Debye-Ang):
   XX=            -10.0923   YY=             -8.3128   ZZ=             -8.3133
   XY=              0.0001   XZ=             -0.0033   YZ=              0.0000

 Normal termination of Gaussian 16 at Fri Sep 22 17:08:47 2023.
