 Gaussian 16, Revision A.03,
 Gaussian 16:  ES64L-G16RevA.03 25-Dec-2016

 ------------------------------------------------------------------
 # 6-31+g(d) scrf=(solvent=water,pcm) int=ultrafine m062x scf=tight
 ------------------------------------------------------------------

 -----------------------
 tmpdir/M1_conf_75_1.gjf
 -----------------------
 Symbolic Z-matrix:
 Charge =  0 Multiplicity = 1

                         Standard orientation:
 ---------------------------------------------------------------------
 Center     Atomic      Atomic             Coordinates (Angstroms)
 Number     Number       Type             X           Y           Z
 ---------------------------------------------------------------------
      1          6           0        0.100593   -0.000016    0.000207
      2          1           0        0.224078   -0.904775   -0.571178
      3          1           0        0.220594   -0.042750    1.069784
      4          1           0        0.224239    0.947411   -0.497201
      5          1           0       -1.272471    0.000210   -0.002646
 ---------------------------------------------------------------------

 SCF Done:  E(RM062X) =  -40.4440261140     A.U. after    9 cycles

 The electronic state is 1-A.
 Alpha  occ. eigenvalues --  -10.55166  -0.77761  -0.48117  -0.48117  -0.38021
 Alpha virt. eigenvalues --    0.03455   0.06927   0.06927   0.07967   0.13702
 Alpha virt. eigenvalues --    0.24464   0.24465   0.29014   0.68310   0.68311
 Alpha virt. eigenvalues --    0.72870   0.87110   1.02981   1.02982   1.09525

 Mulliken charges:
               1
     1  C   -0.828522
     2  H    0.233451
     3  H    0.233465
     4  H    0.233455
     5  H    0.128152
 Sum of Mulliken charges =  -0.00000

 Dipole moment (field-independent basis, Debye):
    X=              0.0425    Y=              0.0000    Z=              0.0002  Tot=              0.0425
 Quadrupole moment (field-independent basis, Debye-Ang):
   XX=             -9.6776   YY=             -8.3222   ZZ=             -8.3223
   XY=              0.0003   XZ=             -0.0033   YZ=             -0.0000

 Normal termination of Gaussian 16 at Fri Sep 22 17:07:37 2023.
