 Gaussian 16, Revision A.03,
 Gaussian 16:  ES64L-G16RevA.03 25-Dec-2016

 ------------------------------------------------------------------
 # 6-31+g(d) scrf=(solvent=water,pcm) int=ultrafine m062x scf=tight
 ------------------------------------------------------------------

 ------------------------
 tmpdir/M1_conf_105_1.gjf
 ------------------------
 Symbolic Z-matrix:
 Charge =  0 Multiplicity = 1

                         Standard orientation:
 ---------------------------------------------------------------------
 Center     Atomic      Atomic             Coordinates (Angstroms)
 Number     Number       Type             X           Y           Z
 ---------------------------------------------------------------------
      1          6           0        0.173329   -0.000003    0.000164
      2          1           0        0.101272   -0.920887   -0.554331
      3          1           0        0.099401   -0.019814    1.074723
      4          1           0        0.101283    0.940686   -0.520027
      5          1           0       -1.341932    0.000032   -0.001348
 ---------------------------------------------------------------------

 SCF Done:  E(RM062X) =  -40.4026445312     A.U. after    9 cycles

 The electronic state is 1-A.
 Alpha  occ. eigenvalues --  -10.56508  -0.78193  -0.48949  -0.48947  -0.34992
 Alpha virt. eigenvalues --    0.02116   0.06849   0.06849   0.08381   0.09193
 Alpha virt. eigenvalues --    0.24479   0.24481   0.28163   0.67978   0.67981
 Alpha virt. eigenvalues --    0.73096   0.84738   1.02668   1.02672   1.08014

 Mulliken charges:
               1
     1  C   -0.838899
     2  H    0.250770
     3  H    0.250782
     4  H    0.250771
     5  H    0.086575
 Sum of Mulliken charges =   0.00000

 Dipole moment (field-independent basis, Debye):
    X=             -0.1254    Y=              0.0000    Z=              0.0000  Tot=              0.1254
 Quadrupole moment (field-independent basis, Debye-Ang):
   XX=            -10.5249   YY=             -8.3645   ZZ=             -8.3654
   XY=              0.0001   XZ=             -0.0028   YZ=             -0.0000

 Normal termination of Gaussian 16 at Fri Sep 22 17:10:11 2023.
