 Gaussian 16, Revision A.03,
 Gaussian 16:  ES64L-G16RevA.03 25-Dec-2016

 ------------------------------------------------------------------
 # 6-31+g(d) scrf=(solvent=water,pcm) int=ultrafine m062x scf=tight
 ------------------------------------------------------------------

 -----------------------
 tmpdir/M1_conf_37_1.gjf
 -----------------------
 Symbolic Z-matrix:
 Charge =  0 Multiplicity = 1

                         Standard orientation:
 ---------------------------------------------------------------------
 Center     Atomic      Atomic             Coordinates (Angstroms)
 Number     Number       Type             X           Y           Z
 ---------------------------------------------------------------------
      1          6           0       -0.027546   -0.000002    0.000120
      2          1           0       -0.338992    0.900274   -0.514111
      3          1           0       -0.327255   -0.002686    1.040271
      4          1           0       -0.338826   -0.897696   -0.518700
      5          1           0        1.170351    0.000123   -0.008181
 ---------------------------------------------------------------------

 SCF Done:  E(RM062X) =  -40.4774047141     A.U. after    9 cycles

 The electronic state is 1-A.
 Alpha  occ. eigenvalues --  -10.53465  -0.78063  -0.46417  -0.46413  -0.42946
 Alpha virt. eigenvalues --    0.03895   0.07107   0.07107   0.07461   0.19849
 Alpha virt. eigenvalues --    0.23649   0.23651   0.30489   0.68769   0.68771
 Alpha virt. eigenvalues --    0.71183   0.94386   1.01203   1.01208   1.10513

 Mulliken charges:
               1
     1  C   -0.826378
     2  H    0.214698
     3  H    0.214695
     4  H    0.214699
     5  H    0.182286
 Sum of Mulliken charges =  -0.00000

 Dipole moment (field-independent basis, Debye):
    X=             -0.0367    Y=             -0.0000    Z=              0.0007  Tot=              0.0367
 Quadrupole moment (field-independent basis, Debye-Ang):
   XX=             -8.7332   YY=             -8.4431   ZZ=             -8.4444
   XY=             -0.0000   XZ=              0.0032   YZ=              0.0000

 Normal termination of Gaussian 16 at Fri Sep 22 17:04:29 2023.
