 Gaussian 16, Revision A.03,
 Gaussian 16:  ES64L-G16RevA.03 25-Dec-2016

 ------------------------------------------------------------------
 # 6-31+g(d) scrf=(solvent=water,pcm) int=ultrafine m062x scf=tight
 ------------------------------------------------------------------

 -----------------------
 tmpdir/M1_conf_90_1.gjf
 -----------------------
 Symbolic Z-matrix:
 Charge =  0 Multiplicity = 1

                         Standard orientation:
 ---------------------------------------------------------------------
 Center     Atomic      Atomic             Coordinates (Angstroms)
 Number     Number       Type             X           Y           Z
 ---------------------------------------------------------------------
      1          6           0        0.135601   -0.000008    0.000194
      2          1           0        0.165191   -0.909816   -0.574816
      3          1           0        0.162535   -0.043201    1.075645
      4          1           0        0.165213    0.952971   -0.500024
      5          1           0       -1.306542    0.000093   -0.001972
 ---------------------------------------------------------------------

 SCF Done:  E(RM062X) =  -40.4246914034     A.U. after    9 cycles

 The electronic state is 1-A.
 Alpha  occ. eigenvalues --  -10.55847  -0.77906  -0.48643  -0.48642  -0.36352
 Alpha virt. eigenvalues --    0.02998   0.06875   0.06876   0.08176   0.11308
 Alpha virt. eigenvalues --    0.24589   0.24590   0.28513   0.68150   0.68152
 Alpha virt. eigenvalues --    0.73141   0.85381   1.03114   1.03117   1.08727

 Mulliken charges:
               1
     1  C   -0.834611
     2  H    0.242712
     3  H    0.242720
     4  H    0.242703
     5  H    0.106477
 Sum of Mulliken charges =  -0.00000

 Dipole moment (field-independent basis, Debye):
    X=             -0.0110    Y=             -0.0001    Z=              0.0002  Tot=              0.0110
 Quadrupole moment (field-independent basis, Debye-Ang):
   XX=            -10.1207   YY=             -8.3138   ZZ=             -8.3144
   XY=              0.0001   XZ=             -0.0033   YZ=              0.0000

 Normal termination of Gaussian 16 at Fri Sep 22 17:08:52 2023.
