 Gaussian 16, Revision A.03,
 Gaussian 16:  ES64L-G16RevA.03 25-Dec-2016

 ------------------------------------------------------------------
 # 6-31+g(d) scrf=(solvent=water,pcm) int=ultrafine m062x scf=tight
 ------------------------------------------------------------------

 -----------------------
 tmpdir/M1_conf_46_2.gjf
 -----------------------
 Symbolic Z-matrix:
 Charge =  0 Multiplicity = 1

                         Standard orientation:
 ---------------------------------------------------------------------
 Center     Atomic      Atomic             Coordinates (Angstroms)
 Number     Number       Type             X           Y           Z
 ---------------------------------------------------------------------
      1         17           0       -0.000000   -0.000000    0.080493
      2          1           0        0.000000    0.000000   -1.368375
 ---------------------------------------------------------------------

 SCF Done:  E(RM062X) =  -460.749517091     A.U. after    8 cycles

 The electronic state is 1-SG.
 Alpha  occ. eigenvalues -- -102.67986  -9.82588  -7.55000  -7.54319  -7.54319
 Alpha  occ. eigenvalues --   -0.92342  -0.51124  -0.39666  -0.39666
 Alpha virt. eigenvalues --    0.00309   0.07381   0.08620   0.08620   0.08959
 Alpha virt. eigenvalues --    0.58984   0.62504   0.63694   0.63694   0.81562
 Alpha virt. eigenvalues --    0.90786   0.90786   0.93259   0.93259   1.16150

 Mulliken charges:
               1
     1  Cl  -0.291154
     2  H    0.291154
 Sum of Mulliken charges =   0.00000

 Dipole moment (field-independent basis, Debye):
    X=              0.0000    Y=              0.0000    Z=             -2.0355  Tot=              2.0355
 Quadrupole moment (field-independent basis, Debye-Ang):
   XX=            -14.4178   YY=            -14.4178   ZZ=             -9.7233
   XY=              0.0000   XZ=              0.0000   YZ=              0.0000

 Normal termination of Gaussian 16 at Fri Sep 22 17:05:11 2023.
