 Gaussian 16, Revision A.03,
 Gaussian 16:  ES64L-G16RevA.03 25-Dec-2016

 ------------------------------------------------------------------
 # 6-31+g(d) scrf=(solvent=water,pcm) int=ultrafine m062x scf=tight
 ------------------------------------------------------------------

 ----------------------
 tmpdir/M1_conf_1_1.gjf
 ----------------------
 Symbolic Z-matrix:
 Charge =  0 Multiplicity = 1

                         Standard orientation:
 ---------------------------------------------------------------------
 Center     Atomic      Atomic             Coordinates (Angstroms)
 Number     Number       Type             X           Y           Z
 ---------------------------------------------------------------------
      1          6           0       -0.014519    0.000001   -0.000019
      2          1           0       -0.351420    0.908329   -0.488908
      3          1           0       -0.357624   -0.031839    1.028879
      4          1           0       -0.351445   -0.876348   -0.544132
      5          1           0        1.147605   -0.000148    0.004274
 ---------------------------------------------------------------------

 SCF Done:  E(RM062X) =  -40.4809350195     A.U. after    9 cycles

 The electronic state is 1-A.
 Alpha  occ. eigenvalues --  -10.53163  -0.78206  -0.46033  -0.46032  -0.44027
 Alpha virt. eigenvalues --    0.03928   0.07148   0.07148   0.07361   0.21072
 Alpha virt. eigenvalues --    0.23414   0.23414   0.30745   0.68909   0.68911
 Alpha virt. eigenvalues --    0.70623   0.96370   1.00651   1.00653   1.10786

 Mulliken charges:
               1
     1  C   -0.828094
     2  H    0.211963
     3  H    0.211984
     4  H    0.211962
     5  H    0.192185
 Sum of Mulliken charges =   0.00000

 Dipole moment (field-independent basis, Debye):
    X=             -0.0351    Y=              0.0000    Z=             -0.0002  Tot=              0.0351
 Quadrupole moment (field-independent basis, Debye-Ang):
   XX=             -8.5844   YY=             -8.4759   ZZ=             -8.4762
   XY=              0.0000   XZ=             -0.0012   YZ=             -0.0000

 Normal termination of Gaussian 16 at Fri Sep 22 17:01:32 2023.
