 Gaussian 16, Revision A.03,
 Gaussian 16:  ES64L-G16RevA.03 25-Dec-2016

 ------------------------------------------------------------------
 # 6-31+g(d) scrf=(solvent=water,pcm) int=ultrafine m062x scf=tight
 ------------------------------------------------------------------

 -----------------------
 tmpdir/M1_conf_25_0.gjf
 -----------------------
 Symbolic Z-matrix:
 Charge = -1 Multiplicity = 1

                         Standard orientation:
 ---------------------------------------------------------------------
 Center     Atomic      Atomic             Coordinates (Angstroms)
 Number     Number       Type             X           Y           Z
 ---------------------------------------------------------------------
      1          7           0       -0.000000    0.000000    0.541846
      2          6           0        0.000000   -0.000000   -0.632154
 ---------------------------------------------------------------------

 SCF Done:  E(RM062X) =  -92.9322772638     A.U. after   10 cycles

 The electronic state is 1-SG.
 Alpha  occ. eigenvalues --  -14.69755 -10.49592  -0.93355  -0.43947  -0.34287
 Alpha  occ. eigenvalues --   -0.34287  -0.30675
 Alpha virt. eigenvalues --    0.04907   0.06842   0.06842   0.08736   0.14104
 Alpha virt. eigenvalues --    0.14104   0.16507   0.22758   0.22758   0.27847
 Alpha virt. eigenvalues --    0.52443   0.77412   0.77412   0.84226   1.00372

 Mulliken charges:
               1
     1  N   -0.668783
     2  C   -0.331217
 Sum of Mulliken charges =  -1.00000

 Dipole moment (field-independent basis, Debye):
    X=              0.0000    Y=             -0.0000    Z=              0.4164  Tot=              0.4164
 Quadrupole moment (field-independent basis, Debye-Ang):
   XX=            -14.6385   YY=            -14.6385   ZZ=            -19.4954
   XY=             -0.0000   XZ=              0.0000   YZ=              0.0000

 Normal termination of Gaussian 16 at Fri Sep 22 17:03:27 2023.
