 Gaussian 16, Revision A.03,
 Gaussian 16:  ES64L-G16RevA.03 25-Dec-2016

 ------------------------------------------------------------------
 # 6-31+g(d) scrf=(solvent=water,pcm) int=ultrafine m062x scf=tight
 ------------------------------------------------------------------

 ------------------------
 tmpdir/M1_conf_108_1.gjf
 ------------------------
 Symbolic Z-matrix:
 Charge =  0 Multiplicity = 1

                         Standard orientation:
 ---------------------------------------------------------------------
 Center     Atomic      Atomic             Coordinates (Angstroms)
 Number     Number       Type             X           Y           Z
 ---------------------------------------------------------------------
      1          6           0        0.180309   -0.000003    0.000164
      2          1           0        0.089510   -0.922691   -0.549079
      3          1           0        0.087690   -0.014352    1.073629
      4          1           0        0.089526    0.937031   -0.524232
      5          1           0       -1.348580    0.000027   -0.001303
 ---------------------------------------------------------------------

 SCF Done:  E(RM062X) =  -40.3984864088     A.U. after    9 cycles

 The electronic state is 1-A.
 Alpha  occ. eigenvalues --  -10.56620  -0.78257  -0.48972  -0.48970  -0.34791
 Alpha virt. eigenvalues --    0.01891   0.06848   0.06848   0.08409   0.08881
 Alpha virt. eigenvalues --    0.24430   0.24432   0.28123   0.67949   0.67951
 Alpha virt. eigenvalues --    0.73055   0.84754   1.02519   1.02523   1.07942

 Mulliken charges:
               1
     1  C   -0.839166
     2  H    0.251917
     3  H    0.251926
     4  H    0.251919
     5  H    0.083404
 Sum of Mulliken charges =  -0.00000

 Dipole moment (field-independent basis, Debye):
    X=             -0.1538    Y=              0.0000    Z=             -0.0000  Tot=              0.1538
 Quadrupole moment (field-independent basis, Debye-Ang):
   XX=            -10.5866   YY=             -8.3814   ZZ=             -8.3823
   XY=              0.0001   XZ=             -0.0028   YZ=             -0.0000

 Normal termination of Gaussian 16 at Fri Sep 22 17:10:26 2023.
