 Gaussian 16, Revision A.03,
 Gaussian 16:  ES64L-G16RevA.03 25-Dec-2016

 ------------------------------------------------------------------
 # 6-31+g(d) scrf=(solvent=water,pcm) int=ultrafine m062x scf=tight
 ------------------------------------------------------------------

 -----------------------
 tmpdir/M1_conf_95_1.gjf
 -----------------------
 Symbolic Z-matrix:
 Charge =  0 Multiplicity = 1

                         Standard orientation:
 ---------------------------------------------------------------------
 Center     Atomic      Atomic             Coordinates (Angstroms)
 Number     Number       Type             X           Y           Z
 ---------------------------------------------------------------------
      1          6           0        0.147413   -0.000005    0.000179
      2          1           0        0.145166   -0.912168   -0.571982
      3          1           0        0.142838   -0.039523    1.076174
      4          1           0        0.145172    0.951656   -0.503553
      5          1           0       -1.317655    0.000067   -0.001713
 ---------------------------------------------------------------------

 SCF Done:  E(RM062X) =  -40.4178819105     A.U. after    9 cycles

 The electronic state is 1-A.
 Alpha  occ. eigenvalues --  -10.56064  -0.77983  -0.48771  -0.48768  -0.35877
 Alpha virt. eigenvalues --    0.02775   0.06864   0.06864   0.08244   0.10581
 Alpha virt. eigenvalues --    0.24582   0.24584   0.28380   0.68096   0.68098
 Alpha virt. eigenvalues --    0.73163   0.85044   1.03039   1.03043   1.08460

 Mulliken charges:
               1
     1  C   -0.836374
     2  H    0.245528
     3  H    0.245538
     4  H    0.245519
     5  H    0.099789
 Sum of Mulliken charges =  -0.00000

 Dipole moment (field-independent basis, Debye):
    X=             -0.0399    Y=             -0.0001    Z=              0.0001  Tot=              0.0399
 Quadrupole moment (field-independent basis, Debye-Ang):
   XX=            -10.2581   YY=             -8.3226   ZZ=             -8.3232
   XY=              0.0001   XZ=             -0.0030   YZ=              0.0000

 Normal termination of Gaussian 16 at Fri Sep 22 17:09:21 2023.
