 Gaussian 16, Revision A.03,
 Gaussian 16:  ES64L-G16RevA.03 25-Dec-2016

 ------------------------------------------------------------------
 # 6-31+g(d) scrf=(solvent=water,pcm) int=ultrafine m062x scf=tight
 ------------------------------------------------------------------

 -----------------------
 tmpdir/M1_conf_64_1.gjf
 -----------------------
 Symbolic Z-matrix:
 Charge =  0 Multiplicity = 1

                         Standard orientation:
 ---------------------------------------------------------------------
 Center     Atomic      Atomic             Coordinates (Angstroms)
 Number     Number       Type             X           Y           Z
 ---------------------------------------------------------------------
      1          6           0        0.076304   -0.000006    0.000268
      2          1           0        0.264655   -0.918932   -0.531526
      3          1           0        0.258564   -0.001749    1.062997
      4          1           0        0.264810    0.920614   -0.528535
      5          1           0       -1.245851    0.000106   -0.004541
 ---------------------------------------------------------------------

 SCF Done:  E(RM062X) =  -40.4564132694     A.U. after    9 cycles

 The electronic state is 1-A.
 Alpha  occ. eigenvalues --  -10.54660  -0.77747  -0.47630  -0.47630  -0.39417
 Alpha virt. eigenvalues --    0.03654   0.06976   0.06976   0.07813   0.15534
 Alpha virt. eigenvalues --    0.24262   0.24264   0.29443   0.68432   0.68432
 Alpha virt. eigenvalues --    0.72520   0.88922   1.02583   1.02585   1.09900

 Mulliken charges:
               1
     1  C   -0.825144
     2  H    0.226806
     3  H    0.226826
     4  H    0.226806
     5  H    0.144706
 Sum of Mulliken charges =  -0.00000

 Dipole moment (field-independent basis, Debye):
    X=              0.0552    Y=             -0.0000    Z=              0.0004  Tot=              0.0552
 Quadrupole moment (field-independent basis, Debye-Ang):
   XX=             -9.3554   YY=             -8.3530   ZZ=             -8.3531
   XY=              0.0001   XZ=             -0.0043   YZ=              0.0000

 Normal termination of Gaussian 16 at Fri Sep 22 17:06:43 2023.
