 Gaussian 16, Revision A.03,
 Gaussian 16:  ES64L-G16RevA.03 25-Dec-2016

 ------------------------------------------------------------------
 # 6-31+g(d) scrf=(solvent=water,pcm) int=ultrafine m062x scf=tight
 ------------------------------------------------------------------

 -----------------------
 tmpdir/M1_conf_87_1.gjf
 -----------------------
 Symbolic Z-matrix:
 Charge =  0 Multiplicity = 1

                         Standard orientation:
 ---------------------------------------------------------------------
 Center     Atomic      Atomic             Coordinates (Angstroms)
 Number     Number       Type             X           Y           Z
 ---------------------------------------------------------------------
      1          6           0        0.128527   -0.000010    0.000203
      2          1           0        0.177160   -0.909727   -0.573683
      3          1           0        0.174299   -0.042298    1.075060
      4          1           0        0.177206    0.951969   -0.500460
      5          1           0       -1.299828    0.000113   -0.002138
 ---------------------------------------------------------------------

 SCF Done:  E(RM062X) =  -40.4287125067     A.U. after    9 cycles

 The electronic state is 1-A.
 Alpha  occ. eigenvalues --  -10.55714  -0.77866  -0.48554  -0.48554  -0.36658
 Alpha virt. eigenvalues --    0.03112   0.06884   0.06884   0.08135   0.11766
 Alpha virt. eigenvalues --    0.24580   0.24581   0.28602   0.68182   0.68184
 Alpha virt. eigenvalues --    0.73111   0.85643   1.03130   1.03132   1.08895

 Mulliken charges:
               1
     1  C   -0.833436
     2  H    0.240929
     3  H    0.240938
     4  H    0.240922
     5  H    0.110648
 Sum of Mulliken charges =  -0.00000

 Dipole moment (field-independent basis, Debye):
    X=              0.0034    Y=             -0.0000    Z=              0.0002  Tot=              0.0034
 Quadrupole moment (field-independent basis, Debye-Ang):
   XX=            -10.0348   YY=             -8.3115   ZZ=             -8.3120
   XY=              0.0002   XZ=             -0.0034   YZ=              0.0000

 Normal termination of Gaussian 16 at Fri Sep 22 17:08:37 2023.
