 Gaussian 16, Revision A.03,
 Gaussian 16:  ES64L-G16RevA.03 25-Dec-2016

 ------------------------------------------------------------------
 # 6-31+g(d) scrf=(solvent=water,pcm) int=ultrafine m062x scf=tight
 ------------------------------------------------------------------

 -----------------------
 tmpdir/M1_conf_97_2.gjf
 -----------------------
 Symbolic Z-matrix:
 Charge =  0 Multiplicity = 1

                         Standard orientation:
 ---------------------------------------------------------------------
 Center     Atomic      Atomic             Coordinates (Angstroms)
 Number     Number       Type             X           Y           Z
 ---------------------------------------------------------------------
      1         17           0        0.000000   -0.000000    0.096044
      2          1           0       -0.000000    0.000000   -1.632742
 ---------------------------------------------------------------------

 SCF Done:  E(RM062X) =  -460.706507582     A.U. after    9 cycles

 The electronic state is 1-SG.
 Alpha  occ. eigenvalues -- -102.68534  -9.82843  -7.55273  -7.54558  -7.54558
 Alpha  occ. eigenvalues --   -0.90243  -0.46896  -0.39223  -0.39223
 Alpha virt. eigenvalues --   -0.06698   0.06480   0.08595   0.08595   0.09247
 Alpha virt. eigenvalues --    0.57988   0.62460   0.63868   0.63868   0.91711
 Alpha virt. eigenvalues --    0.91711   0.92304   0.93622   0.93622   0.99167

 Mulliken charges:
               1
     1  Cl  -0.312415
     2  H    0.312415
 Sum of Mulliken charges =  -0.00000

 Dipole moment (field-independent basis, Debye):
    X=             -0.0000    Y=              0.0000    Z=             -2.4848  Tot=              2.4848
 Quadrupole moment (field-independent basis, Debye-Ang):
   XX=            -14.7157   YY=            -14.7157   ZZ=             -8.4964
   XY=             -0.0000   XZ=              0.0000   YZ=             -0.0000

 Normal termination of Gaussian 16 at Fri Sep 22 17:09:28 2023.
