 Gaussian 16, Revision A.03,
 Gaussian 16:  ES64L-G16RevA.03 25-Dec-2016

 ------------------------------------------------------------------
 # 6-31+g(d) scrf=(solvent=water,pcm) int=ultrafine m062x scf=tight
 ------------------------------------------------------------------

 -----------------------
 tmpdir/M1_conf_81_1.gjf
 -----------------------
 Symbolic Z-matrix:
 Charge =  0 Multiplicity = 1

                         Standard orientation:
 ---------------------------------------------------------------------
 Center     Atomic      Atomic             Coordinates (Angstroms)
 Number     Number       Type             X           Y           Z
 ---------------------------------------------------------------------
      1          6           0       -0.114458   -0.000000    0.000281
      2          1           0       -0.201275    0.929734   -0.536083
      3          1           0       -0.196980   -0.000139    1.073917
      4          1           0       -0.201274   -0.929596   -0.536323
      5          1           0        1.286278    0.000001   -0.003199
 ---------------------------------------------------------------------

 SCF Done:  E(RM062X) =  -40.4365511082     A.U. after    9 cycles

 The electronic state is 1-A.
 Alpha  occ. eigenvalues --  -10.55442  -0.77803  -0.48351  -0.48351  -0.37314
 Alpha virt. eigenvalues --    0.03304   0.06903   0.06904   0.08051   0.12718
 Alpha virt. eigenvalues --    0.24538   0.24539   0.28798   0.68246   0.68248
 Alpha virt. eigenvalues --    0.73013   0.86297   1.03097   1.03098   1.09228

 Mulliken charges:
               1
     1  C   -0.830956
     2  H    0.237225
     3  H    0.237240
     4  H    0.237225
     5  H    0.119266
 Sum of Mulliken charges =  -0.00000

 Dipole moment (field-independent basis, Debye):
    X=             -0.0266    Y=             -0.0000    Z=              0.0002  Tot=              0.0266
 Quadrupole moment (field-independent basis, Debye-Ang):
   XX=             -9.8578   YY=             -8.3131   ZZ=             -8.3134
   XY=             -0.0000   XZ=              0.0045   YZ=             -0.0000

 Normal termination of Gaussian 16 at Fri Sep 22 17:08:08 2023.
