 Gaussian 16, Revision A.03,
 Gaussian 16:  ES64L-G16RevA.03 25-Dec-2016

 ------------------------------------------------------------------
 # 6-31+g(d) scrf=(solvent=water,pcm) int=ultrafine m062x scf=tight
 ------------------------------------------------------------------

 -----------------------
 tmpdir/M1_conf_31_1.gjf
 -----------------------
 Symbolic Z-matrix:
 Charge =  0 Multiplicity = 1

                         Standard orientation:
 ---------------------------------------------------------------------
 Center     Atomic      Atomic             Coordinates (Angstroms)
 Number     Number       Type             X           Y           Z
 ---------------------------------------------------------------------
      1          6           0        0.020165    0.000004    0.000042
      2          1           0        0.347091   -0.890696   -0.522945
      3          1           0        0.340245   -0.008740    1.034981
      4          1           0        0.346610    0.899664   -0.507679
      5          1           0       -1.154935   -0.000253   -0.004610
 ---------------------------------------------------------------------

 SCF Done:  E(RM062X) =  -40.4797481650     A.U. after    9 cycles

 The electronic state is 1-A.
 Alpha  occ. eigenvalues --  -10.53248  -0.78171  -0.46215  -0.46214  -0.43583
 Alpha virt. eigenvalues --    0.03918   0.07130   0.07130   0.07401   0.20609
 Alpha virt. eigenvalues --    0.23542   0.23542   0.30670   0.68838   0.68839
 Alpha virt. eigenvalues --    0.70835   0.95556   1.00951   1.00952   1.10723

 Mulliken charges:
               1
     1  C   -0.827679
     2  H    0.213098
     3  H    0.213096
     4  H    0.213099
     5  H    0.188387
 Sum of Mulliken charges =  -0.00000

 Dipole moment (field-independent basis, Debye):
    X=              0.0321    Y=              0.0000    Z=              0.0004  Tot=              0.0321
 Quadrupole moment (field-independent basis, Debye-Ang):
   XX=             -8.6477   YY=             -8.4565   ZZ=             -8.4571
   XY=             -0.0001   XZ=             -0.0014   YZ=             -0.0000

 Normal termination of Gaussian 16 at Fri Sep 22 17:03:59 2023.
