 Gaussian 16, Revision A.03,
 Gaussian 16:  ES64L-G16RevA.03 25-Dec-2016

 ------------------------------------------------------------------
 # 6-31+g(d) scrf=(solvent=water,pcm) int=ultrafine m062x scf=tight
 ------------------------------------------------------------------

 -----------------------
 tmpdir/M1_conf_92_1.gjf
 -----------------------
 Symbolic Z-matrix:
 Charge =  0 Multiplicity = 1

                         Standard orientation:
 ---------------------------------------------------------------------
 Center     Atomic      Atomic             Coordinates (Angstroms)
 Number     Number       Type             X           Y           Z
 ---------------------------------------------------------------------
      1          6           0        0.140323   -0.000007    0.000188
      2          1           0        0.157190   -0.910731   -0.573910
      3          1           0        0.154665   -0.041938    1.075949
      4          1           0        0.157202    0.952629   -0.501302
      5          1           0       -1.310998    0.000081   -0.001868
 ---------------------------------------------------------------------

 SCF Done:  E(RM062X) =  -40.4219817451     A.U. after    9 cycles

 The electronic state is 1-A.
 Alpha  occ. eigenvalues --  -10.55935  -0.77935  -0.48697  -0.48696  -0.36157
 Alpha virt. eigenvalues --    0.02914   0.06871   0.06871   0.08203   0.11012
 Alpha virt. eigenvalues --    0.24589   0.24590   0.28457   0.68129   0.68130
 Alpha virt. eigenvalues --    0.73154   0.85231   1.03091   1.03095   1.08617

 Mulliken charges:
               1
     1  C   -0.835351
     2  H    0.243864
     3  H    0.243873
     4  H    0.243855
     5  H    0.103759
 Sum of Mulliken charges =  -0.00000

 Dipole moment (field-independent basis, Debye):
    X=             -0.0218    Y=             -0.0001    Z=              0.0002  Tot=              0.0218
 Quadrupole moment (field-independent basis, Debye-Ang):
   XX=            -10.1766   YY=             -8.3166   ZZ=             -8.3172
   XY=              0.0001   XZ=             -0.0032   YZ=              0.0000

 Normal termination of Gaussian 16 at Fri Sep 22 17:09:02 2023.
