 Gaussian 16, Revision A.03,
 Gaussian 16:  ES64L-G16RevA.03 25-Dec-2016

 ------------------------------------------------------------------
 # 6-31+g(d) scrf=(solvent=water,pcm) int=ultrafine m062x scf=tight
 ------------------------------------------------------------------

 -----------------------
 tmpdir/M1_conf_43_0.gjf
 -----------------------
 Symbolic Z-matrix:
 Charge = -1 Multiplicity = 1

                         Standard orientation:
 ---------------------------------------------------------------------
 Center     Atomic      Atomic             Coordinates (Angstroms)
 Number     Number       Type             X           Y           Z
 ---------------------------------------------------------------------
      1          7           0        0.000000   -0.000000    0.541100
      2          6           0       -0.000000    0.000000   -0.631284
 ---------------------------------------------------------------------

 SCF Done:  E(RM062X) =  -92.9322569047     A.U. after   10 cycles

 The electronic state is 1-SG.
 Alpha  occ. eigenvalues --  -14.69716 -10.49538  -0.93413  -0.43917  -0.34320
 Alpha  occ. eigenvalues --   -0.34320  -0.30670
 Alpha virt. eigenvalues --    0.04905   0.06848   0.06848   0.08738   0.14129
 Alpha virt. eigenvalues --    0.14129   0.16514   0.22792   0.22792   0.27854
 Alpha virt. eigenvalues --    0.52475   0.77419   0.77419   0.84285   1.00410

 Mulliken charges:
               1
     1  N   -0.668941
     2  C   -0.331059
 Sum of Mulliken charges =  -1.00000

 Dipole moment (field-independent basis, Debye):
    X=             -0.0000    Y=             -0.0000    Z=              0.4209  Tot=              0.4209
 Quadrupole moment (field-independent basis, Debye-Ang):
   XX=            -14.6321   YY=            -14.6321   ZZ=            -19.4904
   XY=             -0.0000   XZ=             -0.0000   YZ=              0.0000

 Normal termination of Gaussian 16 at Fri Sep 22 17:04:56 2023.
