 Gaussian 16, Revision A.03,
 Gaussian 16:  ES64L-G16RevA.03 25-Dec-2016

 ------------------------------------------------------------------
 # 6-31+g(d) scrf=(solvent=water,pcm) int=ultrafine m062x scf=tight
 ------------------------------------------------------------------

 ------------------------
 tmpdir/M1_conf_110_1.gjf
 ------------------------
 Symbolic Z-matrix:
 Charge =  0 Multiplicity = 1

                         Standard orientation:
 ---------------------------------------------------------------------
 Center     Atomic      Atomic             Coordinates (Angstroms)
 Number     Number       Type             X           Y           Z
 ---------------------------------------------------------------------
      1          6           0        0.184920   -0.000003    0.000164
      2          1           0        0.081763   -0.922803   -0.547109
      3          1           0        0.079971   -0.012583    1.072724
      4          1           0        0.081784    0.935376   -0.525324
      5          1           0       -1.353036    0.000028   -0.001277
 ---------------------------------------------------------------------

 SCF Done:  E(RM062X) =  -40.3957277715     A.U. after    9 cycles

 The electronic state is 1-A.
 Alpha  occ. eigenvalues --  -10.56693  -0.78301  -0.48981  -0.48979  -0.34667
 Alpha virt. eigenvalues --    0.01732   0.06848   0.06848   0.08416   0.08699
 Alpha virt. eigenvalues --    0.24392   0.24394   0.28101   0.67930   0.67932
 Alpha virt. eigenvalues --    0.73024   0.84785   1.02409   1.02414   1.07907

 Mulliken charges:
               1
     1  C   -0.839231
     2  H    0.252606
     3  H    0.252613
     4  H    0.252608
     5  H    0.081404
 Sum of Mulliken charges =   0.00000

 Dipole moment (field-independent basis, Debye):
    X=             -0.1738    Y=              0.0000    Z=             -0.0000  Tot=              0.1738
 Quadrupole moment (field-independent basis, Debye-Ang):
   XX=            -10.6247   YY=             -8.3939   ZZ=             -8.3949
   XY=              0.0001   XZ=             -0.0028   YZ=             -0.0000

 Normal termination of Gaussian 16 at Fri Sep 22 17:10:36 2023.
