 Gaussian 16, Revision A.03,
 Gaussian 16:  ES64L-G16RevA.03 25-Dec-2016

 ------------------------------------------------------------------
 # 6-31+g(d) scrf=(solvent=water,pcm) int=ultrafine m062x scf=tight
 ------------------------------------------------------------------

 -----------------------
 tmpdir/M1_conf_31_2.gjf
 -----------------------
 Symbolic Z-matrix:
 Charge =  0 Multiplicity = 1

                         Standard orientation:
 ---------------------------------------------------------------------
 Center     Atomic      Atomic             Coordinates (Angstroms)
 Number     Number       Type             X           Y           Z
 ---------------------------------------------------------------------
      1         17           0       -0.000000    0.000000    0.076557
      2          1           0        0.000000   -0.000000   -1.301469
 ---------------------------------------------------------------------

 SCF Done:  E(RM062X) =  -460.756853826     A.U. after    8 cycles

 The electronic state is 1-SG.
 Alpha  occ. eigenvalues -- -102.67753  -9.82471  -7.54881  -7.54204  -7.54204
 Alpha  occ. eigenvalues --   -0.93155  -0.52269  -0.39788  -0.39788
 Alpha virt. eigenvalues --    0.01812   0.07708   0.08628   0.08628   0.09379
 Alpha virt. eigenvalues --    0.58915   0.62393   0.63672   0.63672   0.79705
 Alpha virt. eigenvalues --    0.90475   0.90475   0.93161   0.93165   1.21819

 Mulliken charges:
               1
     1  Cl  -0.285614
     2  H    0.285614
 Sum of Mulliken charges =   0.00000

 Dipole moment (field-independent basis, Debye):
    X=              0.0000    Y=             -0.0000    Z=             -1.9359  Tot=              1.9359
 Quadrupole moment (field-independent basis, Debye-Ang):
   XX=            -14.3311   YY=            -14.3311   ZZ=             -9.9619
   XY=             -0.0000   XZ=              0.0000   YZ=             -0.0000

 Normal termination of Gaussian 16 at Fri Sep 22 17:03:56 2023.
