 Gaussian 16, Revision A.03,
 Gaussian 16:  ES64L-G16RevA.03 25-Dec-2016

 ------------------------------------------------------------------
 # 6-31+g(d) scrf=(solvent=water,pcm) int=ultrafine m062x scf=tight
 ------------------------------------------------------------------

 ------------------------
 tmpdir/M1_conf_123_1.gjf
 ------------------------
 Symbolic Z-matrix:
 Charge =  0 Multiplicity = 1

                         Standard orientation:
 ---------------------------------------------------------------------
 Center     Atomic      Atomic             Coordinates (Angstroms)
 Number     Number       Type             X           Y           Z
 ---------------------------------------------------------------------
      1          6           0        0.213564   -0.000007    0.000118
      2          1           0        0.034194   -0.921659   -0.532887
      3          1           0        0.032955   -0.000808    1.064535
      4          1           0        0.034267    0.922465   -0.531489
      5          1           0       -1.382799    0.000043   -0.000869
 ---------------------------------------------------------------------

 SCF Done:  E(RM062X) =  -40.3783556952     A.U. after    9 cycles

 The electronic state is 1-A.
 Alpha  occ. eigenvalues --  -10.57118  -0.78590  -0.48926  -0.48922  -0.34046
 Alpha virt. eigenvalues --    0.00532   0.06856   0.06856   0.07654   0.08602
 Alpha virt. eigenvalues --    0.24066   0.24070   0.28039   0.67829   0.67832
 Alpha virt. eigenvalues --    0.72778   0.85327   1.01537   1.01546   1.07951

 Mulliken charges:
               1
     1  C   -0.837558
     2  H    0.255633
     3  H    0.255616
     4  H    0.255634
     5  H    0.070675
 Sum of Mulliken charges =  -0.00000

 Dipole moment (field-independent basis, Debye):
    X=             -0.3167    Y=              0.0000    Z=             -0.0001  Tot=              0.3167
 Quadrupole moment (field-independent basis, Debye-Ang):
   XX=            -10.8076   YY=             -8.4958   ZZ=             -8.4971
   XY=              0.0001   XZ=             -0.0022   YZ=             -0.0000

 Normal termination of Gaussian 16 at Fri Sep 22 17:11:42 2023.
