 Gaussian 16, Revision A.03,
 Gaussian 16:  ES64L-G16RevA.03 25-Dec-2016

 ------------------------------------------------------------------
 # 6-31+g(d) scrf=(solvent=water,pcm) int=ultrafine m062x scf=tight
 ------------------------------------------------------------------

 -----------------------
 tmpdir/M1_conf_43_1.gjf
 -----------------------
 Symbolic Z-matrix:
 Charge =  0 Multiplicity = 1

                         Standard orientation:
 ---------------------------------------------------------------------
 Center     Atomic      Atomic             Coordinates (Angstroms)
 Number     Number       Type             X           Y           Z
 ---------------------------------------------------------------------
      1          6           0       -0.035952    0.000002    0.000184
      2          1           0       -0.327451    0.908110   -0.510130
      3          1           0       -0.315701   -0.010040    1.044931
      4          1           0       -0.327620   -0.898055   -0.527523
      5          1           0        1.186487   -0.000024   -0.008382
 ---------------------------------------------------------------------

 SCF Done:  E(RM062X) =  -40.4743457248     A.U. after    9 cycles

 The electronic state is 1-A.
 Alpha  occ. eigenvalues --  -10.53699  -0.77962  -0.46642  -0.46638  -0.42256
 Alpha virt. eigenvalues --    0.03865   0.07081   0.07081   0.07527   0.19021
 Alpha virt. eigenvalues --    0.23768   0.23769   0.30289   0.68698   0.68700
 Alpha virt. eigenvalues --    0.71517   0.93197   1.01478   1.01484   1.10333

 Mulliken charges:
               1
     1  C   -0.825219
     2  H    0.216601
     3  H    0.216601
     4  H    0.216600
     5  H    0.175417
 Sum of Mulliken charges =  -0.00000

 Dipole moment (field-independent basis, Debye):
    X=             -0.0422    Y=              0.0000    Z=              0.0008  Tot=              0.0422
 Quadrupole moment (field-independent basis, Debye-Ang):
   XX=             -8.8344   YY=             -8.4274   ZZ=             -8.4288
   XY=              0.0000   XZ=              0.0041   YZ=              0.0000

 Normal termination of Gaussian 16 at Fri Sep 22 17:04:58 2023.
