 Gaussian 16, Revision A.03,
 Gaussian 16:  ES64L-G16RevA.03 25-Dec-2016

 ------------------------------------------------------------------
 # 6-31+g(d) scrf=(solvent=water,pcm) int=ultrafine m062x scf=tight
 ------------------------------------------------------------------

 -----------------------
 tmpdir/M1_conf_80_1.gjf
 -----------------------
 Symbolic Z-matrix:
 Charge =  0 Multiplicity = 1

                         Standard orientation:
 ---------------------------------------------------------------------
 Center     Atomic      Atomic             Coordinates (Angstroms)
 Number     Number       Type             X           Y           Z
 ---------------------------------------------------------------------
      1          6           0        0.112129   -0.000013    0.000219
      2          1           0        0.204826   -0.910648   -0.567117
      3          1           0        0.201454   -0.036244    1.072745
      4          1           0        0.204946    0.946809   -0.504392
      5          1           0       -1.284001    0.000163   -0.002552
 ---------------------------------------------------------------------

 SCF Done:  E(RM062X) =  -40.4378251086     A.U. after    9 cycles

 The electronic state is 1-A.
 Alpha  occ. eigenvalues --  -10.55396  -0.77794  -0.48314  -0.48314  -0.37428
 Alpha virt. eigenvalues --    0.03332   0.06907   0.06907   0.08037   0.12880
 Alpha virt. eigenvalues --    0.24528   0.24529   0.28833   0.68257   0.68258
 Alpha virt. eigenvalues --    0.72992   0.86422   1.03083   1.03084   1.09281

 Mulliken charges:
               1
     1  C   -0.830536
     2  H    0.236598
     3  H    0.236609
     4  H    0.236597
     5  H    0.120732
 Sum of Mulliken charges =  -0.00000

 Dipole moment (field-independent basis, Debye):
    X=              0.0297    Y=             -0.0000    Z=              0.0002  Tot=              0.0297
 Quadrupole moment (field-independent basis, Debye-Ang):
   XX=             -9.8279   YY=             -8.3141   ZZ=             -8.3144
   XY=              0.0002   XZ=             -0.0035   YZ=             -0.0000

 Normal termination of Gaussian 16 at Fri Sep 22 17:08:02 2023.
