 Gaussian 16, Revision A.03,
 Gaussian 16:  ES64L-G16RevA.03 25-Dec-2016

 ------------------------------------------------------------------
 # 6-31+g(d) scrf=(solvent=water,pcm) int=ultrafine m062x scf=tight
 ------------------------------------------------------------------

 -----------------------
 tmpdir/M1_conf_71_1.gjf
 -----------------------
 Symbolic Z-matrix:
 Charge =  0 Multiplicity = 1

                         Standard orientation:
 ---------------------------------------------------------------------
 Center     Atomic      Atomic             Coordinates (Angstroms)
 Number     Number       Type             X           Y           Z
 ---------------------------------------------------------------------
      1          6           0        0.091549   -0.000018    0.000216
      2          1           0        0.239184   -0.898800   -0.575460
      3          1           0        0.235194   -0.049548    1.066910
      4          1           0        0.239357    0.948202   -0.489726
      5          1           0       -1.263027    0.000251   -0.003017
 ---------------------------------------------------------------------

 SCF Done:  E(RM062X) =  -40.4487506571     A.U. after    9 cycles

 The electronic state is 1-A.
 Alpha  occ. eigenvalues --  -10.54981  -0.77747  -0.47947  -0.47946  -0.38517
 Alpha virt. eigenvalues --    0.03538   0.06944   0.06944   0.07910   0.14367
 Alpha virt. eigenvalues --    0.24400   0.24401   0.29167   0.68353   0.68354
 Alpha virt. eigenvalues --    0.72755   0.87727   1.02861   1.02863   1.09690

 Mulliken charges:
               1
     1  C   -0.827079
     2  H    0.230964
     3  H    0.230981
     4  H    0.230971
     5  H    0.134163
 Sum of Mulliken charges =   0.00000

 Dipole moment (field-independent basis, Debye):
    X=              0.0494    Y=              0.0000    Z=              0.0002  Tot=              0.0494
 Quadrupole moment (field-independent basis, Debye-Ang):
   XX=             -9.5580   YY=             -8.3316   ZZ=             -8.3317
   XY=              0.0003   XZ=             -0.0034   YZ=             -0.0000

 Normal termination of Gaussian 16 at Fri Sep 22 17:07:18 2023.
