 Gaussian 16, Revision A.03,
 Gaussian 16:  ES64L-G16RevA.03 25-Dec-2016

 ------------------------------------------------------------------
 # 6-31+g(d) scrf=(solvent=water,pcm) int=ultrafine m062x scf=tight
 ------------------------------------------------------------------

 -----------------------
 tmpdir/M1_conf_24_0.gjf
 -----------------------
 Symbolic Z-matrix:
 Charge = -1 Multiplicity = 1

                         Standard orientation:
 ---------------------------------------------------------------------
 Center     Atomic      Atomic             Coordinates (Angstroms)
 Number     Number       Type             X           Y           Z
 ---------------------------------------------------------------------
      1          7           0       -0.000000    0.000000    0.541876
      2          6           0        0.000000   -0.000000   -0.632188
 ---------------------------------------------------------------------

 SCF Done:  E(RM062X) =  -92.9322778400     A.U. after   10 cycles

 The electronic state is 1-SG.
 Alpha  occ. eigenvalues --  -14.69756 -10.49594  -0.93353  -0.43948  -0.34286
 Alpha  occ. eigenvalues --   -0.34286  -0.30675
 Alpha virt. eigenvalues --    0.04907   0.06841   0.06841   0.08736   0.14103
 Alpha virt. eigenvalues --    0.14103   0.16507   0.22757   0.22757   0.27847
 Alpha virt. eigenvalues --    0.52441   0.77412   0.77412   0.84224   1.00371

 Mulliken charges:
               1
     1  N   -0.668777
     2  C   -0.331223
 Sum of Mulliken charges =  -1.00000

 Dipole moment (field-independent basis, Debye):
    X=             -0.0000    Y=             -0.0000    Z=              0.4162  Tot=              0.4162
 Quadrupole moment (field-independent basis, Debye-Ang):
   XX=            -14.6387   YY=            -14.6387   ZZ=            -19.4956
   XY=             -0.0000   XZ=              0.0000   YZ=              0.0000

 Normal termination of Gaussian 16 at Fri Sep 22 17:03:22 2023.
