 Gaussian 16, Revision A.03,
 Gaussian 16:  ES64L-G16RevA.03 25-Dec-2016

 ------------------------------------------------------------------
 # 6-31+g(d) scrf=(solvent=water,pcm) int=ultrafine m062x scf=tight
 ------------------------------------------------------------------

 -----------------------
 tmpdir/M1_conf_21_1.gjf
 -----------------------
 Symbolic Z-matrix:
 Charge =  0 Multiplicity = 1

                         Standard orientation:
 ---------------------------------------------------------------------
 Center     Atomic      Atomic             Coordinates (Angstroms)
 Number     Number       Type             X           Y           Z
 ---------------------------------------------------------------------
      1          6           0        0.015672   -0.000019   -0.000001
      2          1           0        0.348755   -0.447329    0.929784
      3          1           0        0.355105    1.026658   -0.078642
      4          1           0        0.348559   -0.583677   -0.850914
      5          1           0       -1.146451    0.004462   -0.000221
 ---------------------------------------------------------------------

 SCF Done:  E(RM062X) =  -40.4808797418     A.U. after    9 cycles

 The electronic state is 1-A.
 Alpha  occ. eigenvalues --  -10.53135  -0.78230  -0.46085  -0.46083  -0.43967
 Alpha virt. eigenvalues --    0.03929   0.07144   0.07145   0.07366   0.21047
 Alpha virt. eigenvalues --    0.23462   0.23463   0.30765   0.68887   0.68888
 Alpha virt. eigenvalues --    0.70621   0.96287   1.00763   1.00767   1.10840

 Mulliken charges:
               1
     1  C   -0.828367
     2  H    0.212170
     3  H    0.212178
     4  H    0.212161
     5  H    0.191858
 Sum of Mulliken charges =  -0.00000

 Dipole moment (field-independent basis, Debye):
    X=              0.0313    Y=             -0.0003    Z=              0.0001  Tot=              0.0313
 Quadrupole moment (field-independent basis, Debye-Ang):
   XX=             -8.5972   YY=             -8.4670   ZZ=             -8.4673
   XY=              0.0012   XZ=             -0.0001   YZ=             -0.0000

 Normal termination of Gaussian 16 at Fri Sep 22 17:03:10 2023.
