 Gaussian 16, Revision A.03,
 Gaussian 16:  ES64L-G16RevA.03 25-Dec-2016

 ------------------------------------------------------------------
 # 6-31+g(d) scrf=(solvent=water,pcm) int=ultrafine m062x scf=tight
 ------------------------------------------------------------------

 -----------------------
 tmpdir/M1_conf_46_1.gjf
 -----------------------
 Symbolic Z-matrix:
 Charge =  0 Multiplicity = 1

                         Standard orientation:
 ---------------------------------------------------------------------
 Center     Atomic      Atomic             Coordinates (Angstroms)
 Number     Number       Type             X           Y           Z
 ---------------------------------------------------------------------
      1          6           0       -0.040654    0.000003    0.000213
      2          1           0       -0.320653    0.911554   -0.509418
      3          1           0       -0.309351   -0.012497    1.047355
      4          1           0       -0.320907   -0.899015   -0.531081
      5          1           0        1.194837   -0.000061   -0.008137
 ---------------------------------------------------------------------

 SCF Done:  E(RM062X) =  -40.4724972449     A.U. after    9 cycles

 The electronic state is 1-A.
 Alpha  occ. eigenvalues --  -10.53824  -0.77916  -0.46765  -0.46762  -0.41886
 Alpha virt. eigenvalues --    0.03846   0.07068   0.07068   0.07563   0.18575
 Alpha virt. eigenvalues --    0.23832   0.23833   0.30181   0.68661   0.68664
 Alpha virt. eigenvalues --    0.71678   0.92589   1.01627   1.01632   1.10257

 Mulliken charges:
               1
     1  C   -0.824744
     2  H    0.217702
     3  H    0.217704
     4  H    0.217700
     5  H    0.171638
 Sum of Mulliken charges =  -0.00000

 Dipole moment (field-independent basis, Debye):
    X=             -0.0451    Y=              0.0000    Z=              0.0008  Tot=              0.0451
 Quadrupole moment (field-independent basis, Debye-Ang):
   XX=             -8.8926   YY=             -8.4184   ZZ=             -8.4196
   XY=              0.0000   XZ=              0.0045   YZ=             -0.0000

 Normal termination of Gaussian 16 at Fri Sep 22 17:05:13 2023.
