 Gaussian 16, Revision A.03,
 Gaussian 16:  ES64L-G16RevA.03 25-Dec-2016

 ------------------------------------------------------------------
 # 6-31+g(d) scrf=(solvent=water,pcm) int=ultrafine m062x scf=tight
 ------------------------------------------------------------------

 -----------------------
 tmpdir/M1_conf_23_2.gjf
 -----------------------
 Symbolic Z-matrix:
 Charge =  0 Multiplicity = 1

                         Standard orientation:
 ---------------------------------------------------------------------
 Center     Atomic      Atomic             Coordinates (Angstroms)
 Number     Number       Type             X           Y           Z
 ---------------------------------------------------------------------
      1         17           0       -0.000000    0.000000    0.075773
      2          1           0        0.000000   -0.000000   -1.288143
 ---------------------------------------------------------------------

 SCF Done:  E(RM062X) =  -460.757954119     A.U. after    8 cycles

 The electronic state is 1-SG.
 Alpha  occ. eigenvalues -- -102.67701  -9.82445  -7.54855  -7.54177  -7.54177
 Alpha  occ. eigenvalues --   -0.93336  -0.52498  -0.39812  -0.39812
 Alpha virt. eigenvalues --    0.02067   0.07752   0.08630   0.08630   0.09537
 Alpha virt. eigenvalues --    0.58853   0.62365   0.63669   0.63669   0.79447
 Alpha virt. eigenvalues --    0.90409   0.90409   0.93142   0.93147   1.23037

 Mulliken charges:
               1
     1  Cl  -0.284487
     2  H    0.284487
 Sum of Mulliken charges =  -0.00000

 Dipole moment (field-independent basis, Debye):
    X=              0.0000    Y=             -0.0000    Z=             -1.9167  Tot=              1.9167
 Quadrupole moment (field-independent basis, Debye-Ang):
   XX=            -14.3134   YY=            -14.3134   ZZ=            -10.0061
   XY=              0.0000   XZ=             -0.0000   YZ=             -0.0000

 Normal termination of Gaussian 16 at Fri Sep 22 17:03:18 2023.
