 Gaussian 16, Revision A.03,
 Gaussian 16:  ES64L-G16RevA.03 25-Dec-2016

 ------------------------------------------------------------------
 # 6-31+g(d) scrf=(solvent=water,pcm) int=ultrafine m062x scf=tight
 ------------------------------------------------------------------

 ------------------------
 tmpdir/M1_conf_118_1.gjf
 ------------------------
 Symbolic Z-matrix:
 Charge =  0 Multiplicity = 1

                         Standard orientation:
 ---------------------------------------------------------------------
 Center     Atomic      Atomic             Coordinates (Angstroms)
 Number     Number       Type             X           Y           Z
 ---------------------------------------------------------------------
      1          6           0        0.202866   -0.000005    0.000149
      2          1           0        0.051822   -0.922511   -0.538471
      3          1           0        0.050264   -0.005226    1.068095
      4          1           0        0.051873    0.927732   -0.529424
      5          1           0       -1.371154    0.000035   -0.001094
 ---------------------------------------------------------------------

 SCF Done:  E(RM062X) =  -40.3848942388     A.U. after    9 cycles

 The electronic state is 1-A.
 Alpha  occ. eigenvalues --  -10.56963  -0.78480  -0.48970  -0.48966  -0.34249
 Alpha virt. eigenvalues --    0.01021   0.06851   0.06851   0.07974   0.08559
 Alpha virt. eigenvalues --    0.24206   0.24210   0.28047   0.67863   0.67865
 Alpha virt. eigenvalues --    0.72877   0.85059   1.01900   1.01908   1.07880

 Mulliken charges:
               1
     1  C   -0.838604
     2  H    0.254755
     3  H    0.254749
     4  H    0.254756
     5  H    0.074345
 Sum of Mulliken charges =  -0.00000

 Dipole moment (field-independent basis, Debye):
    X=             -0.2599    Y=              0.0000    Z=             -0.0001  Tot=              0.2599
 Quadrupole moment (field-independent basis, Debye-Ang):
   XX=            -10.7505   YY=             -8.4529   ZZ=             -8.4541
   XY=              0.0001   XZ=             -0.0026   YZ=             -0.0000

 Normal termination of Gaussian 16 at Fri Sep 22 17:11:16 2023.
