 Gaussian 16, Revision A.03,
 Gaussian 16:  ES64L-G16RevA.03 25-Dec-2016

 ------------------------------------------------------------------
 # 6-31+g(d) scrf=(solvent=water,pcm) int=ultrafine m062x scf=tight
 ------------------------------------------------------------------

 -----------------------
 tmpdir/M1_conf_47_1.gjf
 -----------------------
 Symbolic Z-matrix:
 Charge =  0 Multiplicity = 1

                         Standard orientation:
 ---------------------------------------------------------------------
 Center     Atomic      Atomic             Coordinates (Angstroms)
 Number     Number       Type             X           Y           Z
 ---------------------------------------------------------------------
      1          6           0       -0.043947    0.000004    0.000233
      2          1           0       -0.315809    0.913746   -0.509207
      3          1           0       -0.304838   -0.013872    1.049006
      4          1           0       -0.316089   -0.899826   -0.533256
      5          1           0        1.200419   -0.000070   -0.007939
 ---------------------------------------------------------------------

 SCF Done:  E(RM062X) =  -40.4711537185     A.U. after    9 cycles

 The electronic state is 1-A.
 Alpha  occ. eigenvalues --  -10.53909  -0.77887  -0.46850  -0.46848  -0.41634
 Alpha virt. eigenvalues --    0.03832   0.07058   0.07058   0.07588   0.18270
 Alpha virt. eigenvalues --    0.23877   0.23878   0.30107   0.68636   0.68639
 Alpha virt. eigenvalues --    0.71782   0.92185   1.01729   1.01733   1.10212

 Mulliken charges:
               1
     1  C   -0.824487
     2  H    0.218489
     3  H    0.218492
     4  H    0.218487
     5  H    0.169020
 Sum of Mulliken charges =   0.00000

 Dipole moment (field-independent basis, Debye):
    X=             -0.0469    Y=              0.0000    Z=              0.0007  Tot=              0.0470
 Quadrupole moment (field-independent basis, Debye-Ang):
   XX=             -8.9338   YY=             -8.4120   ZZ=             -8.4132
   XY=              0.0000   XZ=              0.0047   YZ=             -0.0000

 Normal termination of Gaussian 16 at Fri Sep 22 17:05:18 2023.
