 Gaussian 16, Revision A.03,
 Gaussian 16:  ES64L-G16RevA.03 25-Dec-2016

 ------------------------------------------------------------------
 # 6-31+g(d) scrf=(solvent=water,pcm) int=ultrafine m062x scf=tight
 ------------------------------------------------------------------

 -----------------------
 tmpdir/M1_conf_58_1.gjf
 -----------------------
 Symbolic Z-matrix:
 Charge =  0 Multiplicity = 1

                         Standard orientation:
 ---------------------------------------------------------------------
 Center     Atomic      Atomic             Coordinates (Angstroms)
 Number     Number       Type             X           Y           Z
 ---------------------------------------------------------------------
      1          6           0       -0.064039    0.000001    0.000297
      2          1           0       -0.284790    0.924481   -0.510745
      3          1           0       -0.276395   -0.018610    1.058127
      4          1           0       -0.284972   -0.905871   -0.542976
      5          1           0        1.230393   -0.000007   -0.006187
 ---------------------------------------------------------------------

 SCF Done:  E(RM062X) =  -40.4622743169     A.U. after    9 cycles

 The electronic state is 1-A.
 Alpha  occ. eigenvalues --  -10.54390  -0.77775  -0.47349  -0.47349  -0.40205
 Alpha virt. eigenvalues --    0.03731   0.07005   0.07005   0.07731   0.16521
 Alpha virt. eigenvalues --    0.24129   0.24130   0.29681   0.68502   0.68503
 Alpha virt. eigenvalues --    0.72287   0.90029   1.02298   1.02298   1.10017

 Mulliken charges:
               1
     1  C   -0.824253
     2  H    0.223546
     3  H    0.223560
     4  H    0.223543
     5  H    0.153603
 Sum of Mulliken charges =   0.00000

 Dipole moment (field-independent basis, Debye):
    X=             -0.0549    Y=              0.0000    Z=              0.0005  Tot=              0.0549
 Quadrupole moment (field-independent basis, Debye-Ang):
   XX=             -9.1931   YY=             -8.3739   ZZ=             -8.3743
   XY=             -0.0000   XZ=              0.0051   YZ=             -0.0000

 Normal termination of Gaussian 16 at Fri Sep 22 17:06:13 2023.
