 Gaussian 16, Revision A.03,
 Gaussian 16:  ES64L-G16RevA.03 25-Dec-2016

 ------------------------------------------------------------------
 # 6-31+g(d) scrf=(solvent=water,pcm) int=ultrafine m062x scf=tight
 ------------------------------------------------------------------

 ------------------------
 tmpdir/M1_conf_123_2.gjf
 ------------------------
 Symbolic Z-matrix:
 Charge =  0 Multiplicity = 1

                         Standard orientation:
 ---------------------------------------------------------------------
 Center     Atomic      Atomic             Coordinates (Angstroms)
 Number     Number       Type             X           Y           Z
 ---------------------------------------------------------------------
      1         17           0       -0.000000   -0.000000    0.104001
      2          1           0        0.000000    0.000000   -1.768020
 ---------------------------------------------------------------------

 SCF Done:  E(RM062X) =  -460.682964996     A.U. after    9 cycles

 The electronic state is 1-SG.
 Alpha  occ. eigenvalues -- -102.68569  -9.82798  -7.55234  -7.54510  -7.54510
 Alpha  occ. eigenvalues --   -0.89559  -0.45004  -0.38978  -0.38978
 Alpha virt. eigenvalues --   -0.09784   0.06307   0.08597   0.08597   0.09598
 Alpha virt. eigenvalues --    0.57876   0.62441   0.64020   0.64020   0.92106
 Alpha virt. eigenvalues --    0.92106   0.92835   0.93840   0.93843   0.96567

 Mulliken charges:
               1
     1  Cl  -0.326283
     2  H    0.326283
 Sum of Mulliken charges =   0.00000

 Dipole moment (field-independent basis, Debye):
    X=              0.0000    Y=              0.0000    Z=             -2.7700  Tot=              2.7700
 Quadrupole moment (field-independent basis, Debye-Ang):
   XX=            -14.8426   YY=            -14.8426   ZZ=             -7.6725
   XY=              0.0000   XZ=              0.0000   YZ=              0.0000

 Normal termination of Gaussian 16 at Fri Sep 22 17:11:39 2023.
