 Gaussian 16, Revision A.03,
 Gaussian 16:  ES64L-G16RevA.03 25-Dec-2016

 ------------------------------------------------------------------
 # 6-31+g(d) scrf=(solvent=water,pcm) int=ultrafine m062x scf=tight
 ------------------------------------------------------------------

 -----------------------
 tmpdir/M1_conf_20_1.gjf
 -----------------------
 Symbolic Z-matrix:
 Charge =  0 Multiplicity = 1

                         Standard orientation:
 ---------------------------------------------------------------------
 Center     Atomic      Atomic             Coordinates (Angstroms)
 Number     Number       Type             X           Y           Z
 ---------------------------------------------------------------------
      1          6           0        0.015561   -0.000019   -0.000001
      2          1           0        0.348852   -0.469306    0.918869
      3          1           0        0.355521    1.028110   -0.054267
      4          1           0        0.348652   -0.563379   -0.864470
      5          1           0       -1.146393    0.004686   -0.000124
 ---------------------------------------------------------------------

 SCF Done:  E(RM062X) =  -40.4808958784     A.U. after    9 cycles

 The electronic state is 1-A.
 Alpha  occ. eigenvalues --  -10.53135  -0.78230  -0.46081  -0.46079  -0.43975
 Alpha virt. eigenvalues --    0.03929   0.07145   0.07145   0.07365   0.21054
 Alpha virt. eigenvalues --    0.23459   0.23460   0.30765   0.68889   0.68889
 Alpha virt. eigenvalues --    0.70618   0.96300   1.00756   1.00760   1.10839

 Mulliken charges:
               1
     1  C   -0.828368
     2  H    0.212149
     3  H    0.212159
     4  H    0.212144
     5  H    0.191916
 Sum of Mulliken charges =  -0.00000

 Dipole moment (field-independent basis, Debye):
    X=              0.0315    Y=             -0.0003    Z=              0.0000  Tot=              0.0315
 Quadrupole moment (field-independent basis, Debye-Ang):
   XX=             -8.5960   YY=             -8.4675   ZZ=             -8.4678
   XY=              0.0012   XZ=             -0.0000   YZ=             -0.0000

 Normal termination of Gaussian 16 at Fri Sep 22 17:03:05 2023.
