 Gaussian 16, Revision A.03,
 Gaussian 16:  ES64L-G16RevA.03 25-Dec-2016

 ------------------------------------------------------------------
 # 6-31+g(d) scrf=(solvent=water,pcm) int=ultrafine m062x scf=tight
 ------------------------------------------------------------------

 -----------------------
 tmpdir/M1_conf_83_1.gjf
 -----------------------
 Symbolic Z-matrix:
 Charge =  0 Multiplicity = 1

                         Standard orientation:
 ---------------------------------------------------------------------
 Center     Atomic      Atomic             Coordinates (Angstroms)
 Number     Number       Type             X           Y           Z
 ---------------------------------------------------------------------
      1          6           0        0.119132   -0.000012    0.000216
      2          1           0        0.193037   -0.910943   -0.569190
      3          1           0        0.189865   -0.037851    1.073961
      4          1           0        0.193124    0.948725   -0.503675
      5          1           0       -1.290817    0.000140   -0.002390
 ---------------------------------------------------------------------

 SCF Done:  E(RM062X) =  -40.4339730047     A.U. after    9 cycles

 The electronic state is 1-A.
 Alpha  occ. eigenvalues --  -10.55534  -0.77821  -0.48422  -0.48422  -0.37089
 Alpha virt. eigenvalues --    0.03245   0.06896   0.06897   0.08079   0.12396
 Alpha virt. eigenvalues --    0.24556   0.24556   0.28730   0.68225   0.68227
 Alpha virt. eigenvalues --    0.73051   0.86060   1.03118   1.03118   1.09119

 Mulliken charges:
               1
     1  C   -0.831789
     2  H    0.238475
     3  H    0.238485
     4  H    0.238471
     5  H    0.116358
 Sum of Mulliken charges =  -0.00000

 Dipole moment (field-independent basis, Debye):
    X=              0.0197    Y=             -0.0000    Z=              0.0002  Tot=              0.0197
 Quadrupole moment (field-independent basis, Debye-Ang):
   XX=             -9.9174   YY=             -8.3117   ZZ=             -8.3120
   XY=              0.0002   XZ=             -0.0035   YZ=             -0.0000

 Normal termination of Gaussian 16 at Fri Sep 22 17:08:17 2023.
