 Gaussian 16, Revision A.03,
 Gaussian 16:  ES64L-G16RevA.03 25-Dec-2016

 ------------------------------------------------------------------
 # 6-31+g(d) scrf=(solvent=water,pcm) int=ultrafine m062x scf=tight
 ------------------------------------------------------------------

 -----------------------
 tmpdir/M1_conf_24_1.gjf
 -----------------------
 Symbolic Z-matrix:
 Charge =  0 Multiplicity = 1

                         Standard orientation:
 ---------------------------------------------------------------------
 Center     Atomic      Atomic             Coordinates (Angstroms)
 Number     Number       Type             X           Y           Z
 ---------------------------------------------------------------------
      1          6           0        0.016340   -0.000010   -0.000001
      2          1           0        0.348734   -0.215618    1.009010
      3          1           0        0.352042    0.980344   -0.318146
      4          1           0        0.348443   -0.766999   -0.690293
      5          1           0       -1.147258    0.002330   -0.000568
 ---------------------------------------------------------------------

 SCF Done:  E(RM062X) =  -40.4807520381     A.U. after    9 cycles

 The electronic state is 1-A.
 Alpha  occ. eigenvalues --  -10.53144  -0.78226  -0.46106  -0.46104  -0.43915
 Alpha virt. eigenvalues --    0.03929   0.07143   0.07143   0.07371   0.20994
 Alpha virt. eigenvalues --    0.23478   0.23479   0.30757   0.68879   0.68880
 Alpha virt. eigenvalues --    0.70646   0.96191   1.00800   1.00803   1.10834

 Mulliken charges:
               1
     1  C   -0.828312
     2  H    0.212293
     3  H    0.212314
     4  H    0.212284
     5  H    0.191421
 Sum of Mulliken charges =  -0.00000

 Dipole moment (field-independent basis, Debye):
    X=              0.0308    Y=             -0.0000    Z=              0.0000  Tot=              0.0308
 Quadrupole moment (field-independent basis, Debye-Ang):
   XX=             -8.6048   YY=             -8.4646   ZZ=             -8.4648
   XY=              0.0007   XZ=             -0.0001   YZ=             -0.0001

 Normal termination of Gaussian 16 at Fri Sep 22 17:03:25 2023.
