 Gaussian 16, Revision A.03,
 Gaussian 16:  ES64L-G16RevA.03 25-Dec-2016

 ------------------------------------------------------------------
 # 6-31+g(d) scrf=(solvent=water,pcm) int=ultrafine m062x scf=tight
 ------------------------------------------------------------------

 -----------------------
 tmpdir/M1_conf_44_1.gjf
 -----------------------
 Symbolic Z-matrix:
 Charge =  0 Multiplicity = 1

                         Standard orientation:
 ---------------------------------------------------------------------
 Center     Atomic      Atomic             Coordinates (Angstroms)
 Number     Number       Type             X           Y           Z
 ---------------------------------------------------------------------
      1          6           0       -0.037487    0.000002    0.000194
      2          1           0       -0.325251    0.909409   -0.509602
      3          1           0       -0.313639   -0.011183    1.045728
      4          1           0       -0.325453   -0.898203   -0.528980
      5          1           0        1.189262   -0.000036   -0.008310
 ---------------------------------------------------------------------

 SCF Done:  E(RM062X) =  -40.4737522593     A.U. after    9 cycles

 The electronic state is 1-A.
 Alpha  occ. eigenvalues --  -10.53741  -0.77946  -0.46682  -0.46679  -0.42134
 Alpha virt. eigenvalues --    0.03859   0.07077   0.07077   0.07539   0.18874
 Alpha virt. eigenvalues --    0.23789   0.23790   0.30253   0.68685   0.68688
 Alpha virt. eigenvalues --    0.71571   0.92994   1.01527   1.01532   1.10306

 Mulliken charges:
               1
     1  C   -0.825050
     2  H    0.216958
     3  H    0.216958
     4  H    0.216956
     5  H    0.174179
 Sum of Mulliken charges =  -0.00000

 Dipole moment (field-independent basis, Debye):
    X=             -0.0431    Y=              0.0000    Z=              0.0008  Tot=              0.0431
 Quadrupole moment (field-independent basis, Debye-Ang):
   XX=             -8.8533   YY=             -8.4245   ZZ=             -8.4258
   XY=              0.0000   XZ=              0.0042   YZ=             -0.0000

 Normal termination of Gaussian 16 at Fri Sep 22 17:05:04 2023.
