 Gaussian 16, Revision A.03,
 Gaussian 16:  ES64L-G16RevA.03 25-Dec-2016

 ------------------------------------------------------------------
 # 6-31+g(d) scrf=(solvent=water,pcm) int=ultrafine m062x scf=tight
 ------------------------------------------------------------------

 ------------------------
 tmpdir/M1_conf_102_1.gjf
 ------------------------
 Symbolic Z-matrix:
 Charge =  0 Multiplicity = 1

                         Standard orientation:
 ---------------------------------------------------------------------
 Center     Atomic      Atomic             Coordinates (Angstroms)
 Number     Number       Type             X           Y           Z
 ---------------------------------------------------------------------
      1          6           0        0.166295   -0.000003    0.000164
      2          1           0        0.113159   -0.918631   -0.559750
      3          1           0        0.111215   -0.025649    1.075518
      4          1           0        0.113168    0.944260   -0.515344
      5          1           0       -1.335310    0.000040   -0.001410
 ---------------------------------------------------------------------

 SCF Done:  E(RM062X) =  -40.4068135062     A.U. after    9 cycles

 The electronic state is 1-A.
 Alpha  occ. eigenvalues --  -10.56392  -0.78131  -0.48915  -0.48913  -0.35211
 Alpha virt. eigenvalues --    0.02321   0.06852   0.06852   0.08346   0.09538
 Alpha virt. eigenvalues --    0.24520   0.24521   0.28212   0.68010   0.68012
 Alpha virt. eigenvalues --    0.73129   0.84764   1.02797   1.02801   1.08110

 Mulliken charges:
               1
     1  C   -0.838436
     2  H    0.249493
     3  H    0.249507
     4  H    0.249493
     5  H    0.089944
 Sum of Mulliken charges =   0.00000

 Dipole moment (field-independent basis, Debye):
    X=             -0.0990    Y=             -0.0000    Z=              0.0001  Tot=              0.0990
 Quadrupole moment (field-independent basis, Debye-Ang):
   XX=            -10.4580   YY=             -8.3499   ZZ=             -8.3507
   XY=              0.0001   XZ=             -0.0028   YZ=             -0.0000

 Normal termination of Gaussian 16 at Fri Sep 22 17:09:56 2023.
