 Gaussian 16, Revision A.03,
 Gaussian 16:  ES64L-G16RevA.03 25-Dec-2016

 ------------------------------------------------------------------
 # 6-31+g(d) scrf=(solvent=water,pcm) int=ultrafine m062x scf=tight
 ------------------------------------------------------------------

 -----------------------
 tmpdir/M1_conf_28_1.gjf
 -----------------------
 Symbolic Z-matrix:
 Charge =  0 Multiplicity = 1

                         Standard orientation:
 ---------------------------------------------------------------------
 Center     Atomic      Atomic             Coordinates (Angstroms)
 Number     Number       Type             X           Y           Z
 ---------------------------------------------------------------------
      1          6           0        0.017676    0.000004    0.000010
      2          1           0        0.348533   -0.863491   -0.565157
      3          1           0        0.347063   -0.057846    1.030824
      4          1           0        0.348069    0.921549   -0.464847
      5          1           0       -1.149721   -0.000234   -0.000881
 ---------------------------------------------------------------------

 SCF Done:  E(RM062X) =  -40.4804312242     A.U. after    9 cycles

 The electronic state is 1-A.
 Alpha  occ. eigenvalues --  -10.53177  -0.78209  -0.46145  -0.46145  -0.43801
 Alpha virt. eigenvalues --    0.03925   0.07138   0.07138   0.07381   0.20865
 Alpha virt. eigenvalues --    0.23502   0.23503   0.30729   0.68864   0.68865
 Alpha virt. eigenvalues --    0.70709   0.95973   1.00858   1.00859   1.10799

 Mulliken charges:
               1
     1  C   -0.828128
     2  H    0.212569
     3  H    0.212576
     4  H    0.212575
     5  H    0.190408
 Sum of Mulliken charges =  -0.00000

 Dipole moment (field-independent basis, Debye):
    X=              0.0309    Y=              0.0000    Z=              0.0001  Tot=              0.0309
 Quadrupole moment (field-independent basis, Debye-Ang):
   XX=             -8.6197   YY=             -8.4614   ZZ=             -8.4616
   XY=             -0.0001   XZ=             -0.0002   YZ=             -0.0000

 Normal termination of Gaussian 16 at Fri Sep 22 17:03:44 2023.
