 Gaussian 16, Revision A.03,
 Gaussian 16:  ES64L-G16RevA.03 25-Dec-2016

 ------------------------------------------------------------------
 # 6-31+g(d) scrf=(solvent=water,pcm) int=ultrafine m062x scf=tight
 ------------------------------------------------------------------

 -----------------------
 tmpdir/M1_conf_42_2.gjf
 -----------------------
 Symbolic Z-matrix:
 Charge =  0 Multiplicity = 1

                         Standard orientation:
 ---------------------------------------------------------------------
 Center     Atomic      Atomic             Coordinates (Angstroms)
 Number     Number       Type             X           Y           Z
 ---------------------------------------------------------------------
      1         17           0        0.000000    0.000000    0.079365
      2          1           0       -0.000000   -0.000000   -1.349203
 ---------------------------------------------------------------------

 SCF Done:  E(RM062X) =  -460.751890558     A.U. after    8 cycles

 The electronic state is 1-SG.
 Alpha  occ. eigenvalues -- -102.67923  -9.82556  -7.54967  -7.54288  -7.54288
 Alpha  occ. eigenvalues --   -0.92560  -0.51451  -0.39700  -0.39700
 Alpha virt. eigenvalues --    0.00772   0.07486   0.08622   0.08622   0.09026
 Alpha virt. eigenvalues --    0.58998   0.62479   0.63687   0.63687   0.80943
 Alpha virt. eigenvalues --    0.90700   0.90700   0.93231   0.93232   1.17704

 Mulliken charges:
               1
     1  Cl  -0.289595
     2  H    0.289595
 Sum of Mulliken charges =  -0.00000

 Dipole moment (field-independent basis, Debye):
    X=             -0.0000    Y=             -0.0000    Z=             -2.0065  Tot=              2.0065
 Quadrupole moment (field-independent basis, Debye-Ang):
   XX=            -14.3934   YY=            -14.3934   ZZ=             -9.7946
   XY=              0.0000   XZ=              0.0000   YZ=             -0.0000

 Normal termination of Gaussian 16 at Fri Sep 22 17:04:51 2023.
