 Gaussian 16, Revision A.03,
 Gaussian 16:  ES64L-G16RevA.03 25-Dec-2016

 ------------------------------------------------------------------
 # 6-31+g(d) scrf=(solvent=water,pcm) int=ultrafine m062x scf=tight
 ------------------------------------------------------------------

 -----------------------
 tmpdir/M1_conf_42_1.gjf
 -----------------------
 Symbolic Z-matrix:
 Charge =  0 Multiplicity = 1

                         Standard orientation:
 ---------------------------------------------------------------------
 Center     Atomic      Atomic             Coordinates (Angstroms)
 Number     Number       Type             X           Y           Z
 ---------------------------------------------------------------------
      1          6           0       -0.034453    0.000001    0.000174
      2          1           0       -0.329584    0.906994   -0.510356
      3          1           0       -0.317714   -0.009259    1.044137
      4          1           0       -0.329708   -0.897738   -0.526387
      5          1           0        1.183725   -0.000002   -0.008437
 ---------------------------------------------------------------------

 SCF Done:  E(RM062X) =  -40.4749160707     A.U. after    9 cycles

 The electronic state is 1-A.
 Alpha  occ. eigenvalues --  -10.53659  -0.77978  -0.46602  -0.46598  -0.42376
 Alpha virt. eigenvalues --    0.03870   0.07086   0.07086   0.07516   0.19165
 Alpha virt. eigenvalues --    0.23747   0.23748   0.30324   0.68710   0.68713
 Alpha virt. eigenvalues --    0.71462   0.93399   1.01430   1.01435   1.10361

 Mulliken charges:
               1
     1  C   -0.825397
     2  H    0.216256
     3  H    0.216255
     4  H    0.216255
     5  H    0.176632
 Sum of Mulliken charges =  -0.00000

 Dipole moment (field-independent basis, Debye):
    X=             -0.0412    Y=              0.0000    Z=              0.0008  Tot=              0.0412
 Quadrupole moment (field-independent basis, Debye-Ang):
   XX=             -8.8161   YY=             -8.4302   ZZ=             -8.4316
   XY=              0.0000   XZ=              0.0040   YZ=              0.0000

 Normal termination of Gaussian 16 at Fri Sep 22 17:04:53 2023.
