 Gaussian 16, Revision A.03,
 Gaussian 16:  ES64L-G16RevA.03 25-Dec-2016

 ------------------------------------------------------------------
 # 6-31+g(d) scrf=(solvent=water,pcm) int=ultrafine m062x scf=tight
 ------------------------------------------------------------------

 -----------------------
 tmpdir/M1_conf_51_1.gjf
 -----------------------
 Symbolic Z-matrix:
 Charge =  0 Multiplicity = 1

                         Standard orientation:
 ---------------------------------------------------------------------
 Center     Atomic      Atomic             Coordinates (Angstroms)
 Number     Number       Type             X           Y           Z
 ---------------------------------------------------------------------
      1          6           0       -0.050879    0.000003    0.000268
      2          1           0       -0.305405    0.918126   -0.508877
      3          1           0       -0.295155   -0.016571    1.052342
      4          1           0       -0.305679   -0.901521   -0.537593
      5          1           0        1.211512   -0.000054   -0.007477
 ---------------------------------------------------------------------

 SCF Done:  E(RM062X) =  -40.4682107870     A.U. after    9 cycles

 The electronic state is 1-A.
 Alpha  occ. eigenvalues --  -10.54082  -0.77837  -0.47027  -0.47025  -0.41120
 Alpha virt. eigenvalues --    0.03800   0.07039   0.07039   0.07639   0.17646
 Alpha virt. eigenvalues --    0.23968   0.23968   0.29955   0.68587   0.68589
 Alpha virt. eigenvalues --    0.71978   0.91386   1.01937   1.01940   1.10134

 Mulliken charges:
               1
     1  C   -0.824151
     2  H    0.220185
     3  H    0.220192
     4  H    0.220183
     5  H    0.163590
 Sum of Mulliken charges =  -0.00000

 Dipole moment (field-independent basis, Debye):
    X=             -0.0505    Y=              0.0000    Z=              0.0007  Tot=              0.0505
 Quadrupole moment (field-independent basis, Debye-Ang):
   XX=             -9.0219   YY=             -8.3986   ZZ=             -8.3995
   XY=              0.0000   XZ=              0.0050   YZ=             -0.0000

 Normal termination of Gaussian 16 at Fri Sep 22 17:05:38 2023.
