 Gaussian 16, Revision A.03,
 Gaussian 16:  ES64L-G16RevA.03 25-Dec-2016

 ------------------------------------------------------------------
 # 6-31+g(d) scrf=(solvent=water,pcm) int=ultrafine m062x scf=tight
 ------------------------------------------------------------------

 -----------------------
 tmpdir/M1_conf_99_1.gjf
 -----------------------
 Symbolic Z-matrix:
 Charge =  0 Multiplicity = 1

                         Standard orientation:
 ---------------------------------------------------------------------
 Center     Atomic      Atomic             Coordinates (Angstroms)
 Number     Number       Type             X           Y           Z
 ---------------------------------------------------------------------
      1          6           0        0.159226   -0.000004    0.000167
      2          1           0        0.125127   -0.916433   -0.564475
      3          1           0        0.123077   -0.030854    1.076024
      4          1           0        0.125135    0.947263   -0.511055
      5          1           0       -1.328697    0.000048   -0.001496
 ---------------------------------------------------------------------

 SCF Done:  E(RM062X) =  -40.4109792884     A.U. after    9 cycles

 The electronic state is 1-A.
 Alpha  occ. eigenvalues --  -10.56272  -0.78072  -0.48870  -0.48867  -0.35446
 Alpha virt. eigenvalues --    0.02506   0.06855   0.06856   0.08309   0.09909
 Alpha virt. eigenvalues --    0.24551   0.24553   0.28268   0.68042   0.68044
 Alpha virt. eigenvalues --    0.73151   0.84832   1.02906   1.02910   1.08227

 Mulliken charges:
               1
     1  C   -0.837793
     2  H    0.248096
     3  H    0.248109
     4  H    0.248092
     5  H    0.093497
 Sum of Mulliken charges =  -0.00000

 Dipole moment (field-independent basis, Debye):
    X=             -0.0749    Y=             -0.0000    Z=              0.0001  Tot=              0.0749
 Quadrupole moment (field-independent basis, Debye-Ang):
   XX=            -10.3865   YY=             -8.3377   ZZ=             -8.3385
   XY=              0.0001   XZ=             -0.0028   YZ=              0.0000

 Normal termination of Gaussian 16 at Fri Sep 22 17:09:41 2023.
