 Gaussian 16, Revision A.03,
 Gaussian 16:  ES64L-G16RevA.03 25-Dec-2016

 ------------------------------------------------------------------
 # 6-31+g(d) scrf=(solvent=water,pcm) int=ultrafine m062x scf=tight
 ------------------------------------------------------------------

 -----------------------
 tmpdir/M1_conf_56_1.gjf
 -----------------------
 Symbolic Z-matrix:
 Charge =  0 Multiplicity = 1

                         Standard orientation:
 ---------------------------------------------------------------------
 Center     Atomic      Atomic             Coordinates (Angstroms)
 Number     Number       Type             X           Y           Z
 ---------------------------------------------------------------------
      1          6           0       -0.060148    0.000002    0.000295
      2          1           0       -0.291008    0.922855   -0.509876
      3          1           0       -0.281973   -0.018403    1.056496
      4          1           0       -0.291215   -0.904447   -0.541750
      5          1           0        1.225086   -0.000015   -0.006640
 ---------------------------------------------------------------------

 SCF Done:  E(RM062X) =  -40.4640710338     A.U. after    9 cycles

 The electronic state is 1-A.
 Alpha  occ. eigenvalues --  -10.54301  -0.77789  -0.47256  -0.47255  -0.40468
 Alpha virt. eigenvalues --    0.03753   0.07015   0.07015   0.07704   0.16846
 Alpha virt. eigenvalues --    0.24083   0.24084   0.29760   0.68526   0.68527
 Alpha virt. eigenvalues --    0.72203   0.90411   1.02196   1.02197   1.10050

 Mulliken charges:
               1
     1  C   -0.824125
     2  H    0.222535
     3  H    0.222548
     4  H    0.222533
     5  H    0.156509
 Sum of Mulliken charges =   0.00000

 Dipole moment (field-independent basis, Debye):
    X=             -0.0540    Y=              0.0000    Z=              0.0006  Tot=              0.0540
 Quadrupole moment (field-independent basis, Debye-Ang):
   XX=             -9.1421   YY=             -8.3811   ZZ=             -8.3816
   XY=              0.0000   XZ=              0.0051   YZ=             -0.0000

 Normal termination of Gaussian 16 at Fri Sep 22 17:06:03 2023.
