 Gaussian 16, Revision A.03,
 Gaussian 16:  ES64L-G16RevA.03 25-Dec-2016

 ------------------------------------------------------------------
 # 6-31+g(d) scrf=(solvent=water,pcm) int=ultrafine m062x scf=tight
 ------------------------------------------------------------------

 -----------------------
 tmpdir/M1_conf_19_0.gjf
 -----------------------
 Symbolic Z-matrix:
 Charge = -1 Multiplicity = 1

                         Standard orientation:
 ---------------------------------------------------------------------
 Center     Atomic      Atomic             Coordinates (Angstroms)
 Number     Number       Type             X           Y           Z
 ---------------------------------------------------------------------
      1          7           0        0.000000    0.000000    0.542036
      2          6           0       -0.000000   -0.000000   -0.632376
 ---------------------------------------------------------------------

 SCF Done:  E(RM062X) =  -92.9322806627     A.U. after   10 cycles

 The electronic state is 1-SG.
 Alpha  occ. eigenvalues --  -14.69765 -10.49605  -0.93340  -0.43955  -0.34279
 Alpha  occ. eigenvalues --   -0.34279  -0.30676
 Alpha virt. eigenvalues --    0.04907   0.06840   0.06840   0.08736   0.14098
 Alpha virt. eigenvalues --    0.14098   0.16505   0.22750   0.22750   0.27845
 Alpha virt. eigenvalues --    0.52434   0.77410   0.77410   0.84211   1.00363

 Mulliken charges:
               1
     1  N   -0.668743
     2  C   -0.331257
 Sum of Mulliken charges =  -1.00000

 Dipole moment (field-independent basis, Debye):
    X=             -0.0000    Y=             -0.0000    Z=              0.4153  Tot=              0.4153
 Quadrupole moment (field-independent basis, Debye-Ang):
   XX=            -14.6401   YY=            -14.6401   ZZ=            -19.4967
   XY=              0.0000   XZ=             -0.0000   YZ=              0.0000

 Normal termination of Gaussian 16 at Fri Sep 22 17:02:58 2023.
