 Gaussian 16, Revision A.03,
 Gaussian 16:  ES64L-G16RevA.03 25-Dec-2016

 ------------------------------------------------------------------
 # 6-31+g(d) scrf=(solvent=water,pcm) int=ultrafine m062x scf=tight
 ------------------------------------------------------------------

 -----------------------
 tmpdir/M1_conf_82_1.gjf
 -----------------------
 Symbolic Z-matrix:
 Charge =  0 Multiplicity = 1

                         Standard orientation:
 ---------------------------------------------------------------------
 Center     Atomic      Atomic             Coordinates (Angstroms)
 Number     Number       Type             X           Y           Z
 ---------------------------------------------------------------------
      1          6           0        0.116793   -0.000012    0.000220
      2          1           0        0.196995   -0.912612   -0.565712
      3          1           0        0.193711   -0.034021    1.073700
      4          1           0        0.197090    0.946562   -0.506831
      5          1           0       -1.288551    0.000140   -0.002477
 ---------------------------------------------------------------------

 SCF Done:  E(RM062X) =  -40.4352668338     A.U. after    9 cycles

 The electronic state is 1-A.
 Alpha  occ. eigenvalues --  -10.55488  -0.77812  -0.48387  -0.48387  -0.37200
 Alpha virt. eigenvalues --    0.03275   0.06900   0.06900   0.08065   0.12557
 Alpha virt. eigenvalues --    0.24548   0.24548   0.28764   0.68236   0.68237
 Alpha virt. eigenvalues --    0.73033   0.86176   1.03108   1.03109   1.09174

 Mulliken charges:
               1
     1  C   -0.831371
     2  H    0.237852
     3  H    0.237862
     4  H    0.237849
     5  H    0.117808
 Sum of Mulliken charges =  -0.00000

 Dipole moment (field-independent basis, Debye):
    X=              0.0232    Y=             -0.0000    Z=              0.0002  Tot=              0.0232
 Quadrupole moment (field-independent basis, Debye-Ang):
   XX=             -9.8877   YY=             -8.3123   ZZ=             -8.3126
   XY=              0.0002   XZ=             -0.0036   YZ=             -0.0000

 Normal termination of Gaussian 16 at Fri Sep 22 17:08:12 2023.
