 Gaussian 16, Revision A.03,
 Gaussian 16:  ES64L-G16RevA.03 25-Dec-2016

 ------------------------------------------------------------------
 # 6-31+g(d) scrf=(solvent=water,pcm) int=ultrafine m062x scf=tight
 ------------------------------------------------------------------

 ----------------------
 tmpdir/M1_conf_3_1.gjf
 ----------------------
 Symbolic Z-matrix:
 Charge =  0 Multiplicity = 1

                         Standard orientation:
 ---------------------------------------------------------------------
 Center     Atomic      Atomic             Coordinates (Angstroms)
 Number     Number       Type             X           Y           Z
 ---------------------------------------------------------------------
      1          6           0       -0.014572    0.000001   -0.000008
      2          1           0       -0.351630    0.916648   -0.472851
      3          1           0       -0.356797   -0.049714    1.028404
      4          1           0       -0.351647   -0.866756   -0.559055
      5          1           0        1.147507   -0.000182    0.003549
 ---------------------------------------------------------------------

 SCF Done:  E(RM062X) =  -40.4809354439     A.U. after    9 cycles

 The electronic state is 1-A.
 Alpha  occ. eigenvalues --  -10.53161  -0.78208  -0.46036  -0.46035  -0.44025
 Alpha virt. eigenvalues --    0.03928   0.07147   0.07148   0.07361   0.21072
 Alpha virt. eigenvalues --    0.23417   0.23418   0.30747   0.68908   0.68910
 Alpha virt. eigenvalues --    0.70622   0.96368   1.00658   1.00661   1.10790

 Mulliken charges:
               1
     1  C   -0.828114
     2  H    0.211973
     3  H    0.211995
     4  H    0.211969
     5  H    0.192177
 Sum of Mulliken charges =  -0.00000

 Dipole moment (field-independent basis, Debye):
    X=             -0.0349    Y=              0.0000    Z=             -0.0002  Tot=              0.0349
 Quadrupole moment (field-independent basis, Debye-Ang):
   XX=             -8.5849   YY=             -8.4755   ZZ=             -8.4756
   XY=              0.0001   XZ=             -0.0010   YZ=             -0.0000

 Normal termination of Gaussian 16 at Fri Sep 22 17:01:42 2023.
