 Gaussian 16, Revision A.03,
 Gaussian 16:  ES64L-G16RevA.03 25-Dec-2016

 ------------------------------------------------------------------
 # 6-31+g(d) scrf=(solvent=water,pcm) int=ultrafine m062x scf=tight
 ------------------------------------------------------------------

 -----------------------
 tmpdir/M1_conf_45_1.gjf
 -----------------------
 Symbolic Z-matrix:
 Charge =  0 Multiplicity = 1

                         Standard orientation:
 ---------------------------------------------------------------------
 Center     Atomic      Atomic             Coordinates (Angstroms)
 Number     Number       Type             X           Y           Z
 ---------------------------------------------------------------------
      1          6           0       -0.039054    0.000003    0.000204
      2          1           0       -0.322983    0.910377   -0.509689
      3          1           0       -0.311523   -0.011629    1.046540
      4          1           0       -0.323216   -0.898711   -0.529847
      5          1           0        1.192047   -0.000053   -0.008226
 ---------------------------------------------------------------------

 SCF Done:  E(RM062X) =  -40.4731359732     A.U. after    9 cycles

 The electronic state is 1-A.
 Alpha  occ. eigenvalues --  -10.53782  -0.77931  -0.46723  -0.46720  -0.42011
 Alpha virt. eigenvalues --    0.03852   0.07072   0.07072   0.07551   0.18725
 Alpha virt. eigenvalues --    0.23810   0.23812   0.30217   0.68673   0.68676
 Alpha virt. eigenvalues --    0.71625   0.92792   1.01577   1.01582   1.10281

 Mulliken charges:
               1
     1  C   -0.824891
     2  H    0.217325
     3  H    0.217325
     4  H    0.217323
     5  H    0.172919
 Sum of Mulliken charges =   0.00000

 Dipole moment (field-independent basis, Debye):
    X=             -0.0441    Y=              0.0000    Z=              0.0008  Tot=              0.0441
 Quadrupole moment (field-independent basis, Debye-Ang):
   XX=             -8.8727   YY=             -8.4215   ZZ=             -8.4228
   XY=              0.0000   XZ=              0.0044   YZ=             -0.0000

 Normal termination of Gaussian 16 at Fri Sep 22 17:05:08 2023.
