 Gaussian 16, Revision A.03,
 Gaussian 16:  ES64L-G16RevA.03 25-Dec-2016

 ------------------------------------------------------------------
 # 6-31+g(d) scrf=(solvent=water,pcm) int=ultrafine m062x scf=tight
 ------------------------------------------------------------------

 -----------------------
 tmpdir/M1_conf_98_1.gjf
 -----------------------
 Symbolic Z-matrix:
 Charge =  0 Multiplicity = 1

                         Standard orientation:
 ---------------------------------------------------------------------
 Center     Atomic      Atomic             Coordinates (Angstroms)
 Number     Number       Type             X           Y           Z
 ---------------------------------------------------------------------
      1          6           0        0.154504   -0.000005    0.000171
      2          1           0        0.133134   -0.913777   -0.569207
      3          1           0        0.130988   -0.036293    1.076125
      4          1           0        0.133142    0.950041   -0.506370
      5          1           0       -1.324285    0.000058   -0.001572
 ---------------------------------------------------------------------

 SCF Done:  E(RM062X) =  -40.4137485144     A.U. after    9 cycles

 The electronic state is 1-A.
 Alpha  occ. eigenvalues --  -10.56190  -0.78035  -0.48834  -0.48831  -0.35613
 Alpha virt. eigenvalues --    0.02620   0.06858   0.06859   0.08283   0.10171
 Alpha virt. eigenvalues --    0.24566   0.24568   0.28310   0.68063   0.68065
 Alpha virt. eigenvalues --    0.73160   0.84902   1.02966   1.02970   1.08315

 Mulliken charges:
               1
     1  C   -0.837274
     2  H    0.247102
     3  H    0.247114
     4  H    0.247096
     5  H    0.095961
 Sum of Mulliken charges =  -0.00000

 Dipole moment (field-independent basis, Debye):
    X=             -0.0601    Y=             -0.0000    Z=              0.0001  Tot=              0.0601
 Quadrupole moment (field-independent basis, Debye-Ang):
   XX=            -10.3364   YY=             -8.3309   ZZ=             -8.3316
   XY=              0.0001   XZ=             -0.0029   YZ=              0.0000

 Normal termination of Gaussian 16 at Fri Sep 22 17:09:36 2023.
