 Gaussian 16, Revision A.03,
 Gaussian 16:  ES64L-G16RevA.03 25-Dec-2016

 ------------------------------------------------------------------
 # 6-31+g(d) scrf=(solvent=water,pcm) int=ultrafine m062x scf=tight
 ------------------------------------------------------------------

 ------------------------
 tmpdir/M1_conf_112_1.gjf
 ------------------------
 Symbolic Z-matrix:
 Charge =  0 Multiplicity = 1

                         Standard orientation:
 ---------------------------------------------------------------------
 Center     Atomic      Atomic             Coordinates (Angstroms)
 Number     Number       Type             X           Y           Z
 ---------------------------------------------------------------------
      1          6           0        0.189487   -0.000003    0.000164
      2          1           0        0.074108   -0.923066   -0.544668
      3          1           0        0.072349   -0.010332    1.071716
      4          1           0        0.074135    0.933388   -0.526781
      5          1           0       -1.357517    0.000028   -0.001248
 ---------------------------------------------------------------------

 SCF Done:  E(RM062X) =  -40.3929851901     A.U. after    9 cycles

 The electronic state is 1-A.
 Alpha  occ. eigenvalues --  -10.56763  -0.78345  -0.48985  -0.48983  -0.34551
 Alpha virt. eigenvalues --    0.01564   0.06848   0.06848   0.08380   0.08572
 Alpha virt. eigenvalues --    0.24350   0.24353   0.28082   0.67912   0.67914
 Alpha virt. eigenvalues --    0.72990   0.84833   1.02292   1.02298   1.07884

 Mulliken charges:
               1
     1  C   -0.839206
     2  H    0.253234
     3  H    0.253238
     4  H    0.253236
     5  H    0.079498
 Sum of Mulliken charges =  -0.00000

 Dipole moment (field-independent basis, Debye):
    X=             -0.1945    Y=              0.0000    Z=             -0.0001  Tot=              0.1945
 Quadrupole moment (field-independent basis, Debye-Ang):
   XX=            -10.6601   YY=             -8.4073   ZZ=             -8.4084
   XY=              0.0001   XZ=             -0.0028   YZ=             -0.0000

 Normal termination of Gaussian 16 at Fri Sep 22 17:10:46 2023.
