 Gaussian 16, Revision A.03,
 Gaussian 16:  ES64L-G16RevA.03 25-Dec-2016

 ------------------------------------------------------------------
 # 6-31+g(d) scrf=(solvent=water,pcm) int=ultrafine m062x scf=tight
 ------------------------------------------------------------------

 -----------------------
 tmpdir/M1_conf_61_1.gjf
 -----------------------
 Symbolic Z-matrix:
 Charge =  0 Multiplicity = 1

                         Standard orientation:
 ---------------------------------------------------------------------
 Center     Atomic      Atomic             Coordinates (Angstroms)
 Number     Number       Type             X           Y           Z
 ---------------------------------------------------------------------
      1          6           0       -0.070065    0.000002    0.000288
      2          1           0       -0.274980    0.923923   -0.517377
      3          1           0       -0.267699   -0.012804    1.060606
      4          1           0       -0.275138   -0.911098   -0.539564
      5          1           0        1.238209   -0.000036   -0.005394
 ---------------------------------------------------------------------

 SCF Done:  E(RM062X) =  -40.4594306212     A.U. after    9 cycles

 The electronic state is 1-A.
 Alpha  occ. eigenvalues --  -10.54524  -0.77758  -0.47490  -0.47489  -0.39811
 Alpha virt. eigenvalues --    0.03695   0.06991   0.06991   0.07772   0.16030
 Alpha virt. eigenvalues --    0.24197   0.24198   0.29562   0.68466   0.68467
 Alpha virt. eigenvalues --    0.72407   0.89468   1.02444   1.02446   1.09963

 Mulliken charges:
               1
     1  C   -0.824604
     2  H    0.225135
     3  H    0.225153
     4  H    0.225133
     5  H    0.149183
 Sum of Mulliken charges =  -0.00000

 Dipole moment (field-independent basis, Debye):
    X=             -0.0556    Y=              0.0000    Z=              0.0005  Tot=              0.0556
 Quadrupole moment (field-independent basis, Debye-Ang):
   XX=             -9.2726   YY=             -8.3633   ZZ=             -8.3635
   XY=              0.0000   XZ=              0.0048   YZ=             -0.0000

 Normal termination of Gaussian 16 at Fri Sep 22 17:06:28 2023.
