 Gaussian 16, Revision A.03,
 Gaussian 16:  ES64L-G16RevA.03 25-Dec-2016

 ------------------------------------------------------------------
 # 6-31+g(d) scrf=(solvent=water,pcm) int=ultrafine m062x scf=tight
 ------------------------------------------------------------------

 -----------------------
 tmpdir/M1_conf_62_1.gjf
 -----------------------
 Symbolic Z-matrix:
 Charge =  0 Multiplicity = 1

                         Standard orientation:
 ---------------------------------------------------------------------
 Center     Atomic      Atomic             Coordinates (Angstroms)
 Number     Number       Type             X           Y           Z
 ---------------------------------------------------------------------
      1          6           0       -0.072122    0.000003    0.000282
      2          1           0       -0.271589    0.923196   -0.520505
      3          1           0       -0.264708   -0.009801    1.061418
      4          1           0       -0.271746   -0.913362   -0.537499
      5          1           0        1.240776   -0.000053   -0.005108
 ---------------------------------------------------------------------

 SCF Done:  E(RM062X) =  -40.4584437793     A.U. after    9 cycles

 The electronic state is 1-A.
 Alpha  occ. eigenvalues --  -10.54570  -0.77754  -0.47536  -0.47536  -0.39679
 Alpha virt. eigenvalues --    0.03682   0.06986   0.06986   0.07785   0.15865
 Alpha virt. eigenvalues --    0.24219   0.24220   0.29523   0.68455   0.68456
 Alpha virt. eigenvalues --    0.72445   0.89284   1.02492   1.02493   1.09944

 Mulliken charges:
               1
     1  C   -0.824763
     2  H    0.225684
     3  H    0.225702
     4  H    0.225682
     5  H    0.147696
 Sum of Mulliken charges =   0.00000

 Dipole moment (field-independent basis, Debye):
    X=             -0.0556    Y=              0.0000    Z=              0.0004  Tot=              0.0556
 Quadrupole moment (field-independent basis, Debye-Ang):
   XX=             -9.2999   YY=             -8.3598   ZZ=             -8.3600
   XY=              0.0000   XZ=              0.0046   YZ=             -0.0000

 Normal termination of Gaussian 16 at Fri Sep 22 17:06:33 2023.
