 Gaussian 16, Revision A.03,
 Gaussian 16:  ES64L-G16RevA.03 25-Dec-2016

 ------------------------------------------------------------------
 # 6-31+g(d) scrf=(solvent=water,pcm) int=ultrafine m062x scf=tight
 ------------------------------------------------------------------

 -----------------------
 tmpdir/M1_conf_35_1.gjf
 -----------------------
 Symbolic Z-matrix:
 Charge =  0 Multiplicity = 1

                         Standard orientation:
 ---------------------------------------------------------------------
 Center     Atomic      Atomic             Coordinates (Angstroms)
 Number     Number       Type             X           Y           Z
 ---------------------------------------------------------------------
      1          6           0       -0.025111   -0.000004    0.000097
      2          1           0       -0.342023    0.897801   -0.515669
      3          1           0       -0.330954   -0.000249    1.038747
      4          1           0       -0.341735   -0.897709   -0.516011
      5          1           0        1.165377    0.000178   -0.007652
 ---------------------------------------------------------------------

 SCF Done:  E(RM062X) =  -40.4782196521     A.U. after    9 cycles

 The electronic state is 1-A.
 Alpha  occ. eigenvalues --  -10.53394  -0.78097  -0.46351  -0.46348  -0.43153
 Alpha virt. eigenvalues --    0.03903   0.07114   0.07114   0.07442   0.20097
 Alpha virt. eigenvalues --    0.23614   0.23616   0.30549   0.68791   0.68793
 Alpha virt. eigenvalues --    0.71074   0.94758   1.01121   1.01126   1.10577

 Mulliken charges:
               1
     1  C   -0.826783
     2  H    0.214163
     3  H    0.214159
     4  H    0.214163
     5  H    0.184298
 Sum of Mulliken charges =  -0.00000

 Dipole moment (field-independent basis, Debye):
    X=             -0.0351    Y=             -0.0000    Z=              0.0006  Tot=              0.0351
 Quadrupole moment (field-independent basis, Debye-Ang):
   XX=             -8.7046   YY=             -8.4475   ZZ=             -8.4487
   XY=             -0.0001   XZ=              0.0028   YZ=              0.0000

 Normal termination of Gaussian 16 at Fri Sep 22 17:04:19 2023.
