 Gaussian 16, Revision A.03,
 Gaussian 16:  ES64L-G16RevA.03 25-Dec-2016

 ------------------------------------------------------------------
 # 6-31+g(d) scrf=(solvent=water,pcm) int=ultrafine m062x scf=tight
 ------------------------------------------------------------------

 -----------------------
 tmpdir/M1_conf_59_2.gjf
 -----------------------
 Symbolic Z-matrix:
 Charge =  0 Multiplicity = 1

                         Standard orientation:
 ---------------------------------------------------------------------
 Center     Atomic      Atomic             Coordinates (Angstroms)
 Number     Number       Type             X           Y           Z
 ---------------------------------------------------------------------
      1         17           0        0.000000    0.000000    0.084632
      2          1           0        0.000000   -0.000000   -1.438744
 ---------------------------------------------------------------------

 SCF Done:  E(RM062X) =  -460.739469438     A.U. after    8 cycles

 The electronic state is 1-SG.
 Alpha  occ. eigenvalues -- -102.68186  -9.82689  -7.55105  -7.54416  -7.54416
 Alpha  occ. eigenvalues --   -0.91635  -0.49941  -0.39542  -0.39542
 Alpha virt. eigenvalues --   -0.01529   0.07024   0.08612   0.08612   0.08907
 Alpha virt. eigenvalues --    0.58782   0.62544   0.63728   0.63728   0.84252
 Alpha virt. eigenvalues --    0.91078   0.91078   0.93356   0.93358   1.10877

 Mulliken charges:
               1
     1  Cl  -0.296740
     2  H    0.296740
 Sum of Mulliken charges =   0.00000

 Dipole moment (field-independent basis, Debye):
    X=              0.0000    Y=             -0.0000    Z=             -2.1456  Tot=              2.1456
 Quadrupole moment (field-independent basis, Debye-Ang):
   XX=            -14.5043   YY=            -14.5043   ZZ=             -9.4417
   XY=              0.0000   XZ=             -0.0000   YZ=             -0.0000

 Normal termination of Gaussian 16 at Fri Sep 22 17:06:15 2023.
