 Gaussian 16, Revision A.03,
 Gaussian 16:  ES64L-G16RevA.03 25-Dec-2016

 ------------------------------------------------------------------
 # 6-31+g(d) scrf=(solvent=water,pcm) int=ultrafine m062x scf=tight
 ------------------------------------------------------------------

 -----------------------
 tmpdir/M1_conf_96_1.gjf
 -----------------------
 Symbolic Z-matrix:
 Charge =  0 Multiplicity = 1

                         Standard orientation:
 ---------------------------------------------------------------------
 Center     Atomic      Atomic             Coordinates (Angstroms)
 Number     Number       Type             X           Y           Z
 ---------------------------------------------------------------------
      1          6           0        0.149777   -0.000005    0.000176
      2          1           0        0.141155   -0.913008   -0.570636
      3          1           0        0.138890   -0.037929    1.076210
      4          1           0        0.141161    0.950905   -0.504967
      5          1           0       -1.319867    0.000062   -0.001664
 ---------------------------------------------------------------------

 SCF Done:  E(RM062X) =  -40.4165073533     A.U. after    9 cycles

 The electronic state is 1-A.
 Alpha  occ. eigenvalues --  -10.56106  -0.78000  -0.48793  -0.48791  -0.35787
 Alpha virt. eigenvalues --    0.02725   0.06862   0.06862   0.08257   0.10442
 Alpha virt. eigenvalues --    0.24578   0.24580   0.28356   0.68085   0.68087
 Alpha virt. eigenvalues --    0.73164   0.84992   1.03017   1.03021   1.08410

 Mulliken charges:
               1
     1  C   -0.836689
     2  H    0.246063
     3  H    0.246074
     4  H    0.246056
     5  H    0.098496
 Sum of Mulliken charges =  -0.00000

 Dipole moment (field-independent basis, Debye):
    X=             -0.0463    Y=             -0.0000    Z=              0.0001  Tot=              0.0463
 Quadrupole moment (field-independent basis, Debye-Ang):
   XX=            -10.2846   YY=             -8.3251   ZZ=             -8.3258
   XY=              0.0001   XZ=             -0.0030   YZ=              0.0000

 Normal termination of Gaussian 16 at Fri Sep 22 17:09:26 2023.
