 Gaussian 16, Revision A.03,
 Gaussian 16:  ES64L-G16RevA.03 25-Dec-2016

 ------------------------------------------------------------------
 # 6-31+g(d) scrf=(solvent=water,pcm) int=ultrafine m062x scf=tight
 ------------------------------------------------------------------

 ----------------------
 tmpdir/M1_conf_5_1.gjf
 ----------------------
 Symbolic Z-matrix:
 Charge =  0 Multiplicity = 1

                         Standard orientation:
 ---------------------------------------------------------------------
 Center     Atomic      Atomic             Coordinates (Angstroms)
 Number     Number       Type             X           Y           Z
 ---------------------------------------------------------------------
      1          6           0       -0.014628   -0.000000    0.000003
      2          1           0       -0.351874    0.940154   -0.423856
      3          1           0       -0.355888   -0.103650    1.024636
      4          1           0       -0.351870   -0.836227   -0.603538
      5          1           0        1.147399   -0.000275    0.002741
 ---------------------------------------------------------------------

 SCF Done:  E(RM062X) =  -40.4809362299     A.U. after    9 cycles

 The electronic state is 1-A.
 Alpha  occ. eigenvalues --  -10.53158  -0.78210  -0.46039  -0.46037  -0.44023
 Alpha virt. eigenvalues --    0.03928   0.07147   0.07148   0.07361   0.21072
 Alpha virt. eigenvalues --    0.23420   0.23421   0.30749   0.68906   0.68908
 Alpha virt. eigenvalues --    0.70621   0.96366   1.00664   1.00669   1.10795

 Mulliken charges:
               1
     1  C   -0.828128
     2  H    0.211984
     3  H    0.212004
     4  H    0.211971
     5  H    0.192169
 Sum of Mulliken charges =   0.00000

 Dipole moment (field-independent basis, Debye):
    X=             -0.0347    Y=              0.0001    Z=             -0.0002  Tot=              0.0347
 Quadrupole moment (field-independent basis, Debye-Ang):
   XX=             -8.5855   YY=             -8.4750   ZZ=             -8.4749
   XY=              0.0001   XZ=             -0.0008   YZ=             -0.0000

 Normal termination of Gaussian 16 at Fri Sep 22 17:01:52 2023.
