 Gaussian 16, Revision A.03,
 Gaussian 16:  ES64L-G16RevA.03 25-Dec-2016

 ------------------------------------------------------------------
 # 6-31+g(d) scrf=(solvent=water,pcm) int=ultrafine m062x scf=tight
 ------------------------------------------------------------------

 -----------------------
 tmpdir/M1_conf_77_1.gjf
 -----------------------
 Symbolic Z-matrix:
 Charge =  0 Multiplicity = 1

                         Standard orientation:
 ---------------------------------------------------------------------
 Center     Atomic      Atomic             Coordinates (Angstroms)
 Number     Number       Type             X           Y           Z
 ---------------------------------------------------------------------
      1          6           0        0.105183   -0.000015    0.000209
      2          1           0        0.216418   -0.907301   -0.569445
      3          1           0        0.213036   -0.039958    1.071056
      4          1           0        0.216564    0.947158   -0.500297
      5          1           0       -1.277114    0.000190   -0.002568
 ---------------------------------------------------------------------

 SCF Done:  E(RM062X) =  -40.4415818467     A.U. after    9 cycles

 The electronic state is 1-A.
 Alpha  occ. eigenvalues --  -10.55258  -0.77772  -0.48198  -0.48198  -0.37780
 Alpha virt. eigenvalues --    0.03409   0.06919   0.06919   0.07995   0.13372
 Alpha virt. eigenvalues --    0.24492   0.24493   0.28940   0.68289   0.68290
 Alpha virt. eigenvalues --    0.72922   0.86822   1.03028   1.03030   1.09432

 Mulliken charges:
               1
     1  C   -0.829308
     2  H    0.234708
     3  H    0.234721
     4  H    0.234710
     5  H    0.125168
 Sum of Mulliken charges =  -0.00000

 Dipole moment (field-independent basis, Debye):
    X=              0.0380    Y=              0.0000    Z=              0.0002  Tot=              0.0380
 Quadrupole moment (field-independent basis, Debye-Ang):
   XX=             -9.7377   YY=             -8.3184   ZZ=             -8.3186
   XY=              0.0002   XZ=             -0.0033   YZ=             -0.0000

 Normal termination of Gaussian 16 at Fri Sep 22 17:07:48 2023.
