 Gaussian 16, Revision A.03,
 Gaussian 16:  ES64L-G16RevA.03 25-Dec-2016

 ------------------------------------------------------------------
 # 6-31+g(d) scrf=(solvent=water,pcm) int=ultrafine m062x scf=tight
 ------------------------------------------------------------------

 -----------------------
 tmpdir/M1_conf_12_1.gjf
 -----------------------
 Symbolic Z-matrix:
 Charge =  0 Multiplicity = 1

                         Standard orientation:
 ---------------------------------------------------------------------
 Center     Atomic      Atomic             Coordinates (Angstroms)
 Number     Number       Type             X           Y           Z
 ---------------------------------------------------------------------
      1          6           0       -0.014956    0.000016    0.000000
      2          1           0       -0.351343   -0.558484   -0.866857
      3          1           0       -0.354566    1.028898   -0.049413
      4          1           0       -0.351151   -0.472763    0.916494
      5          1           0        1.146795    0.002252   -0.000224
 ---------------------------------------------------------------------

 SCF Done:  E(RM062X) =  -40.4809381477     A.U. after    9 cycles

 The electronic state is 1-A.
 Alpha  occ. eigenvalues --  -10.53145  -0.78221  -0.46057  -0.46053  -0.44009
 Alpha virt. eigenvalues --    0.03929   0.07146   0.07147   0.07362   0.21073
 Alpha virt. eigenvalues --    0.23436   0.23439   0.30759   0.68899   0.68900
 Alpha virt. eigenvalues --    0.70616   0.96351   1.00702   1.00709   1.10818

 Mulliken charges:
               1
     1  C   -0.828260
     2  H    0.212037
     3  H    0.212060
     4  H    0.212043
     5  H    0.192119
 Sum of Mulliken charges =  -0.00000

 Dipole moment (field-independent basis, Debye):
    X=             -0.0333    Y=             -0.0002    Z=              0.0001  Tot=              0.0333
 Quadrupole moment (field-independent basis, Debye-Ang):
   XX=             -8.5891   YY=             -8.4716   ZZ=             -8.4722
   XY=             -0.0006   XZ=              0.0001   YZ=             -0.0000

 Normal termination of Gaussian 16 at Fri Sep 22 17:02:26 2023.
