 Gaussian 16, Revision A.03,
 Gaussian 16:  ES64L-G16RevA.03 25-Dec-2016

 ------------------------------------------------------------------
 # 6-31+g(d) scrf=(solvent=water,pcm) int=ultrafine m062x scf=tight
 ------------------------------------------------------------------

 -----------------------
 tmpdir/M1_conf_86_1.gjf
 -----------------------
 Symbolic Z-matrix:
 Charge =  0 Multiplicity = 1

                         Standard orientation:
 ---------------------------------------------------------------------
 Center     Atomic      Atomic             Coordinates (Angstroms)
 Number     Number       Type             X           Y           Z
 ---------------------------------------------------------------------
      1          6           0        0.126174   -0.000010    0.000206
      2          1           0        0.181140   -0.909927   -0.572819
      3          1           0        0.178206   -0.041463    1.074822
      4          1           0        0.181194    0.951330   -0.501044
      5          1           0       -1.297582    0.000120   -0.002197
 ---------------------------------------------------------------------

 SCF Done:  E(RM062X) =  -40.4300394044     A.U. after    9 cycles

 The electronic state is 1-A.
 Alpha  occ. eigenvalues --  -10.55669  -0.77854  -0.48523  -0.48522  -0.36763
 Alpha virt. eigenvalues --    0.03148   0.06887   0.06887   0.08121   0.11922
 Alpha virt. eigenvalues --    0.24576   0.24576   0.28633   0.68193   0.68195
 Alpha virt. eigenvalues --    0.73098   0.85740   1.03131   1.03132   1.08952

 Mulliken charges:
               1
     1  C   -0.833030
     2  H    0.240323
     3  H    0.240332
     4  H    0.240316
     5  H    0.112060
 Sum of Mulliken charges =  -0.00000

 Dipole moment (field-independent basis, Debye):
    X=              0.0078    Y=             -0.0000    Z=              0.0002  Tot=              0.0078
 Quadrupole moment (field-independent basis, Debye-Ang):
   XX=            -10.0057   YY=             -8.3112   ZZ=             -8.3117
   XY=              0.0002   XZ=             -0.0034   YZ=             -0.0000

 Normal termination of Gaussian 16 at Fri Sep 22 17:08:32 2023.
