 Gaussian 16, Revision A.03,
 Gaussian 16:  ES64L-G16RevA.03 25-Dec-2016

 ------------------------------------------------------------------
 # 6-31+g(d) scrf=(solvent=water,pcm) int=ultrafine m062x scf=tight
 ------------------------------------------------------------------

 -----------------------
 tmpdir/M1_conf_15_1.gjf
 -----------------------
 Symbolic Z-matrix:
 Charge =  0 Multiplicity = 1

                         Standard orientation:
 ---------------------------------------------------------------------
 Center     Atomic      Atomic             Coordinates (Angstroms)
 Number     Number       Type             X           Y           Z
 ---------------------------------------------------------------------
      1          6           0       -0.015110    0.000003    0.000001
      2          1           0       -0.350355   -0.538800   -0.879508
      3          1           0       -0.355460    1.029383   -0.025676
      4          1           0       -0.350101   -0.494190    0.905419
      5          1           0        1.146575    0.003591   -0.000244
 ---------------------------------------------------------------------

 SCF Done:  E(RM062X) =  -40.4809349835     A.U. after    9 cycles

 The electronic state is 1-A.
 Alpha  occ. eigenvalues --  -10.53140  -0.78225  -0.46064  -0.46060  -0.44002
 Alpha virt. eigenvalues --    0.03929   0.07146   0.07146   0.07363   0.21071
 Alpha virt. eigenvalues --    0.23443   0.23445   0.30762   0.68896   0.68897
 Alpha virt. eigenvalues --    0.70614   0.96342   1.00718   1.00724   1.10827

 Mulliken charges:
               1
     1  C   -0.828307
     2  H    0.212067
     3  H    0.212084
     4  H    0.212070
     5  H    0.192086
 Sum of Mulliken charges =  -0.00000

 Dipole moment (field-independent basis, Debye):
    X=             -0.0327    Y=             -0.0003    Z=              0.0000  Tot=              0.0327
 Quadrupole moment (field-independent basis, Debye-Ang):
   XX=             -8.5908   YY=             -8.4703   ZZ=             -8.4709
   XY=             -0.0010   XZ=              0.0001   YZ=             -0.0000

 Normal termination of Gaussian 16 at Fri Sep 22 17:02:41 2023.
