 Gaussian 16, Revision A.03,
 Gaussian 16:  ES64L-G16RevA.03 25-Dec-2016

 ------------------------------------------------------------------
 # 6-31+g(d) scrf=(solvent=water,pcm) int=ultrafine m062x scf=tight
 ------------------------------------------------------------------

 -----------------------
 tmpdir/M1_conf_34_1.gjf
 -----------------------
 Symbolic Z-matrix:
 Charge =  0 Multiplicity = 1

                         Standard orientation:
 ---------------------------------------------------------------------
 Center     Atomic      Atomic             Coordinates (Angstroms)
 Number     Number       Type             X           Y           Z
 ---------------------------------------------------------------------
      1          6           0        0.022913    0.000004    0.000075
      2          1           0        0.344509   -0.895585   -0.517158
      3          1           0        0.334667   -0.001892    1.037229
      4          1           0        0.344127    0.897673   -0.513771
      5          1           0       -1.160782   -0.000220   -0.006747
 ---------------------------------------------------------------------

 SCF Done:  E(RM062X) =  -40.4789217613     A.U. after    9 cycles

 The electronic state is 1-A.
 Alpha  occ. eigenvalues --  -10.53329  -0.78129  -0.46291  -0.46288  -0.43343
 Alpha virt. eigenvalues --    0.03910   0.07121   0.07121   0.07424   0.20324
 Alpha virt. eigenvalues --    0.23583   0.23583   0.30603   0.68811   0.68813
 Alpha virt. eigenvalues --    0.70970   0.95106   1.01046   1.01050   1.10639

 Mulliken charges:
               1
     1  C   -0.827172
     2  H    0.213686
     3  H    0.213683
     4  H    0.213687
     5  H    0.186116
 Sum of Mulliken charges =  -0.00000

 Dipole moment (field-independent basis, Debye):
    X=              0.0337    Y=              0.0000    Z=              0.0006  Tot=              0.0337
 Quadrupole moment (field-independent basis, Debye-Ang):
   XX=             -8.6791   YY=             -8.4515   ZZ=             -8.4525
   XY=             -0.0001   XZ=             -0.0023   YZ=             -0.0000

 Normal termination of Gaussian 16 at Fri Sep 22 17:04:14 2023.
