 Gaussian 16, Revision A.03,
 Gaussian 16:  ES64L-G16RevA.03 25-Dec-2016

 ------------------------------------------------------------------
 # 6-31+g(d) scrf=(solvent=water,pcm) int=ultrafine m062x scf=tight
 ------------------------------------------------------------------

 -----------------------
 tmpdir/M1_conf_63_1.gjf
 -----------------------
 Symbolic Z-matrix:
 Charge =  0 Multiplicity = 1

                         Standard orientation:
 ---------------------------------------------------------------------
 Center     Atomic      Atomic             Coordinates (Angstroms)
 Number     Number       Type             X           Y           Z
 ---------------------------------------------------------------------
      1          6           0       -0.074202    0.000005    0.000275
      2          1           0       -0.268147    0.920148   -0.527661
      3          1           0       -0.261662   -0.002141    1.062233
      4          1           0       -0.268303   -0.917950   -0.531401
      5          1           0        1.243323   -0.000090   -0.004824
 ---------------------------------------------------------------------

 SCF Done:  E(RM062X) =  -40.4574378648     A.U. after    9 cycles

 The electronic state is 1-A.
 Alpha  occ. eigenvalues --  -10.54615  -0.77750  -0.47583  -0.47583  -0.39548
 Alpha virt. eigenvalues --    0.03669   0.06981   0.06981   0.07799   0.15699
 Alpha virt. eigenvalues --    0.24241   0.24242   0.29483   0.68443   0.68444
 Alpha virt. eigenvalues --    0.72483   0.89102   1.02538   1.02540   1.09922

 Mulliken charges:
               1
     1  C   -0.824943
     2  H    0.226240
     3  H    0.226260
     4  H    0.226240
     5  H    0.146203
 Sum of Mulliken charges =  -0.00000

 Dipole moment (field-independent basis, Debye):
    X=             -0.0555    Y=              0.0000    Z=              0.0004  Tot=              0.0555
 Quadrupole moment (field-independent basis, Debye-Ang):
   XX=             -9.3275   YY=             -8.3564   ZZ=             -8.3565
   XY=              0.0001   XZ=              0.0045   YZ=             -0.0000

 Normal termination of Gaussian 16 at Fri Sep 22 17:06:38 2023.
