 Gaussian 16, Revision A.03,
 Gaussian 16:  ES64L-G16RevA.03 25-Dec-2016

 ------------------------------------------------------------------
 # 6-31+g(d) scrf=(solvent=water,pcm) int=ultrafine m062x scf=tight
 ------------------------------------------------------------------

 -----------------------
 tmpdir/M1_conf_34_2.gjf
 -----------------------
 Symbolic Z-matrix:
 Charge =  0 Multiplicity = 1

                         Standard orientation:
 ---------------------------------------------------------------------
 Center     Atomic      Atomic             Coordinates (Angstroms)
 Number     Number       Type             X           Y           Z
 ---------------------------------------------------------------------
      1         17           0        0.000000   -0.000000    0.077118
      2          1           0       -0.000000    0.000000   -1.310999
 ---------------------------------------------------------------------

 SCF Done:  E(RM062X) =  -460.755983633     A.U. after    8 cycles

 The electronic state is 1-SG.
 Alpha  occ. eigenvalues -- -102.67789  -9.82489  -7.54899  -7.54222  -7.54222
 Alpha  occ. eigenvalues --   -0.93030  -0.52105  -0.39770  -0.39770
 Alpha virt. eigenvalues --    0.01619   0.07671   0.08627   0.08627   0.09283
 Alpha virt. eigenvalues --    0.58948   0.62412   0.63675   0.63675   0.79914
 Alpha virt. eigenvalues --    0.90521   0.90521   0.93175   0.93179   1.20967

 Mulliken charges:
               1
     1  Cl  -0.286416
     2  H    0.286416
 Sum of Mulliken charges =   0.00000

 Dipole moment (field-independent basis, Debye):
    X=             -0.0000    Y=              0.0000    Z=             -1.9498  Tot=              1.9498
 Quadrupole moment (field-independent basis, Debye-Ang):
   XX=            -14.3437   YY=            -14.3437   ZZ=             -9.9297
   XY=             -0.0000   XZ=             -0.0000   YZ=              0.0000

 Normal termination of Gaussian 16 at Fri Sep 22 17:04:11 2023.
