 Gaussian 16, Revision A.03,
 Gaussian 16:  ES64L-G16RevA.03 25-Dec-2016

 ------------------------------------------------------------------
 # 6-31+g(d) scrf=(solvent=water,pcm) int=ultrafine m062x scf=tight
 ------------------------------------------------------------------

 -----------------------
 tmpdir/M1_conf_29_1.gjf
 -----------------------
 Symbolic Z-matrix:
 Charge =  0 Multiplicity = 1

                         Standard orientation:
 ---------------------------------------------------------------------
 Center     Atomic      Atomic             Coordinates (Angstroms)
 Number     Number       Type             X           Y           Z
 ---------------------------------------------------------------------
      1          6           0        0.018174    0.000004    0.000017
      2          1           0        0.348339   -0.876007   -0.545813
      3          1           0        0.345502   -0.035103    1.032425
      4          1           0        0.347851    0.911322   -0.484894
      5          1           0       -1.150734   -0.000236   -0.001818
 ---------------------------------------------------------------------

 SCF Done:  E(RM062X) =  -40.4803012680     A.U. after    9 cycles

 The electronic state is 1-A.
 Alpha  occ. eigenvalues --  -10.53190  -0.78202  -0.46159  -0.46159  -0.43758
 Alpha virt. eigenvalues --    0.03924   0.07136   0.07137   0.07385   0.20815
 Alpha virt. eigenvalues --    0.23511   0.23511   0.30718   0.68858   0.68859
 Alpha virt. eigenvalues --    0.70734   0.95889   1.00878   1.00878   1.10784

 Mulliken charges:
               1
     1  C   -0.828044
     2  H    0.212676
     3  H    0.212679
     4  H    0.212679
     5  H    0.190010
 Sum of Mulliken charges =  -0.00000

 Dipole moment (field-independent basis, Debye):
    X=              0.0311    Y=              0.0000    Z=              0.0002  Tot=              0.0311
 Quadrupole moment (field-independent basis, Debye-Ang):
   XX=             -8.6253   YY=             -8.4604   ZZ=             -8.4606
   XY=             -0.0001   XZ=             -0.0005   YZ=             -0.0000

 Normal termination of Gaussian 16 at Fri Sep 22 17:03:49 2023.
