 Gaussian 16, Revision A.03,
 Gaussian 16:  ES64L-G16RevA.03 25-Dec-2016

 ------------------------------------------------------------------
 # 6-31+g(d) scrf=(solvent=water,pcm) int=ultrafine m062x scf=tight
 ------------------------------------------------------------------

 -----------------------
 tmpdir/M1_conf_72_1.gjf
 -----------------------
 Symbolic Z-matrix:
 Charge =  0 Multiplicity = 1

                         Standard orientation:
 ---------------------------------------------------------------------
 Center     Atomic      Atomic             Coordinates (Angstroms)
 Number     Number       Type             X           Y           Z
 ---------------------------------------------------------------------
      1          6           0        0.093791   -0.000018    0.000211
      2          1           0        0.235436   -0.898274   -0.577620
      3          1           0        0.231620   -0.051652    1.067483
      4          1           0        0.235609    0.949782   -0.488241
      5          1           0       -1.265410    0.000250   -0.002890
 ---------------------------------------------------------------------

 SCF Done:  E(RM062X) =  -40.4475912343     A.U. after    9 cycles

 The electronic state is 1-A.
 Alpha  occ. eigenvalues --  -10.55027  -0.77749  -0.47990  -0.47990  -0.38392
 Alpha virt. eigenvalues --    0.03518   0.06939   0.06939   0.07924   0.14200
 Alpha virt. eigenvalues --    0.24417   0.24418   0.29128   0.68343   0.68343
 Alpha virt. eigenvalues --    0.72785   0.87568   1.02894   1.02896   1.09652

 Mulliken charges:
               1
     1  C   -0.827421
     2  H    0.231581
     3  H    0.231596
     4  H    0.231588
     5  H    0.132656
 Sum of Mulliken charges =  -0.00000

 Dipole moment (field-independent basis, Debye):
    X=              0.0480    Y=              0.0000    Z=              0.0002  Tot=              0.0480
 Quadrupole moment (field-independent basis, Debye-Ang):
   XX=             -9.5878   YY=             -8.3290   ZZ=             -8.3291
   XY=              0.0003   XZ=             -0.0033   YZ=             -0.0000

 Normal termination of Gaussian 16 at Fri Sep 22 17:07:23 2023.
