 Gaussian 16, Revision A.03,
 Gaussian 16:  ES64L-G16RevA.03 25-Dec-2016

 ------------------------------------------------------------------
 # 6-31+g(d) scrf=(solvent=water,pcm) int=ultrafine m062x scf=tight
 ------------------------------------------------------------------

 ------------------------
 tmpdir/M1_conf_122_1.gjf
 ------------------------
 Symbolic Z-matrix:
 Charge =  0 Multiplicity = 1

                         Standard orientation:
 ---------------------------------------------------------------------
 Center     Atomic      Atomic             Coordinates (Angstroms)
 Number     Number       Type             X           Y           Z
 ---------------------------------------------------------------------
      1          6           0        0.211460   -0.000006    0.000126
      2          1           0        0.037643   -0.921950   -0.533862
      3          1           0        0.036331   -0.001508    1.065280
      4          1           0        0.037711    0.923455   -0.531252
      5          1           0       -1.380447    0.000041   -0.000919
 ---------------------------------------------------------------------

 SCF Done:  E(RM062X) =  -40.3796465442     A.U. after    9 cycles

 The electronic state is 1-A.
 Alpha  occ. eigenvalues --  -10.57088  -0.78568  -0.48937  -0.48933  -0.34083
 Alpha virt. eigenvalues --    0.00632   0.06854   0.06855   0.07713   0.08594
 Alpha virt. eigenvalues --    0.24095   0.24099   0.28039   0.67836   0.67838
 Alpha virt. eigenvalues --    0.72798   0.85269   1.01612   1.01620   1.07932

 Mulliken charges:
               1
     1  C   -0.837803
     2  H    0.255483
     3  H    0.255469
     4  H    0.255484
     5  H    0.071366
 Sum of Mulliken charges =  -0.00000

 Dipole moment (field-independent basis, Debye):
    X=             -0.3053    Y=              0.0000    Z=             -0.0001  Tot=              0.3053
 Quadrupole moment (field-independent basis, Debye-Ang):
   XX=            -10.7975   YY=             -8.4869   ZZ=             -8.4882
   XY=              0.0001   XZ=             -0.0023   YZ=             -0.0000

 Normal termination of Gaussian 16 at Fri Sep 22 17:11:37 2023.
