 Gaussian 16, Revision A.03,
 Gaussian 16:  ES64L-G16RevA.03 25-Dec-2016

 ------------------------------------------------------------------
 # 6-31+g(d) scrf=(solvent=water,pcm) int=ultrafine m062x scf=tight
 ------------------------------------------------------------------

 -----------------------
 tmpdir/M1_conf_27_1.gjf
 -----------------------
 Symbolic Z-matrix:
 Charge =  0 Multiplicity = 1

                         Standard orientation:
 ---------------------------------------------------------------------
 Center     Atomic      Atomic             Coordinates (Angstroms)
 Number     Number       Type             X           Y           Z
 ---------------------------------------------------------------------
      1          6           0        0.017252    0.000004    0.000005
      2          1           0        0.348660   -0.838582   -0.601331
      3          1           0        0.348490   -0.101360    1.026937
      4          1           0        0.348224    0.940186   -0.425634
      5          1           0       -1.148885   -0.000267    0.000001
 ---------------------------------------------------------------------

 SCF Done:  E(RM062X) =  -40.4805384098     A.U. after    9 cycles

 The electronic state is 1-A.
 Alpha  occ. eigenvalues --  -10.53165  -0.78215  -0.46133  -0.46132  -0.43838
 Alpha virt. eigenvalues --    0.03926   0.07139   0.07140   0.07378   0.20908
 Alpha virt. eigenvalues --    0.23495   0.23496   0.30739   0.68868   0.68869
 Alpha virt. eigenvalues --    0.70688   0.96043   1.00841   1.00842   1.10811

 Mulliken charges:
               1
     1  C   -0.828191
     2  H    0.212474
     3  H    0.212488
     4  H    0.212489
     5  H    0.190741
 Sum of Mulliken charges =  -0.00000

 Dipole moment (field-independent basis, Debye):
    X=              0.0308    Y=              0.0001    Z=              0.0000  Tot=              0.0308
 Quadrupole moment (field-independent basis, Debye-Ang):
   XX=             -8.6149   YY=             -8.4624   ZZ=             -8.4625
   XY=             -0.0001   XZ=              0.0000   YZ=             -0.0000

 Normal termination of Gaussian 16 at Fri Sep 22 17:03:40 2023.
