 Gaussian 16, Revision A.03,
 Gaussian 16:  ES64L-G16RevA.03 25-Dec-2016

 ------------------------------------------------------------------
 # 6-31+g(d) scrf=(solvent=water,pcm) int=ultrafine m062x scf=tight
 ------------------------------------------------------------------

 -----------------------
 tmpdir/M1_conf_82_2.gjf
 -----------------------
 Symbolic Z-matrix:
 Charge =  0 Multiplicity = 1

                         Standard orientation:
 ---------------------------------------------------------------------
 Center     Atomic      Atomic             Coordinates (Angstroms)
 Number     Number       Type             X           Y           Z
 ---------------------------------------------------------------------
      1         17           0        0.000000   -0.000000    0.091557
      2          1           0       -0.000000    0.000000   -1.556463
 ---------------------------------------------------------------------

 SCF Done:  E(RM062X) =  -460.719901692     A.U. after    9 cycles

 The electronic state is 1-SG.
 Alpha  occ. eigenvalues -- -102.68433  -9.82807  -7.55232  -7.54526  -7.54526
 Alpha  occ. eigenvalues --   -0.90712  -0.48048  -0.39346  -0.39346
 Alpha virt. eigenvalues --   -0.04729   0.06634   0.08601   0.08601   0.09080
 Alpha virt. eigenvalues --    0.58261   0.62502   0.63805   0.63805   0.89296
 Alpha virt. eigenvalues --    0.91487   0.91487   0.93517   0.93518   1.03324

 Mulliken charges:
               1
     1  Cl  -0.305984
     2  H    0.305984
 Sum of Mulliken charges =  -0.00000

 Dipole moment (field-independent basis, Debye):
    X=             -0.0000    Y=              0.0000    Z=             -2.3443  Tot=              2.3443
 Quadrupole moment (field-independent basis, Debye-Ang):
   XX=            -14.6373   YY=            -14.6373   ZZ=             -8.8985
   XY=              0.0000   XZ=             -0.0000   YZ=              0.0000

 Normal termination of Gaussian 16 at Fri Sep 22 17:08:10 2023.
