 Gaussian 16, Revision A.03,
 Gaussian 16:  ES64L-G16RevA.03 25-Dec-2016

 ------------------------------------------------------------------
 # 6-31+g(d) scrf=(solvent=water,pcm) int=ultrafine m062x scf=tight
 ------------------------------------------------------------------

 -----------------------
 tmpdir/M1_conf_18_1.gjf
 -----------------------
 Symbolic Z-matrix:
 Charge =  0 Multiplicity = 1

                         Standard orientation:
 ---------------------------------------------------------------------
 Center     Atomic      Atomic             Coordinates (Angstroms)
 Number     Number       Type             X           Y           Z
 ---------------------------------------------------------------------
      1          6           0        0.015379   -0.000015   -0.000002
      2          1           0        0.349189   -0.501442    0.901654
      3          1           0        0.355953    1.029281   -0.017949
      4          1           0        0.348960   -0.532505   -0.883750
      5          1           0       -1.146377    0.004757    0.000057
 ---------------------------------------------------------------------

 SCF Done:  E(RM062X) =  -40.4809173643     A.U. after    9 cycles

 The electronic state is 1-A.
 Alpha  occ. eigenvalues --  -10.53135  -0.78229  -0.46074  -0.46072  -0.43987
 Alpha virt. eigenvalues --    0.03929   0.07145   0.07145   0.07364   0.21063
 Alpha virt. eigenvalues --    0.23454   0.23455   0.30765   0.68891   0.68892
 Alpha virt. eigenvalues --    0.70615   0.96320   1.00742   1.00747   1.10836

 Mulliken charges:
               1
     1  C   -0.828358
     2  H    0.212116
     3  H    0.212127
     4  H    0.212116
     5  H    0.191999
 Sum of Mulliken charges =   0.00000

 Dipole moment (field-independent basis, Debye):
    X=              0.0319    Y=             -0.0003    Z=              0.0000  Tot=              0.0319
 Quadrupole moment (field-independent basis, Debye-Ang):
   XX=             -8.5939   YY=             -8.4685   ZZ=             -8.4689
   XY=              0.0012   XZ=              0.0000   YZ=              0.0000

 Normal termination of Gaussian 16 at Fri Sep 22 17:02:55 2023.
