 Gaussian 16, Revision A.03,
 Gaussian 16:  ES64L-G16RevA.03 25-Dec-2016

 ------------------------------------------------------------------
 # 6-31+g(d) scrf=(solvent=water,pcm) int=ultrafine m062x scf=tight
 ------------------------------------------------------------------

 -----------------------
 tmpdir/M1_conf_56_2.gjf
 -----------------------
 Symbolic Z-matrix:
 Charge =  0 Multiplicity = 1

                         Standard orientation:
 ---------------------------------------------------------------------
 Center     Atomic      Atomic             Coordinates (Angstroms)
 Number     Number       Type             X           Y           Z
 ---------------------------------------------------------------------
      1         17           0        0.000000    0.000000    0.083733
      2          1           0       -0.000000   -0.000000   -1.423457
 ---------------------------------------------------------------------

 SCF Done:  E(RM062X) =  -460.741797853     A.U. after    8 cycles

 The electronic state is 1-SG.
 Alpha  occ. eigenvalues -- -102.68146  -9.82669  -7.55083  -7.54397  -7.54397
 Alpha  occ. eigenvalues --   -0.91778  -0.50196  -0.39568  -0.39568
 Alpha virt. eigenvalues --   -0.01117   0.07094   0.08614   0.08614   0.08902
 Alpha virt. eigenvalues --    0.58839   0.62542   0.63720   0.63720   0.83625
 Alpha virt. eigenvalues --    0.91018   0.91018   0.93335   0.93337   1.11969

 Mulliken charges:
               1
     1  Cl  -0.295543
     2  H    0.295543
 Sum of Mulliken charges =  -0.00000

 Dipole moment (field-independent basis, Debye):
    X=             -0.0000    Y=             -0.0000    Z=             -2.1212  Tot=              2.1212
 Quadrupole moment (field-independent basis, Debye-Ang):
   XX=            -14.4859   YY=            -14.4859   ZZ=             -9.5056
   XY=              0.0000   XZ=              0.0000   YZ=             -0.0000

 Normal termination of Gaussian 16 at Fri Sep 22 17:06:00 2023.
