 Gaussian 16, Revision A.03,
 Gaussian 16:  ES64L-G16RevA.03 25-Dec-2016

 ------------------------------------------------------------------
 # 6-31+g(d) scrf=(solvent=water,pcm) int=ultrafine m062x scf=tight
 ------------------------------------------------------------------

 -----------------------
 tmpdir/M1_conf_84_1.gjf
 -----------------------
 Symbolic Z-matrix:
 Charge =  0 Multiplicity = 1

                         Standard orientation:
 ---------------------------------------------------------------------
 Center     Atomic      Atomic             Coordinates (Angstroms)
 Number     Number       Type             X           Y           Z
 ---------------------------------------------------------------------
      1          6           0        0.121476   -0.000011    0.000212
      2          1           0        0.189077   -0.910451   -0.570706
      3          1           0        0.185992   -0.039396    1.074267
      4          1           0        0.189154    0.949782   -0.502513
      5          1           0       -1.293077    0.000134   -0.002320
 ---------------------------------------------------------------------

 SCF Done:  E(RM062X) =  -40.4326701698     A.U. after    9 cycles

 The electronic state is 1-A.
 Alpha  occ. eigenvalues --  -10.55579  -0.77832  -0.48457  -0.48456  -0.36979
 Alpha virt. eigenvalues --    0.03214   0.06893   0.06893   0.08093   0.12237
 Alpha virt. eigenvalues --    0.24564   0.24564   0.28697   0.68215   0.68216
 Alpha virt. eigenvalues --    0.73068   0.85949   1.03124   1.03125   1.09064

 Mulliken charges:
               1
     1  C   -0.832206
     2  H    0.239095
     3  H    0.239104
     4  H    0.239090
     5  H    0.114916
 Sum of Mulliken charges =   0.00000

 Dipole moment (field-independent basis, Debye):
    X=              0.0159    Y=             -0.0000    Z=              0.0002  Tot=              0.0159
 Quadrupole moment (field-independent basis, Debye-Ang):
   XX=             -9.9470   YY=             -8.3113   ZZ=             -8.3117
   XY=              0.0002   XZ=             -0.0035   YZ=             -0.0000

 Normal termination of Gaussian 16 at Fri Sep 22 17:08:22 2023.
