 Gaussian 16, Revision A.03,
 Gaussian 16:  ES64L-G16RevA.03 25-Dec-2016

 ------------------------------------------------------------------
 # 6-31+g(d) scrf=(solvent=water,pcm) int=ultrafine m062x scf=tight
 ------------------------------------------------------------------

 -----------------------
 tmpdir/M1_conf_32_1.gjf
 -----------------------
 Symbolic Z-matrix:
 Charge =  0 Multiplicity = 1

                         Standard orientation:
 ---------------------------------------------------------------------
 Center     Atomic      Atomic             Coordinates (Angstroms)
 Number     Number       Type             X           Y           Z
 ---------------------------------------------------------------------
      1          6           0        0.021000    0.000004    0.000053
      2          1           0        0.346389   -0.893108   -0.519556
      3          1           0        0.338394   -0.004827    1.035731
      4          1           0        0.345934    0.898161   -0.511068
      5          1           0       -1.156718   -0.000252   -0.005422
 ---------------------------------------------------------------------

 SCF Done:  E(RM062X) =  -40.4795037098     A.U. after    9 cycles

 The electronic state is 1-A.
 Alpha  occ. eigenvalues --  -10.53272  -0.78158  -0.46238  -0.46236  -0.43509
 Alpha virt. eigenvalues --    0.03916   0.07127   0.07127   0.07408   0.20522
 Alpha virt. eigenvalues --    0.23554   0.23555   0.30650   0.68830   0.68831
 Alpha virt. eigenvalues --    0.70877   0.95417   1.00980   1.00982   1.10697

 Mulliken charges:
               1
     1  C   -0.827524
     2  H    0.213276
     3  H    0.213273
     4  H    0.213277
     5  H    0.187698
 Sum of Mulliken charges =   0.00000

 Dipole moment (field-independent basis, Debye):
    X=              0.0325    Y=              0.0000    Z=              0.0004  Tot=              0.0325
 Quadrupole moment (field-independent basis, Debye-Ang):
   XX=             -8.6572   YY=             -8.4550   ZZ=             -8.4557
   XY=             -0.0001   XZ=             -0.0017   YZ=             -0.0000

 Normal termination of Gaussian 16 at Fri Sep 22 17:04:04 2023.
