 Gaussian 16, Revision A.03,
 Gaussian 16:  ES64L-G16RevA.03 25-Dec-2016

 ------------------------------------------------------------------
 # 6-31+g(d) scrf=(solvent=water,pcm) int=ultrafine m062x scf=tight
 ------------------------------------------------------------------

 ----------------------
 tmpdir/M1_conf_8_1.gjf
 ----------------------
 Symbolic Z-matrix:
 Charge =  0 Multiplicity = 1

                         Standard orientation:
 ---------------------------------------------------------------------
 Center     Atomic      Atomic             Coordinates (Angstroms)
 Number     Number       Type             X           Y           Z
 ---------------------------------------------------------------------
      1          6           0       -0.014754    0.000019   -0.000002
      2          1           0       -0.352151   -0.624404   -0.820502
      3          1           0       -0.354406    1.022046   -0.129881
      4          1           0       -0.352072   -0.399289    0.950639
      5          1           0        1.147155    0.001533   -0.000242
 ---------------------------------------------------------------------

 SCF Done:  E(RM062X) =  -40.4809379196     A.U. after    9 cycles

 The electronic state is 1-A.
 Alpha  occ. eigenvalues --  -10.53152  -0.78215  -0.46047  -0.46043  -0.44018
 Alpha virt. eigenvalues --    0.03929   0.07147   0.07148   0.07362   0.21073
 Alpha virt. eigenvalues --    0.23426   0.23429   0.30753   0.68903   0.68905
 Alpha virt. eigenvalues --    0.70619   0.96361   1.00679   1.00686   1.10805

 Mulliken charges:
               1
     1  C   -0.828174
     2  H    0.211990
     3  H    0.212025
     4  H    0.212010
     5  H    0.192149
 Sum of Mulliken charges =   0.00000

 Dipole moment (field-independent basis, Debye):
    X=             -0.0341    Y=             -0.0001    Z=              0.0001  Tot=              0.0341
 Quadrupole moment (field-independent basis, Debye-Ang):
   XX=             -8.5868   YY=             -8.4735   ZZ=             -8.4740
   XY=             -0.0005   XZ=              0.0001   YZ=             -0.0001

 Normal termination of Gaussian 16 at Fri Sep 22 17:02:07 2023.
