 Gaussian 16, Revision A.03,
 Gaussian 16:  ES64L-G16RevA.03 25-Dec-2016

 ------------------------------------------------------------------
 # 6-31+g(d) scrf=(solvent=water,pcm) int=ultrafine m062x scf=tight
 ------------------------------------------------------------------

 -----------------------
 tmpdir/M1_conf_60_1.gjf
 -----------------------
 Symbolic Z-matrix:
 Charge =  0 Multiplicity = 1

                         Standard orientation:
 ---------------------------------------------------------------------
 Center     Atomic      Atomic             Coordinates (Angstroms)
 Number     Number       Type             X           Y           Z
 ---------------------------------------------------------------------
      1          6           0       -0.068032    0.000002    0.000293
      2          1           0       -0.278310    0.923762   -0.515809
      3          1           0       -0.270644   -0.014007    1.059802
      4          1           0       -0.278477   -0.909738   -0.540078
      5          1           0        1.235624   -0.000032   -0.005670
 ---------------------------------------------------------------------

 SCF Done:  E(RM062X) =  -40.4603981248     A.U. after    9 cycles

 The electronic state is 1-A.
 Alpha  occ. eigenvalues --  -10.54480  -0.77763  -0.47443  -0.47442  -0.39942
 Alpha virt. eigenvalues --    0.03708   0.06995   0.06996   0.07758   0.16194
 Alpha virt. eigenvalues --    0.24175   0.24176   0.29602   0.68478   0.68479
 Alpha virt. eigenvalues --    0.72368   0.89654   1.02396   1.02397   1.09982

 Mulliken charges:
               1
     1  C   -0.824466
     2  H    0.224596
     3  H    0.224613
     4  H    0.224593
     5  H    0.150663
 Sum of Mulliken charges =   0.00000

 Dipole moment (field-independent basis, Debye):
    X=             -0.0555    Y=              0.0000    Z=              0.0005  Tot=              0.0555
 Quadrupole moment (field-independent basis, Debye-Ang):
   XX=             -9.2458   YY=             -8.3668   ZZ=             -8.3671
   XY=              0.0000   XZ=              0.0049   YZ=             -0.0000

 Normal termination of Gaussian 16 at Fri Sep 22 17:06:23 2023.
