 Gaussian 16, Revision A.03,
 Gaussian 16:  ES64L-G16RevA.03 25-Dec-2016

 ------------------------------------------------------------------
 # 6-31+g(d) scrf=(solvent=water,pcm) int=ultrafine m062x scf=tight
 ------------------------------------------------------------------

 -----------------------
 tmpdir/M1_conf_85_1.gjf
 -----------------------
 Symbolic Z-matrix:
 Charge =  0 Multiplicity = 1

                         Standard orientation:
 ---------------------------------------------------------------------
 Center     Atomic      Atomic             Coordinates (Angstroms)
 Number     Number       Type             X           Y           Z
 ---------------------------------------------------------------------
      1          6           0        0.123823   -0.000010    0.000209
      2          1           0        0.185112   -0.910683   -0.571008
      3          1           0        0.182104   -0.039528    1.074594
      4          1           0        0.185177    0.950149   -0.502585
      5          1           0       -1.295331    0.000125   -0.002258
 ---------------------------------------------------------------------

 SCF Done:  E(RM062X) =  -40.4313588536     A.U. after    9 cycles

 The electronic state is 1-A.
 Alpha  occ. eigenvalues --  -10.55624  -0.77843  -0.48490  -0.48490  -0.36870
 Alpha virt. eigenvalues --    0.03182   0.06890   0.06890   0.08107   0.12079
 Alpha virt. eigenvalues --    0.24570   0.24571   0.28665   0.68204   0.68206
 Alpha virt. eigenvalues --    0.73084   0.85842   1.03129   1.03129   1.09008

 Mulliken charges:
               1
     1  C   -0.832620
     2  H    0.239711
     3  H    0.239720
     4  H    0.239706
     5  H    0.113483
 Sum of Mulliken charges =  -0.00000

 Dipole moment (field-independent basis, Debye):
    X=              0.0120    Y=             -0.0000    Z=              0.0002  Tot=              0.0120
 Quadrupole moment (field-independent basis, Debye-Ang):
   XX=             -9.9765   YY=             -8.3112   ZZ=             -8.3116
   XY=              0.0002   XZ=             -0.0034   YZ=             -0.0000

 Normal termination of Gaussian 16 at Fri Sep 22 17:08:27 2023.
