 Gaussian 16, Revision A.03,
 Gaussian 16:  ES64L-G16RevA.03 25-Dec-2016

 ------------------------------------------------------------------
 # 6-31+g(d) scrf=(solvent=water,pcm) int=ultrafine m062x scf=tight
 ------------------------------------------------------------------

 -----------------------
 tmpdir/M1_conf_70_1.gjf
 -----------------------
 Symbolic Z-matrix:
 Charge =  0 Multiplicity = 1

                         Standard orientation:
 ---------------------------------------------------------------------
 Center     Atomic      Atomic             Coordinates (Angstroms)
 Number     Number       Type             X           Y           Z
 ---------------------------------------------------------------------
      1          6           0        0.089321   -0.000018    0.000221
      2          1           0        0.242907   -0.896687   -0.577368
      3          1           0        0.238714   -0.052295    1.066091
      4          1           0        0.243082    0.948825   -0.486882
      5          1           0       -1.260627    0.000267   -0.003165
 ---------------------------------------------------------------------

 SCF Done:  E(RM062X) =  -40.4498948429     A.U. after    9 cycles

 The electronic state is 1-A.
 Alpha  occ. eigenvalues --  -10.54935  -0.77745  -0.47903  -0.47902  -0.38644
 Alpha virt. eigenvalues --    0.03556   0.06948   0.06948   0.07896   0.14534
 Alpha virt. eigenvalues --    0.24382   0.24383   0.29206   0.68364   0.68365
 Alpha virt. eigenvalues --    0.72724   0.87889   1.02826   1.02828   1.09726

 Mulliken charges:
               1
     1  C   -0.826752
     2  H    0.230352
     3  H    0.230369
     4  H    0.230360
     5  H    0.135671
 Sum of Mulliken charges =  -0.00000

 Dipole moment (field-independent basis, Debye):
    X=              0.0507    Y=              0.0000    Z=              0.0002  Tot=              0.0507
 Quadrupole moment (field-independent basis, Debye-Ang):
   XX=             -9.5285   YY=             -8.3344   ZZ=             -8.3344
   XY=              0.0003   XZ=             -0.0035   YZ=             -0.0000

 Normal termination of Gaussian 16 at Fri Sep 22 17:07:13 2023.
