 Gaussian 16, Revision A.03,
 Gaussian 16:  ES64L-G16RevA.03 25-Dec-2016

 ------------------------------------------------------------------
 # 6-31+g(d) scrf=(solvent=water,pcm) int=ultrafine m062x scf=tight
 ------------------------------------------------------------------

 -----------------------
 tmpdir/M1_conf_71_2.gjf
 -----------------------
 Symbolic Z-matrix:
 Charge =  0 Multiplicity = 1

                         Standard orientation:
 ---------------------------------------------------------------------
 Center     Atomic      Atomic             Coordinates (Angstroms)
 Number     Number       Type             X           Y           Z
 ---------------------------------------------------------------------
      1         17           0        0.000000   -0.000000    0.088249
      2          1           0       -0.000000    0.000000   -1.500237
 ---------------------------------------------------------------------

 SCF Done:  E(RM062X) =  -460.729521762     A.U. after    9 cycles

 The electronic state is 1-SG.
 Alpha  occ. eigenvalues -- -102.68329  -9.82758  -7.55179  -7.54481  -7.54481
 Alpha  occ. eigenvalues --   -0.91118  -0.48936  -0.39438  -0.39438
 Alpha virt. eigenvalues --   -0.03208   0.06791   0.08607   0.08607   0.08978
 Alpha virt. eigenvalues --    0.58513   0.62531   0.63766   0.63766   0.86886
 Alpha virt. eigenvalues --    0.91304   0.91304   0.93441   0.93443   1.06751

 Mulliken charges:
               1
     1  Cl  -0.301541
     2  H    0.301541
 Sum of Mulliken charges =   0.00000

 Dipole moment (field-independent basis, Debye):
    X=             -0.0000    Y=              0.0000    Z=             -2.2470  Tot=              2.2470
 Quadrupole moment (field-independent basis, Debye-Ang):
   XX=            -14.5756   YY=            -14.5756   ZZ=             -9.1693
   XY=             -0.0000   XZ=             -0.0000   YZ=              0.0000

 Normal termination of Gaussian 16 at Fri Sep 22 17:07:15 2023.
