 Gaussian 16, Revision A.03,
 Gaussian 16:  ES64L-G16RevA.03 25-Dec-2016

 ------------------------------------------------------------------
 # 6-31+g(d) scrf=(solvent=water,pcm) int=ultrafine m062x scf=tight
 ------------------------------------------------------------------

 -----------------------
 tmpdir/M1_conf_40_1.gjf
 -----------------------
 Symbolic Z-matrix:
 Charge =  0 Multiplicity = 1

                         Standard orientation:
 ---------------------------------------------------------------------
 Center     Atomic      Atomic             Coordinates (Angstroms)
 Number     Number       Type             X           Y           Z
 ---------------------------------------------------------------------
      1          6           0       -0.031566   -0.000001    0.000153
      2          1           0       -0.333617    0.904624   -0.511157
      3          1           0       -0.321618   -0.007356    1.042572
      4          1           0       -0.333636   -0.897312   -0.523869
      5          1           0        1.178267    0.000048   -0.008464
 ---------------------------------------------------------------------

 SCF Done:  E(RM062X) =  -40.4759856298     A.U. after    9 cycles

 The electronic state is 1-A.
 Alpha  occ. eigenvalues --  -10.53579  -0.78012  -0.46525  -0.46521  -0.42611
 Alpha virt. eigenvalues --    0.03881   0.07094   0.07095   0.07493   0.19448
 Alpha virt. eigenvalues --    0.23706   0.23708   0.30392   0.68734   0.68736
 Alpha virt. eigenvalues --    0.71350   0.93799   1.01336   1.01341   1.10419

 Mulliken charges:
               1
     1  C   -0.825776
     2  H    0.215598
     3  H    0.215596
     4  H    0.215597
     5  H    0.178985
 Sum of Mulliken charges =  -0.00000

 Dipole moment (field-independent basis, Debye):
    X=             -0.0393    Y=             -0.0000    Z=              0.0008  Tot=              0.0393
 Quadrupole moment (field-independent basis, Debye-Ang):
   XX=             -8.7811   YY=             -8.4357   ZZ=             -8.4371
   XY=             -0.0000   XZ=              0.0037   YZ=              0.0000

 Normal termination of Gaussian 16 at Fri Sep 22 17:04:44 2023.
