 Gaussian 16, Revision A.03,
 Gaussian 16:  ES64L-G16RevA.03 25-Dec-2016

 ------------------------------------------------------------------
 # 6-31+g(d) scrf=(solvent=water,pcm) int=ultrafine m062x scf=tight
 ------------------------------------------------------------------

 -----------------------
 tmpdir/M1_conf_17_1.gjf
 -----------------------
 Symbolic Z-matrix:
 Charge =  0 Multiplicity = 1

                         Standard orientation:
 ---------------------------------------------------------------------
 Center     Atomic      Atomic             Coordinates (Angstroms)
 Number     Number       Type             X           Y           Z
 ---------------------------------------------------------------------
      1          6           0       -0.015233   -0.000007    0.000002
      2          1           0       -0.349715   -0.522452   -0.889500
      3          1           0       -0.355892    1.029487   -0.006355
      4          1           0       -0.349448   -0.511342    0.896031
      5          1           0        1.146451    0.004351   -0.000189
 ---------------------------------------------------------------------

 SCF Done:  E(RM062X) =  -40.4809290805     A.U. after    9 cycles

 The electronic state is 1-A.
 Alpha  occ. eigenvalues --  -10.53137  -0.78227  -0.46069  -0.46066  -0.43995
 Alpha virt. eigenvalues --    0.03929   0.07145   0.07146   0.07363   0.21068
 Alpha virt. eigenvalues --    0.23448   0.23450   0.30764   0.68894   0.68894
 Alpha virt. eigenvalues --    0.70614   0.96333   1.00730   1.00735   1.10832

 Mulliken charges:
               1
     1  C   -0.828335
     2  H    0.212090
     3  H    0.212103
     4  H    0.212091
     5  H    0.192051
 Sum of Mulliken charges =  -0.00000

 Dipole moment (field-independent basis, Debye):
    X=             -0.0323    Y=             -0.0003    Z=              0.0000  Tot=              0.0323
 Quadrupole moment (field-independent basis, Debye-Ang):
   XX=             -8.5923   YY=             -8.4694   ZZ=             -8.4699
   XY=             -0.0011   XZ=              0.0000   YZ=             -0.0000

 Normal termination of Gaussian 16 at Fri Sep 22 17:02:51 2023.
