 Gaussian 16, Revision A.03,
 Gaussian 16:  ES64L-G16RevA.03 25-Dec-2016

 ------------------------------------------------------------------
 # 6-31+g(d) scrf=(solvent=water,pcm) int=ultrafine m062x scf=tight
 ------------------------------------------------------------------

 -----------------------
 tmpdir/M1_conf_39_1.gjf
 -----------------------
 Symbolic Z-matrix:
 Charge =  0 Multiplicity = 1

                         Standard orientation:
 ---------------------------------------------------------------------
 Center     Atomic      Atomic             Coordinates (Angstroms)
 Number     Number       Type             X           Y           Z
 ---------------------------------------------------------------------
      1          6           0       -0.030182   -0.000001    0.000142
      2          1           0       -0.335506    0.903350   -0.511778
      3          1           0       -0.323519   -0.006186    1.041799
      4          1           0       -0.335466   -0.897230   -0.522452
      5          1           0        1.175583    0.000074   -0.008423
 ---------------------------------------------------------------------

 SCF Done:  E(RM062X) =  -40.4764839488     A.U. after    9 cycles

 The electronic state is 1-A.
 Alpha  occ. eigenvalues --  -10.53540  -0.78029  -0.46488  -0.46484  -0.42725
 Alpha virt. eigenvalues --    0.03886   0.07099   0.07099   0.07482   0.19585
 Alpha virt. eigenvalues --    0.23687   0.23688   0.30426   0.68746   0.68748
 Alpha virt. eigenvalues --    0.71294   0.93997   1.01290   1.01296   1.10450

 Mulliken charges:
               1
     1  C   -0.825974
     2  H    0.215286
     3  H    0.215283
     4  H    0.215286
     5  H    0.180119
 Sum of Mulliken charges =   0.00000

 Dipole moment (field-independent basis, Debye):
    X=             -0.0384    Y=             -0.0000    Z=              0.0007  Tot=              0.0384
 Quadrupole moment (field-independent basis, Debye-Ang):
   XX=             -8.7645   YY=             -8.4382   ZZ=             -8.4396
   XY=             -0.0000   XZ=              0.0036   YZ=              0.0000

 Normal termination of Gaussian 16 at Fri Sep 22 17:04:39 2023.
