 Gaussian 16, Revision A.03,
 Gaussian 16:  ES64L-G16RevA.03 25-Dec-2016

 ------------------------------------------------------------------
 # 6-31+g(d) scrf=(solvent=water,pcm) int=ultrafine m062x scf=tight
 ------------------------------------------------------------------

 -----------------------
 tmpdir/M1_conf_54_1.gjf
 -----------------------
 Symbolic Z-matrix:
 Charge =  0 Multiplicity = 1

                         Standard orientation:
 ---------------------------------------------------------------------
 Center     Atomic      Atomic             Coordinates (Angstroms)
 Number     Number       Type             X           Y           Z
 ---------------------------------------------------------------------
      1          6           0       -0.056362    0.000002    0.000287
      2          1           0       -0.296960    0.921360   -0.508757
      3          1           0       -0.287380   -0.018486    1.054833
      4          1           0       -0.297196   -0.902861   -0.540779
      5          1           0        1.219706   -0.000026   -0.007021
 ---------------------------------------------------------------------

 SCF Done:  E(RM062X) =  -40.4657875193     A.U. after    9 cycles

 The electronic state is 1-A.
 Alpha  occ. eigenvalues --  -10.54213  -0.77806  -0.47164  -0.47162  -0.40730
 Alpha virt. eigenvalues --    0.03773   0.07025   0.07025   0.07678   0.17168
 Alpha virt. eigenvalues --    0.24037   0.24038   0.29839   0.68550   0.68552
 Alpha virt. eigenvalues --    0.72116   0.90797   1.02093   1.02095   1.10083

 Mulliken charges:
               1
     1  C   -0.824078
     2  H    0.221565
     3  H    0.221575
     4  H    0.221562
     5  H    0.159375
 Sum of Mulliken charges =  -0.00000

 Dipole moment (field-independent basis, Debye):
    X=             -0.0528    Y=              0.0000    Z=              0.0006  Tot=              0.0528
 Quadrupole moment (field-independent basis, Debye-Ang):
   XX=             -9.0927   YY=             -8.3882   ZZ=             -8.3888
   XY=              0.0000   XZ=              0.0051   YZ=             -0.0000

 Normal termination of Gaussian 16 at Fri Sep 22 17:05:52 2023.
