 Gaussian 16, Revision A.03,
 Gaussian 16:  ES64L-G16RevA.03 25-Dec-2016

 ------------------------------------------------------------------
 # 6-31+g(d) scrf=(solvent=water,pcm) int=ultrafine m062x scf=tight
 ------------------------------------------------------------------

 ------------------------
 tmpdir/M1_conf_113_1.gjf
 ------------------------
 Symbolic Z-matrix:
 Charge =  0 Multiplicity = 1

                         Standard orientation:
 ---------------------------------------------------------------------
 Center     Atomic      Atomic             Coordinates (Angstroms)
 Number     Number       Type             X           Y           Z
 ---------------------------------------------------------------------
      1          6           0        0.191753   -0.000003    0.000163
      2          1           0        0.070319   -0.923297   -0.543199
      3          1           0        0.068581   -0.008941    1.071175
      4          1           0        0.070349    0.932230   -0.527720
      5          1           0       -1.359768    0.000029   -0.001230
 ---------------------------------------------------------------------

 SCF Done:  E(RM062X) =  -40.3916212828     A.U. after    9 cycles

 The electronic state is 1-A.
 Alpha  occ. eigenvalues --  -10.56798  -0.78368  -0.48986  -0.48983  -0.34496
 Alpha virt. eigenvalues --    0.01478   0.06848   0.06848   0.08329   0.08546
 Alpha virt. eigenvalues --    0.24328   0.24331   0.28074   0.67903   0.67905
 Alpha virt. eigenvalues --    0.72972   0.84862   1.02231   1.02237   1.07876

 Mulliken charges:
               1
     1  C   -0.839160
     2  H    0.253525
     3  H    0.253528
     4  H    0.253527
     5  H    0.078580
 Sum of Mulliken charges =  -0.00000

 Dipole moment (field-independent basis, Debye):
    X=             -0.2051    Y=              0.0000    Z=             -0.0001  Tot=              0.2051
 Quadrupole moment (field-independent basis, Debye-Ang):
   XX=            -10.6768   YY=             -8.4144   ZZ=             -8.4155
   XY=              0.0001   XZ=             -0.0028   YZ=             -0.0000

 Normal termination of Gaussian 16 at Fri Sep 22 17:10:51 2023.
