 Gaussian 16, Revision A.03,
 Gaussian 16:  ES64L-G16RevA.03 25-Dec-2016

 ------------------------------------------------------------------
 # 6-31+g(d) scrf=(solvent=water,pcm) int=ultrafine m062x scf=tight
 ------------------------------------------------------------------

 -----------------------
 tmpdir/M1_conf_79_2.gjf
 -----------------------
 Symbolic Z-matrix:
 Charge =  0 Multiplicity = 1

                         Standard orientation:
 ---------------------------------------------------------------------
 Center     Atomic      Atomic             Coordinates (Angstroms)
 Number     Number       Type             X           Y           Z
 ---------------------------------------------------------------------
      1         17           0        0.000000   -0.000000    0.090656
      2          1           0        0.000000    0.000000   -1.541154
 ---------------------------------------------------------------------

 SCF Done:  E(RM062X) =  -460.722553680     A.U. after    9 cycles

 The electronic state is 1-SG.
 Alpha  occ. eigenvalues -- -102.68407  -9.82795  -7.55219  -7.54516  -7.54516
 Alpha  occ. eigenvalues --   -0.90817  -0.48286  -0.39371  -0.39371
 Alpha virt. eigenvalues --   -0.04319   0.06673   0.08603   0.08603   0.09050
 Alpha virt. eigenvalues --    0.58328   0.62510   0.63794   0.63794   0.88649
 Alpha virt. eigenvalues --    0.91439   0.91439   0.93496   0.93498   1.04226

 Mulliken charges:
               1
     1  Cl  -0.304759
     2  H    0.304759
 Sum of Mulliken charges =  -0.00000

 Dipole moment (field-independent basis, Debye):
    X=             -0.0000    Y=              0.0000    Z=             -2.3173  Tot=              2.3173
 Quadrupole moment (field-independent basis, Debye-Ang):
   XX=            -14.6208   YY=            -14.6208   ZZ=             -8.9744
   XY=             -0.0000   XZ=              0.0000   YZ=             -0.0000

 Normal termination of Gaussian 16 at Fri Sep 22 17:07:55 2023.
