 Gaussian 16, Revision A.03,
 Gaussian 16:  ES64L-G16RevA.03 25-Dec-2016

 ------------------------------------------------------------------
 # 6-31+g(d) scrf=(solvent=water,pcm) int=ultrafine m062x scf=tight
 ------------------------------------------------------------------

 -----------------------
 tmpdir/M1_conf_78_1.gjf
 -----------------------
 Symbolic Z-matrix:
 Charge =  0 Multiplicity = 1

                         Standard orientation:
 ---------------------------------------------------------------------
 Center     Atomic      Atomic             Coordinates (Angstroms)
 Number     Number       Type             X           Y           Z
 ---------------------------------------------------------------------
      1          6           0        0.107491   -0.000015    0.000211
      2          1           0        0.212564   -0.908054   -0.569307
      3          1           0        0.209207   -0.039452    1.071619
      4          1           0        0.212704    0.947410   -0.501033
      5          1           0       -1.279419    0.000184   -0.002548
 ---------------------------------------------------------------------

 SCF Done:  E(RM062X) =  -40.4403411172     A.U. after    9 cycles

 The electronic state is 1-A.
 Alpha  occ. eigenvalues --  -10.55304  -0.77779  -0.48238  -0.48237  -0.37662
 Alpha virt. eigenvalues --    0.03384   0.06915   0.06915   0.08009   0.13207
 Alpha virt. eigenvalues --    0.24505   0.24506   0.28904   0.68278   0.68280
 Alpha virt. eigenvalues --    0.72947   0.86685   1.03049   1.03050   1.09383

 Mulliken charges:
               1
     1  C   -0.829712
     2  H    0.235339
     3  H    0.235351
     4  H    0.235339
     5  H    0.123683
 Sum of Mulliken charges =  -0.00000

 Dipole moment (field-independent basis, Debye):
    X=              0.0354    Y=              0.0000    Z=              0.0002  Tot=              0.0354
 Quadrupole moment (field-independent basis, Debye-Ang):
   XX=             -9.7678   YY=             -8.3168   ZZ=             -8.3170
   XY=              0.0002   XZ=             -0.0034   YZ=             -0.0000

 Normal termination of Gaussian 16 at Fri Sep 22 17:07:53 2023.
