 Gaussian 16, Revision A.03,
 Gaussian 16:  ES64L-G16RevA.03 25-Dec-2016

 ------------------------------------------------------------------
 # 6-31+g(d) scrf=(solvent=water,pcm) int=ultrafine m062x scf=tight
 ------------------------------------------------------------------

 -----------------------
 tmpdir/M1_conf_55_1.gjf
 -----------------------
 Symbolic Z-matrix:
 Charge =  0 Multiplicity = 1

                         Standard orientation:
 ---------------------------------------------------------------------
 Center     Atomic      Atomic             Coordinates (Angstroms)
 Number     Number       Type             X           Y           Z
 ---------------------------------------------------------------------
      1          6           0       -0.058242    0.000002    0.000292
      2          1           0       -0.294016    0.922389   -0.508808
      3          1           0       -0.284700   -0.019027    1.055657
      4          1           0       -0.294238   -0.903356   -0.541762
      5          1           0        1.222405   -0.000017   -0.006837
 ---------------------------------------------------------------------

 SCF Done:  E(RM062X) =  -40.4649393517     A.U. after    9 cycles

 The electronic state is 1-A.
 Alpha  occ. eigenvalues --  -10.54257  -0.77797  -0.47210  -0.47209  -0.40599
 Alpha virt. eigenvalues --    0.03763   0.07020   0.07020   0.07691   0.17008
 Alpha virt. eigenvalues --    0.24060   0.24061   0.29800   0.68538   0.68540
 Alpha virt. eigenvalues --    0.72160   0.90604   1.02145   1.02146   1.10067

 Mulliken charges:
               1
     1  C   -0.824091
     2  H    0.222045
     3  H    0.222056
     4  H    0.222042
     5  H    0.157948
 Sum of Mulliken charges =   0.00000

 Dipole moment (field-independent basis, Debye):
    X=             -0.0534    Y=              0.0000    Z=              0.0006  Tot=              0.0534
 Quadrupole moment (field-independent basis, Debye-Ang):
   XX=             -9.1172   YY=             -8.3846   ZZ=             -8.3852
   XY=              0.0000   XZ=              0.0051   YZ=             -0.0000

 Normal termination of Gaussian 16 at Fri Sep 22 17:05:58 2023.
