 Gaussian 16, Revision A.03,
 Gaussian 16:  ES64L-G16RevA.03 25-Dec-2016

 ------------------------------------------------------------------
 # 6-31+g(d) scrf=(solvent=water,pcm) int=ultrafine m062x scf=tight
 ------------------------------------------------------------------

 ------------------------
 tmpdir/M1_conf_115_1.gjf
 ------------------------
 Symbolic Z-matrix:
 Charge =  0 Multiplicity = 1

                         Standard orientation:
 ---------------------------------------------------------------------
 Center     Atomic      Atomic             Coordinates (Angstroms)
 Number     Number       Type             X           Y           Z
 ---------------------------------------------------------------------
      1          6           0        0.196243   -0.000004    0.000159
      2          1           0        0.062827   -0.923059   -0.541308
      3          1           0        0.061144   -0.007416    1.070009
      4          1           0        0.062864    0.930468   -0.528469
      5          1           0       -1.364295    0.000031   -0.001187
 ---------------------------------------------------------------------

 SCF Done:  E(RM062X) =  -40.3889106309     A.U. after    9 cycles

 The electronic state is 1-A.
 Alpha  occ. eigenvalues --  -10.56865  -0.78413  -0.48983  -0.48980  -0.34391
 Alpha virt. eigenvalues --    0.01300   0.06849   0.06849   0.08191   0.08540
 Alpha virt. eigenvalues --    0.24282   0.24285   0.28061   0.67886   0.67889
 Alpha virt. eigenvalues --    0.72935   0.84931   1.02103   1.02110   1.07870

 Mulliken charges:
               1
     1  C   -0.839001
     2  H    0.254061
     3  H    0.254061
     4  H    0.254063
     5  H    0.076816
 Sum of Mulliken charges =   0.00000

 Dipole moment (field-independent basis, Debye):
    X=             -0.2267    Y=              0.0000    Z=             -0.0001  Tot=              0.2267
 Quadrupole moment (field-independent basis, Debye-Ang):
   XX=            -10.7083   YY=             -8.4292   ZZ=             -8.4303
   XY=              0.0001   XZ=             -0.0027   YZ=             -0.0000

 Normal termination of Gaussian 16 at Fri Sep 22 17:11:01 2023.
