 Gaussian 16, Revision A.03,
 Gaussian 16:  ES64L-G16RevA.03 25-Dec-2016

 ------------------------------------------------------------------
 # 6-31+g(d) scrf=(solvent=water,pcm) int=ultrafine m062x scf=tight
 ------------------------------------------------------------------

 -----------------------
 tmpdir/M1_conf_37_2.gjf
 -----------------------
 Symbolic Z-matrix:
 Charge =  0 Multiplicity = 1

                         Standard orientation:
 ---------------------------------------------------------------------
 Center     Atomic      Atomic             Coordinates (Angstroms)
 Number     Number       Type             X           Y           Z
 ---------------------------------------------------------------------
      1         17           0        0.000000    0.000000    0.078044
      2          1           0       -0.000000    0.000000   -1.326740
 ---------------------------------------------------------------------

 SCF Done:  E(RM062X) =  -460.754408271     A.U. after    8 cycles

 The electronic state is 1-SG.
 Alpha  occ. eigenvalues -- -102.67846  -9.82517  -7.54927  -7.54250  -7.54250
 Alpha  occ. eigenvalues --   -0.92830  -0.51835  -0.39741  -0.39741
 Alpha virt. eigenvalues --    0.01284   0.07601   0.08625   0.08625   0.09154
 Alpha virt. eigenvalues --    0.58983   0.62442   0.63679   0.63679   0.80302
 Alpha virt. eigenvalues --    0.90596   0.90596   0.93198   0.93201   1.19594

 Mulliken charges:
               1
     1  Cl  -0.287734
     2  H    0.287734
 Sum of Mulliken charges =   0.00000

 Dipole moment (field-independent basis, Debye):
    X=             -0.0000    Y=             -0.0000    Z=             -1.9729  Tot=              1.9729
 Quadrupole moment (field-independent basis, Debye-Ang):
   XX=            -14.3644   YY=            -14.3644   ZZ=             -9.8751
   XY=             -0.0000   XZ=             -0.0000   YZ=              0.0000

 Normal termination of Gaussian 16 at Fri Sep 22 17:04:26 2023.
