 Gaussian 16, Revision A.03,
 Gaussian 16:  ES64L-G16RevA.03 25-Dec-2016

 ------------------------------------------------------------------
 # 6-31+g(d) scrf=(solvent=water,pcm) int=ultrafine m062x scf=tight
 ------------------------------------------------------------------

 ------------------------
 tmpdir/M1_conf_104_1.gjf
 ------------------------
 Symbolic Z-matrix:
 Charge =  0 Multiplicity = 1

                         Standard orientation:
 ---------------------------------------------------------------------
 Center     Atomic      Atomic             Coordinates (Angstroms)
 Number     Number       Type             X           Y           Z
 ---------------------------------------------------------------------
      1          6           0        0.170990   -0.000003    0.000164
      2          1           0        0.105223   -0.920347   -0.555853
      3          1           0        0.103330   -0.021406    1.075029
      4          1           0        0.105233    0.941737   -0.518792
      5          1           0       -1.339723    0.000034   -0.001367
 ---------------------------------------------------------------------

 SCF Done:  E(RM062X) =  -40.4040336923     A.U. after    9 cycles

 The electronic state is 1-A.
 Alpha  occ. eigenvalues --  -10.56470  -0.78172  -0.48939  -0.48937  -0.35063
 Alpha virt. eigenvalues --    0.02186   0.06850   0.06850   0.08369   0.09305
 Alpha virt. eigenvalues --    0.24494   0.24496   0.28178   0.67989   0.67991
 Alpha virt. eigenvalues --    0.73108   0.84742   1.02713   1.02717   1.08044

 Mulliken charges:
               1
     1  C   -0.838766
     2  H    0.250359
     3  H    0.250371
     4  H    0.250359
     5  H    0.087677
 Sum of Mulliken charges =   0.00000

 Dipole moment (field-independent basis, Debye):
    X=             -0.1163    Y=             -0.0000    Z=              0.0001  Tot=              0.1163
 Quadrupole moment (field-independent basis, Debye-Ang):
   XX=            -10.5032   YY=             -8.3594   ZZ=             -8.3602
   XY=              0.0001   XZ=             -0.0028   YZ=             -0.0000

 Normal termination of Gaussian 16 at Fri Sep 22 17:10:06 2023.
