 Gaussian 16, Revision A.03,
 Gaussian 16:  ES64L-G16RevA.03 25-Dec-2016

 ------------------------------------------------------------------
 # 6-31+g(d) scrf=(solvent=water,pcm) int=ultrafine m062x scf=tight
 ------------------------------------------------------------------

 -----------------------
 tmpdir/M1_conf_20_2.gjf
 -----------------------
 Symbolic Z-matrix:
 Charge =  0 Multiplicity = 1

                         Standard orientation:
 ---------------------------------------------------------------------
 Center     Atomic      Atomic             Coordinates (Angstroms)
 Number     Number       Type             X           Y           Z
 ---------------------------------------------------------------------
      1         17           0        0.000000   -0.000000    0.075701
      2          1           0       -0.000000    0.000000   -1.286910
 ---------------------------------------------------------------------

 SCF Done:  E(RM062X) =  -460.758048660     A.U. after    8 cycles

 The electronic state is 1-SG.
 Alpha  occ. eigenvalues -- -102.67696  -9.82443  -7.54852  -7.54175  -7.54175
 Alpha  occ. eigenvalues --   -0.93353  -0.52520  -0.39815  -0.39815
 Alpha virt. eigenvalues --    0.02090   0.07755   0.08630   0.08630   0.09553
 Alpha virt. eigenvalues --    0.58846   0.62362   0.63669   0.63669   0.79425
 Alpha virt. eigenvalues --    0.90402   0.90402   0.93140   0.93145   1.23151

 Mulliken charges:
               1
     1  Cl  -0.284382
     2  H    0.284382
 Sum of Mulliken charges =   0.00000

 Dipole moment (field-independent basis, Debye):
    X=             -0.0000    Y=              0.0000    Z=             -1.9149  Tot=              1.9149
 Quadrupole moment (field-independent basis, Debye-Ang):
   XX=            -14.3118   YY=            -14.3118   ZZ=            -10.0101
   XY=              0.0000   XZ=              0.0000   YZ=              0.0000

 Normal termination of Gaussian 16 at Fri Sep 22 17:03:02 2023.
