 Gaussian 16, Revision A.03,
 Gaussian 16:  ES64L-G16RevA.03 25-Dec-2016

 ------------------------------------------------------------------
 # 6-31+g(d) scrf=(solvent=water,pcm) int=ultrafine m062x scf=tight
 ------------------------------------------------------------------

 -----------------------
 tmpdir/M1_conf_36_1.gjf
 -----------------------
 Symbolic Z-matrix:
 Charge =  0 Multiplicity = 1

                         Standard orientation:
 ---------------------------------------------------------------------
 Center     Atomic      Atomic             Coordinates (Angstroms)
 Number     Number       Type             X           Y           Z
 ---------------------------------------------------------------------
      1          6           0       -0.026301   -0.000003    0.000109
      2          1           0       -0.340572    0.899045   -0.514835
      3          1           0       -0.329105   -0.001507    1.039508
      4          1           0       -0.340340   -0.897673   -0.517368
      5          1           0        1.167825    0.000154   -0.007959
 ---------------------------------------------------------------------

 SCF Done:  E(RM062X) =  -40.4778258352     A.U. after    9 cycles

 The electronic state is 1-A.
 Alpha  occ. eigenvalues --  -10.53429  -0.78080  -0.46383  -0.46380  -0.43051
 Alpha virt. eigenvalues --    0.03899   0.07111   0.07111   0.07451   0.19976
 Alpha virt. eigenvalues --    0.23632   0.23633   0.30520   0.68780   0.68782
 Alpha virt. eigenvalues --    0.71128   0.94574   1.01161   1.01166   1.10545

 Mulliken charges:
               1
     1  C   -0.826582
     2  H    0.214424
     3  H    0.214420
     4  H    0.214424
     5  H    0.183314
 Sum of Mulliken charges =   0.00000

 Dipole moment (field-independent basis, Debye):
    X=             -0.0359    Y=             -0.0000    Z=              0.0007  Tot=              0.0359
 Quadrupole moment (field-independent basis, Debye-Ang):
   XX=             -8.7186   YY=             -8.4454   ZZ=             -8.4466
   XY=             -0.0001   XZ=              0.0030   YZ=              0.0000

 Normal termination of Gaussian 16 at Fri Sep 22 17:04:24 2023.
