 Gaussian 16, Revision A.03,
 Gaussian 16:  ES64L-G16RevA.03 25-Dec-2016

 ------------------------------------------------------------------
 # 6-31+g(d) scrf=(solvent=water,pcm) int=ultrafine m062x scf=tight
 ------------------------------------------------------------------

 ------------------------
 tmpdir/M1_conf_103_1.gjf
 ------------------------
 Symbolic Z-matrix:
 Charge =  0 Multiplicity = 1

                         Standard orientation:
 ---------------------------------------------------------------------
 Center     Atomic      Atomic             Coordinates (Angstroms)
 Number     Number       Type             X           Y           Z
 ---------------------------------------------------------------------
      1          6           0        0.168644   -0.000003    0.000164
      2          1           0        0.109185   -0.919381   -0.558014
      3          1           0        0.107269   -0.023765    1.075286
      4          1           0        0.109195    0.943128   -0.516868
      5          1           0       -1.337516    0.000037   -0.001387
 ---------------------------------------------------------------------

 SCF Done:  E(RM062X) =  -40.4054235350     A.U. after    9 cycles

 The electronic state is 1-A.
 Alpha  occ. eigenvalues --  -10.56431  -0.78151  -0.48928  -0.48925  -0.35136
 Alpha virt. eigenvalues --    0.02254   0.06851   0.06851   0.08358   0.09420
 Alpha virt. eigenvalues --    0.24507   0.24509   0.28195   0.67999   0.68002
 Alpha virt. eigenvalues --    0.73119   0.84751   1.02756   1.02760   1.08076

 Mulliken charges:
               1
     1  C   -0.838611
     2  H    0.249933
     3  H    0.249946
     4  H    0.249933
     5  H    0.088800
 Sum of Mulliken charges =  -0.00000

 Dipole moment (field-independent basis, Debye):
    X=             -0.1076    Y=             -0.0000    Z=              0.0001  Tot=              0.1076
 Quadrupole moment (field-independent basis, Debye-Ang):
   XX=            -10.4809   YY=             -8.3545   ZZ=             -8.3554
   XY=              0.0001   XZ=             -0.0028   YZ=             -0.0000

 Normal termination of Gaussian 16 at Fri Sep 22 17:10:01 2023.
