 Gaussian 16, Revision A.03,
 Gaussian 16:  ES64L-G16RevA.03 25-Dec-2016

 ------------------------------------------------------------------
 # 6-31+g(d) scrf=(solvent=water,pcm) int=ultrafine m062x scf=tight
 ------------------------------------------------------------------

 ------------------------
 tmpdir/M1_conf_101_1.gjf
 ------------------------
 Symbolic Z-matrix:
 Charge =  0 Multiplicity = 1

                         Standard orientation:
 ---------------------------------------------------------------------
 Center     Atomic      Atomic             Coordinates (Angstroms)
 Number     Number       Type             X           Y           Z
 ---------------------------------------------------------------------
      1          6           0        0.163941   -0.000003    0.000165
      2          1           0        0.117141   -0.918199   -0.560901
      3          1           0        0.115166   -0.026866    1.075734
      4          1           0        0.117150    0.945043   -0.514387
      5          1           0       -1.333106    0.000042   -0.001436
 ---------------------------------------------------------------------

 SCF Done:  E(RM062X) =  -40.4082031134     A.U. after    9 cycles

 The electronic state is 1-A.
 Alpha  occ. eigenvalues --  -10.56352  -0.78111  -0.48901  -0.48899  -0.35287
 Alpha virt. eigenvalues --    0.02385   0.06853   0.06853   0.08334   0.09659
 Alpha virt. eigenvalues --    0.24531   0.24533   0.28230   0.68020   0.68023
 Alpha virt. eigenvalues --    0.73138   0.84782   1.02836   1.02840   1.08147

 Mulliken charges:
               1
     1  C   -0.838241
     2  H    0.249040
     3  H    0.249054
     4  H    0.249039
     5  H    0.091108
 Sum of Mulliken charges =  -0.00000

 Dipole moment (field-independent basis, Debye):
    X=             -0.0907    Y=             -0.0000    Z=              0.0001  Tot=              0.0907
 Quadrupole moment (field-independent basis, Debye-Ang):
   XX=            -10.4347   YY=             -8.3456   ZZ=             -8.3464
   XY=              0.0001   XZ=             -0.0028   YZ=             -0.0000

 Normal termination of Gaussian 16 at Fri Sep 22 17:09:51 2023.
