 Gaussian 16, Revision A.03,
 Gaussian 16:  ES64L-G16RevA.03 25-Dec-2016

 ------------------------------------------------------------------
 # 6-31+g(d) scrf=(solvent=water,pcm) int=ultrafine m062x scf=tight
 ------------------------------------------------------------------

 ------------------------
 tmpdir/M1_conf_119_1.gjf
 ------------------------
 Symbolic Z-matrix:
 Charge =  0 Multiplicity = 1

                         Standard orientation:
 ---------------------------------------------------------------------
 Center     Atomic      Atomic             Coordinates (Angstroms)
 Number     Number       Type             X           Y           Z
 ---------------------------------------------------------------------
      1          6           0        0.205041   -0.000005    0.000144
      2          1           0        0.048222   -0.922589   -0.536999
      3          1           0        0.046717   -0.003910    1.067420
      4          1           0        0.048277    0.926494   -0.530230
      5          1           0       -1.373461    0.000036   -0.001055
 ---------------------------------------------------------------------

 SCF Done:  E(RM062X) =  -40.3835701797     A.U. after    9 cycles

 The electronic state is 1-A.
 Alpha  occ. eigenvalues --  -10.56995  -0.78502  -0.48963  -0.48959  -0.34205
 Alpha virt. eigenvalues --    0.00926   0.06852   0.06852   0.07906   0.08567
 Alpha virt. eigenvalues --    0.24179   0.24183   0.28044   0.67856   0.67858
 Alpha virt. eigenvalues --    0.72857   0.85108   1.01830   1.01837   1.07889

 Mulliken charges:
               1
     1  C   -0.838432
     2  H    0.254957
     3  H    0.254949
     4  H    0.254959
     5  H    0.073567
 Sum of Mulliken charges =  -0.00000

 Dipole moment (field-independent basis, Debye):
    X=             -0.2712    Y=              0.0000    Z=             -0.0001  Tot=              0.2712
 Quadrupole moment (field-independent basis, Debye-Ang):
   XX=            -10.7632   YY=             -8.4612   ZZ=             -8.4624
   XY=              0.0001   XZ=             -0.0025   YZ=             -0.0000

 Normal termination of Gaussian 16 at Fri Sep 22 17:11:21 2023.
