 Gaussian 16, Revision A.03,
 Gaussian 16:  ES64L-G16RevA.03 25-Dec-2016

 ------------------------------------------------------------------
 # 6-31+g(d) scrf=(solvent=water,pcm) int=ultrafine m062x scf=tight
 ------------------------------------------------------------------

 -----------------------
 tmpdir/M1_conf_49_1.gjf
 -----------------------
 Symbolic Z-matrix:
 Charge =  0 Multiplicity = 1

                         Standard orientation:
 ---------------------------------------------------------------------
 Center     Atomic      Atomic             Coordinates (Angstroms)
 Number     Number       Type             X           Y           Z
 ---------------------------------------------------------------------
      1          6           0       -0.047357    0.000004    0.000251
      2          1           0       -0.310728    0.916052   -0.508823
      3          1           0       -0.300099   -0.015465    1.050669
      4          1           0       -0.311012   -0.900545   -0.535627
      5          1           0        1.205984   -0.000064   -0.007724
 ---------------------------------------------------------------------

 SCF Done:  E(RM062X) =  -40.4697241342     A.U. after    9 cycles

 The electronic state is 1-A.
 Alpha  occ. eigenvalues --  -10.53995  -0.77861  -0.46938  -0.46936  -0.41379
 Alpha virt. eigenvalues --    0.03817   0.07049   0.07049   0.07613   0.17960
 Alpha virt. eigenvalues --    0.23922   0.23923   0.30031   0.68612   0.68614
 Alpha virt. eigenvalues --    0.71882   0.91784   1.01833   1.01836   1.10171

 Mulliken charges:
               1
     1  C   -0.824288
     2  H    0.219317
     3  H    0.219322
     4  H    0.219314
     5  H    0.166335
 Sum of Mulliken charges =   0.00000

 Dipole moment (field-independent basis, Debye):
    X=             -0.0488    Y=              0.0000    Z=              0.0007  Tot=              0.0488
 Quadrupole moment (field-independent basis, Debye-Ang):
   XX=             -8.9770   YY=             -8.4054   ZZ=             -8.4064
   XY=              0.0000   XZ=              0.0048   YZ=             -0.0000

 Normal termination of Gaussian 16 at Fri Sep 22 17:05:28 2023.
