 Gaussian 16, Revision A.03,
 Gaussian 16:  ES64L-G16RevA.03 25-Dec-2016

 ------------------------------------------------------------------
 # 6-31+g(d) scrf=(solvent=water,pcm) int=ultrafine m062x scf=tight
 ------------------------------------------------------------------

 -----------------------
 tmpdir/M1_conf_87_2.gjf
 -----------------------
 Symbolic Z-matrix:
 Charge =  0 Multiplicity = 1

                         Standard orientation:
 ---------------------------------------------------------------------
 Center     Atomic      Atomic             Coordinates (Angstroms)
 Number     Number       Type             X           Y           Z
 ---------------------------------------------------------------------
      1         17           0        0.000000    0.000000    0.093056
      2          1           0       -0.000000   -0.000000   -1.581948
 ---------------------------------------------------------------------

 SCF Done:  E(RM062X) =  -460.715449381     A.U. after    9 cycles

 The electronic state is 1-SG.
 Alpha  occ. eigenvalues -- -102.68473  -9.82824  -7.55250  -7.54541  -7.54541
 Alpha  occ. eigenvalues --   -0.90546  -0.47656  -0.39305  -0.39305
 Alpha virt. eigenvalues --   -0.05402   0.06577   0.08599   0.08599   0.09133
 Alpha virt. eigenvalues --    0.58158   0.62487   0.63825   0.63825   0.90346
 Alpha virt. eigenvalues --    0.91563   0.91563   0.93551   0.93552   1.01873

 Mulliken charges:
               1
     1  Cl  -0.308050
     2  H    0.308050
 Sum of Mulliken charges =   0.00000

 Dipole moment (field-independent basis, Debye):
    X=             -0.0000    Y=             -0.0000    Z=             -2.3899  Tot=              2.3899
 Quadrupole moment (field-independent basis, Debye-Ang):
   XX=            -14.6641   YY=            -14.6641   ZZ=             -8.7688
   XY=             -0.0000   XZ=             -0.0000   YZ=              0.0000

 Normal termination of Gaussian 16 at Fri Sep 22 17:08:34 2023.
