 Gaussian 16, Revision A.03,
 Gaussian 16:  ES64L-G16RevA.03 25-Dec-2016

 ------------------------------------------------------------------
 # 6-31+g(d) scrf=(solvent=water,pcm) int=ultrafine m062x scf=tight
 ------------------------------------------------------------------

 ------------------------
 tmpdir/M1_conf_120_1.gjf
 ------------------------
 Symbolic Z-matrix:
 Charge =  0 Multiplicity = 1

                         Standard orientation:
 ---------------------------------------------------------------------
 Center     Atomic      Atomic             Coordinates (Angstroms)
 Number     Number       Type             X           Y           Z
 ---------------------------------------------------------------------
      1          6           0        0.207199   -0.000006    0.000138
      2          1           0        0.044658   -0.922392   -0.535959
      3          1           0        0.043212   -0.003106    1.066723
      4          1           0        0.044717    0.925495   -0.530582
      5          1           0       -1.375778    0.000038   -0.001013
 ---------------------------------------------------------------------

 SCF Done:  E(RM062X) =  -40.3822540437     A.U. after    9 cycles

 The electronic state is 1-A.
 Alpha  occ. eigenvalues --  -10.57027  -0.78524  -0.48955  -0.48952  -0.34162
 Alpha virt. eigenvalues --    0.00829   0.06852   0.06853   0.07839   0.08576
 Alpha virt. eigenvalues --    0.24152   0.24156   0.28042   0.67849   0.67851
 Alpha virt. eigenvalues --    0.72837   0.85159   1.01758   1.01766   1.07901

 Mulliken charges:
               1
     1  C   -0.838240
     2  H    0.255146
     3  H    0.255136
     4  H    0.255147
     5  H    0.072811
 Sum of Mulliken charges =  -0.00000

 Dipole moment (field-independent basis, Debye):
    X=             -0.2825    Y=              0.0000    Z=             -0.0001  Tot=              0.2825
 Quadrupole moment (field-independent basis, Debye-Ang):
   XX=            -10.7753   YY=             -8.4696   ZZ=             -8.4708
   XY=              0.0001   XZ=             -0.0025   YZ=             -0.0000

 Normal termination of Gaussian 16 at Fri Sep 22 17:11:26 2023.
