 Gaussian 16, Revision A.03,
 Gaussian 16:  ES64L-G16RevA.03 25-Dec-2016

 ------------------------------------------------------------------
 # 6-31+g(d) scrf=(solvent=water,pcm) int=ultrafine m062x scf=tight
 ------------------------------------------------------------------

 -----------------------
 tmpdir/M1_conf_41_1.gjf
 -----------------------
 Symbolic Z-matrix:
 Charge =  0 Multiplicity = 1

                         Standard orientation:
 ---------------------------------------------------------------------
 Center     Atomic      Atomic             Coordinates (Angstroms)
 Number     Number       Type             X           Y           Z
 ---------------------------------------------------------------------
      1          6           0       -0.032990    0.000000    0.000164
      2          1           0       -0.331640    0.905723   -0.510890
      3          1           0       -0.319684   -0.008142    1.043353
      4          1           0       -0.331716   -0.897601   -0.524977
      5          1           0        1.180983    0.000019   -0.008467
 ---------------------------------------------------------------------

 SCF Done:  E(RM062X) =  -40.4754628384     A.U. after    9 cycles

 The electronic state is 1-A.
 Alpha  occ. eigenvalues --  -10.53618  -0.77995  -0.46563  -0.46559  -0.42495
 Alpha virt. eigenvalues --    0.03876   0.07090   0.07090   0.07504   0.19308
 Alpha virt. eigenvalues --    0.23726   0.23728   0.30359   0.68722   0.68725
 Alpha virt. eigenvalues --    0.71406   0.93600   1.01383   1.01388   1.10390

 Mulliken charges:
               1
     1  C   -0.825583
     2  H    0.215921
     3  H    0.215920
     4  H    0.215920
     5  H    0.177822
 Sum of Mulliken charges =  -0.00000

 Dipole moment (field-independent basis, Debye):
    X=             -0.0403    Y=             -0.0000    Z=              0.0008  Tot=              0.0403
 Quadrupole moment (field-independent basis, Debye-Ang):
   XX=             -8.7983   YY=             -8.4330   ZZ=             -8.4344
   XY=             -0.0000   XZ=              0.0039   YZ=              0.0000

 Normal termination of Gaussian 16 at Fri Sep 22 17:04:48 2023.
