 Gaussian 16, Revision A.03,
 Gaussian 16:  ES64L-G16RevA.03 25-Dec-2016

 ------------------------------------------------------------------
 # 6-31+g(d) scrf=(solvent=water,pcm) int=ultrafine m062x scf=tight
 ------------------------------------------------------------------

 ----------------------
 tmpdir/M1_conf_9_0.gjf
 ----------------------
 Symbolic Z-matrix:
 Charge = -1 Multiplicity = 1

                         Standard orientation:
 ---------------------------------------------------------------------
 Center     Atomic      Atomic             Coordinates (Angstroms)
 Number     Number       Type             X           Y           Z
 ---------------------------------------------------------------------
      1          7           0        0.000000    0.000000    0.542301
      2          6           0       -0.000000   -0.000000   -0.632684
 ---------------------------------------------------------------------

 SCF Done:  E(RM062X) =  -92.9322841938     A.U. after   10 cycles

 The electronic state is 1-SG.
 Alpha  occ. eigenvalues --  -14.69778 -10.49625  -0.93320  -0.43966  -0.34267
 Alpha  occ. eigenvalues --   -0.34267  -0.30678
 Alpha virt. eigenvalues --    0.04908   0.06838   0.06838   0.08735   0.14089
 Alpha virt. eigenvalues --    0.14089   0.16503   0.22738   0.22738   0.27843
 Alpha virt. eigenvalues --    0.52423   0.77408   0.77408   0.84190   1.00349

 Mulliken charges:
               1
     1  N   -0.668688
     2  C   -0.331312
 Sum of Mulliken charges =  -1.00000

 Dipole moment (field-independent basis, Debye):
    X=              0.0000    Y=              0.0000    Z=              0.4137  Tot=              0.4137
 Quadrupole moment (field-independent basis, Debye-Ang):
   XX=            -14.6424   YY=            -14.6424   ZZ=            -19.4984
   XY=              0.0000   XZ=             -0.0000   YZ=             -0.0000

 Normal termination of Gaussian 16 at Fri Sep 22 17:02:09 2023.
