 Gaussian 16, Revision A.03,
 Gaussian 16:  ES64L-G16RevA.03 25-Dec-2016

 ------------------------------------------------------------------
 # 6-31+g(d) scrf=(solvent=water,pcm) int=ultrafine m062x scf=tight
 ------------------------------------------------------------------

 -----------------------
 tmpdir/M1_conf_13_1.gjf
 -----------------------
 Symbolic Z-matrix:
 Charge =  0 Multiplicity = 1

                         Standard orientation:
 ---------------------------------------------------------------------
 Center     Atomic      Atomic             Coordinates (Angstroms)
 Number     Number       Type             X           Y           Z
 ---------------------------------------------------------------------
      1          6           0       -0.015004    0.000012    0.000000
      2          1           0       -0.351028   -0.555450   -0.868894
      3          1           0       -0.354856    1.028948   -0.045639
      4          1           0       -0.350814   -0.476253    0.914778
      5          1           0        1.146720    0.002682   -0.000248
 ---------------------------------------------------------------------

 SCF Done:  E(RM062X) =  -40.4809375875     A.U. after    9 cycles

 The electronic state is 1-A.
 Alpha  occ. eigenvalues --  -10.53143  -0.78222  -0.46059  -0.46055  -0.44007
 Alpha virt. eigenvalues --    0.03929   0.07146   0.07147   0.07362   0.21072
 Alpha virt. eigenvalues --    0.23438   0.23441   0.30760   0.68898   0.68899
 Alpha virt. eigenvalues --    0.70615   0.96349   1.00707   1.00714   1.10821

 Mulliken charges:
               1
     1  C   -0.828275
     2  H    0.212046
     3  H    0.212067
     4  H    0.212051
     5  H    0.192110
 Sum of Mulliken charges =  -0.00000

 Dipole moment (field-independent basis, Debye):
    X=             -0.0331    Y=             -0.0002    Z=              0.0001  Tot=              0.0331
 Quadrupole moment (field-independent basis, Debye-Ang):
   XX=             -8.5896   YY=             -8.4712   ZZ=             -8.4718
   XY=             -0.0007   XZ=              0.0001   YZ=             -0.0000

 Normal termination of Gaussian 16 at Fri Sep 22 17:02:31 2023.
