 Gaussian 16, Revision A.03,
 Gaussian 16:  ES64L-G16RevA.03 25-Dec-2016

 ------------------------------------------------------------------
 # 6-31+g(d) scrf=(solvent=water,pcm) int=ultrafine m062x scf=tight
 ------------------------------------------------------------------

 -----------------------
 tmpdir/M1_conf_10_1.gjf
 -----------------------
 Symbolic Z-matrix:
 Charge =  0 Multiplicity = 1

                         Standard orientation:
 ---------------------------------------------------------------------
 Center     Atomic      Atomic             Coordinates (Angstroms)
 Number     Number       Type             X           Y           Z
 ---------------------------------------------------------------------
      1          6           0       -0.014828    0.000021   -0.000001
      2          1           0       -0.352009   -0.577112   -0.854411
      3          1           0       -0.354159    1.027779   -0.072006
      4          1           0       -0.351882   -0.452280    0.926604
      5          1           0        1.147017    0.001484   -0.000180
 ---------------------------------------------------------------------

 SCF Done:  E(RM062X) =  -40.4809382910     A.U. after    9 cycles

 The electronic state is 1-A.
 Alpha  occ. eigenvalues --  -10.53149  -0.78217  -0.46051  -0.46047  -0.44015
 Alpha virt. eigenvalues --    0.03929   0.07147   0.07147   0.07362   0.21073
 Alpha virt. eigenvalues --    0.23430   0.23433   0.30755   0.68901   0.68903
 Alpha virt. eigenvalues --    0.70618   0.96358   1.00687   1.00695   1.10810

 Mulliken charges:
               1
     1  C   -0.828212
     2  H    0.212011
     3  H    0.212039
     4  H    0.212021
     5  H    0.192141
 Sum of Mulliken charges =  -0.00000

 Dipole moment (field-independent basis, Debye):
    X=             -0.0338    Y=             -0.0001    Z=              0.0001  Tot=              0.0338
 Quadrupole moment (field-independent basis, Debye-Ang):
   XX=             -8.5876   YY=             -8.4728   ZZ=             -8.4733
   XY=             -0.0005   XZ=              0.0001   YZ=             -0.0000

 Normal termination of Gaussian 16 at Fri Sep 22 17:02:16 2023.
