 Gaussian 16, Revision A.03,
 Gaussian 16:  ES64L-G16RevA.03 25-Dec-2016

 ------------------------------------------------------------------
 # 6-31+g(d) scrf=(solvent=water,pcm) int=ultrafine m062x scf=tight
 ------------------------------------------------------------------

 ------------------------
 tmpdir/M1_conf_114_1.gjf
 ------------------------
 Symbolic Z-matrix:
 Charge =  0 Multiplicity = 1

                         Standard orientation:
 ---------------------------------------------------------------------
 Center     Atomic      Atomic             Coordinates (Angstroms)
 Number     Number       Type             X           Y           Z
 ---------------------------------------------------------------------
      1          6           0        0.194005   -0.000004    0.000161
      2          1           0        0.066558   -0.923207   -0.542227
      3          1           0        0.064845   -0.008142    1.070604
      4          1           0        0.066592    0.931341   -0.528133
      5          1           0       -1.362027    0.000030   -0.001210
 ---------------------------------------------------------------------

 SCF Done:  E(RM062X) =  -40.3902629343     A.U. after    9 cycles

 The electronic state is 1-A.
 Alpha  occ. eigenvalues --  -10.56832  -0.78390  -0.48985  -0.48982  -0.34443
 Alpha virt. eigenvalues --    0.01390   0.06848   0.06848   0.08263   0.08539
 Alpha virt. eigenvalues --    0.24305   0.24309   0.28067   0.67894   0.67897
 Alpha virt. eigenvalues --    0.72953   0.84895   1.02168   1.02174   1.07871

 Mulliken charges:
               1
     1  C   -0.839091
     2  H    0.253800
     3  H    0.253802
     4  H    0.253803
     5  H    0.077686
 Sum of Mulliken charges =  -0.00000

 Dipole moment (field-independent basis, Debye):
    X=             -0.2158    Y=              0.0000    Z=             -0.0001  Tot=              0.2158
 Quadrupole moment (field-independent basis, Debye-Ang):
   XX=            -10.6929   YY=             -8.4217   ZZ=             -8.4228
   XY=              0.0001   XZ=             -0.0028   YZ=             -0.0000

 Normal termination of Gaussian 16 at Fri Sep 22 17:10:56 2023.
