 Gaussian 16, Revision A.03,
 Gaussian 16:  ES64L-G16RevA.03 25-Dec-2016

 ------------------------------------------------------------------
 # 6-31+g(d) scrf=(solvent=water,pcm) int=ultrafine m062x scf=tight
 ------------------------------------------------------------------

 -----------------------
 tmpdir/M1_conf_22_1.gjf
 -----------------------
 Symbolic Z-matrix:
 Charge =  0 Multiplicity = 1

                         Standard orientation:
 ---------------------------------------------------------------------
 Center     Atomic      Atomic             Coordinates (Angstroms)
 Number     Number       Type             X           Y           Z
 ---------------------------------------------------------------------
      1          6           0        0.015800   -0.000018   -0.000001
      2          1           0        0.348702   -0.417215    0.943687
      3          1           0        0.354545    1.023785   -0.111519
      4          1           0        0.348505   -0.610567   -0.831838
      5          1           0       -1.146555    0.004105   -0.000325
 ---------------------------------------------------------------------

 SCF Done:  E(RM062X) =  -40.4808587826     A.U. after    9 cycles

 The electronic state is 1-A.
 Alpha  occ. eigenvalues --  -10.53136  -0.78230  -0.46089  -0.46087  -0.43958
 Alpha virt. eigenvalues --    0.03929   0.07144   0.07144   0.07367   0.21038
 Alpha virt. eigenvalues --    0.23466   0.23467   0.30764   0.68885   0.68886
 Alpha virt. eigenvalues --    0.70625   0.96270   1.00771   1.00774   1.10840

 Mulliken charges:
               1
     1  C   -0.828359
     2  H    0.212195
     3  H    0.212201
     4  H    0.212181
     5  H    0.191782
 Sum of Mulliken charges =  -0.00000

 Dipole moment (field-independent basis, Debye):
    X=              0.0312    Y=             -0.0003    Z=              0.0001  Tot=              0.0312
 Quadrupole moment (field-independent basis, Debye-Ang):
   XX=             -8.5987   YY=             -8.4664   ZZ=             -8.4667
   XY=              0.0011   XZ=             -0.0001   YZ=             -0.0000

 Normal termination of Gaussian 16 at Fri Sep 22 17:03:15 2023.
