 Gaussian 16, Revision A.03,
 Gaussian 16:  ES64L-G16RevA.03 25-Dec-2016

 ------------------------------------------------------------------
 # 6-31+g(d) scrf=(solvent=water,pcm) int=ultrafine m062x scf=tight
 ------------------------------------------------------------------

 -----------------------
 tmpdir/M1_conf_77_0.gjf
 -----------------------
 Symbolic Z-matrix:
 Charge = -1 Multiplicity = 1

                         Standard orientation:
 ---------------------------------------------------------------------
 Center     Atomic      Atomic             Coordinates (Angstroms)
 Number     Number       Type             X           Y           Z
 ---------------------------------------------------------------------
      1          7           0       -0.000000    0.000000    0.540621
      2          6           0        0.000000   -0.000000   -0.630724
 ---------------------------------------------------------------------

 SCF Done:  E(RM062X) =  -92.9322378853     A.U. after   10 cycles

 The electronic state is 1-SG.
 Alpha  occ. eigenvalues --  -14.69691 -10.49503  -0.93451  -0.43898  -0.34341
 Alpha  occ. eigenvalues --   -0.34341  -0.30667
 Alpha virt. eigenvalues --    0.04904   0.06852   0.06852   0.08739   0.14144
 Alpha virt. eigenvalues --    0.14144   0.16519   0.22813   0.22813   0.27859
 Alpha virt. eigenvalues --    0.52495   0.77424   0.77424   0.84323   1.00435

 Mulliken charges:
               1
     1  N   -0.669043
     2  C   -0.330957
 Sum of Mulliken charges =  -1.00000

 Dipole moment (field-independent basis, Debye):
    X=             -0.0000    Y=              0.0000    Z=              0.4238  Tot=              0.4238
 Quadrupole moment (field-independent basis, Debye-Ang):
   XX=            -14.6281   YY=            -14.6281   ZZ=            -19.4872
   XY=             -0.0000   XZ=              0.0000   YZ=             -0.0000

 Normal termination of Gaussian 16 at Fri Sep 22 17:07:45 2023.
