 Gaussian 16, Revision A.03,
 Gaussian 16:  ES64L-G16RevA.03 25-Dec-2016

 ------------------------------------------------------------------
 # 6-31+g(d) scrf=(solvent=water,pcm) int=ultrafine m062x scf=tight
 ------------------------------------------------------------------

 ----------------------
 tmpdir/M1_conf_0_1.gjf
 ----------------------
 Symbolic Z-matrix:
 Charge =  0 Multiplicity = 1

                         Standard orientation:
 ---------------------------------------------------------------------
 Center     Atomic      Atomic             Coordinates (Angstroms)
 Number     Number       Type             X           Y           Z
 ---------------------------------------------------------------------
      1          6           0       -0.014468    0.000001   -0.000029
      2          1           0       -0.351280    0.903564   -0.497872
      3          1           0       -0.358292   -0.021834    1.028958
      4          1           0       -0.351314   -0.881613   -0.535752
      5          1           0        1.147694   -0.000123    0.004841
 ---------------------------------------------------------------------

 SCF Done:  E(RM062X) =  -40.4809350012     A.U. after    9 cycles

 The electronic state is 1-A.
 Alpha  occ. eigenvalues --  -10.53166  -0.78204  -0.46030  -0.46029  -0.44029
 Alpha virt. eigenvalues --    0.03928   0.07148   0.07148   0.07361   0.21072
 Alpha virt. eigenvalues --    0.23411   0.23411   0.30743   0.68911   0.68913
 Alpha virt. eigenvalues --    0.70624   0.96372   1.00645   1.00646   1.10782

 Mulliken charges:
               1
     1  C   -0.828075
     2  H    0.211954
     3  H    0.211973
     4  H    0.211953
     5  H    0.192195
 Sum of Mulliken charges =   0.00000

 Dipole moment (field-independent basis, Debye):
    X=             -0.0353    Y=              0.0000    Z=             -0.0002  Tot=              0.0353
 Quadrupole moment (field-independent basis, Debye-Ang):
   XX=             -8.5839   YY=             -8.4763   ZZ=             -8.4768
   XY=              0.0000   XZ=             -0.0013   YZ=             -0.0000

 Normal termination of Gaussian 16 at Fri Sep 22 17:01:27 2023.
