 Gaussian 16, Revision A.03,
 Gaussian 16:  ES64L-G16RevA.03 25-Dec-2016

 ------------------------------------------------------------------
 # 6-31+g(d) scrf=(solvent=water,pcm) int=ultrafine m062x scf=tight
 ------------------------------------------------------------------

 ----------------------
 tmpdir/M1_conf_7_1.gjf
 ----------------------
 Symbolic Z-matrix:
 Charge =  0 Multiplicity = 1

                         Standard orientation:
 ---------------------------------------------------------------------
 Center     Atomic      Atomic             Coordinates (Angstroms)
 Number     Number       Type             X           Y           Z
 ---------------------------------------------------------------------
      1          6           0       -0.014720    0.000016   -0.000004
      2          1           0       -0.352138   -0.712788   -0.745056
      3          1           0       -0.354678    1.000885   -0.244008
      4          1           0       -0.352082   -0.289877    0.989532
      5          1           0        1.147220    0.001686   -0.000445
 ---------------------------------------------------------------------

 SCF Done:  E(RM062X) =  -40.4809372733     A.U. after    9 cycles

 The electronic state is 1-A.
 Alpha  occ. eigenvalues --  -10.53153  -0.78213  -0.46044  -0.46041  -0.44019
 Alpha virt. eigenvalues --    0.03929   0.07147   0.07148   0.07362   0.21073
 Alpha virt. eigenvalues --    0.23424   0.23427   0.30752   0.68904   0.68906
 Alpha virt. eigenvalues --    0.70620   0.96363   1.00675   1.00682   1.10803

 Mulliken charges:
               1
     1  C   -0.828159
     2  H    0.211984
     3  H    0.212020
     4  H    0.212002
     5  H    0.192153
 Sum of Mulliken charges =  -0.00000

 Dipole moment (field-independent basis, Debye):
    X=             -0.0343    Y=             -0.0001    Z=              0.0001  Tot=              0.0343
 Quadrupole moment (field-independent basis, Debye-Ang):
   XX=             -8.5865   YY=             -8.4739   ZZ=             -8.4742
   XY=             -0.0005   XZ=              0.0001   YZ=             -0.0001

 Normal termination of Gaussian 16 at Fri Sep 22 17:02:02 2023.
