 Gaussian 16, Revision A.03,
 Gaussian 16:  ES64L-G16RevA.03 25-Dec-2016

 ------------------------------------------------------------------
 # 6-31+g(d) scrf=(solvent=water,pcm) int=ultrafine m062x scf=tight
 ------------------------------------------------------------------

 -----------------------
 tmpdir/M1_conf_16_1.gjf
 -----------------------
 Symbolic Z-matrix:
 Charge =  0 Multiplicity = 1

                         Standard orientation:
 ---------------------------------------------------------------------
 Center     Atomic      Atomic             Coordinates (Angstroms)
 Number     Number       Type             X           Y           Z
 ---------------------------------------------------------------------
      1          6           0       -0.015169   -0.000002    0.000002
      2          1           0       -0.350027   -0.530831   -0.884436
      3          1           0       -0.355711    1.029465   -0.016213
      4          1           0       -0.349759   -0.502623    0.900863
      5          1           0        1.146509    0.004003   -0.000225
 ---------------------------------------------------------------------

 SCF Done:  E(RM062X) =  -40.4809325746     A.U. after    9 cycles

 The electronic state is 1-A.
 Alpha  occ. eigenvalues --  -10.53139  -0.78226  -0.46066  -0.46063  -0.43999
 Alpha virt. eigenvalues --    0.03929   0.07146   0.07146   0.07363   0.21070
 Alpha virt. eigenvalues --    0.23445   0.23447   0.30763   0.68895   0.68896
 Alpha virt. eigenvalues --    0.70614   0.96338   1.00724   1.00729   1.10829

 Mulliken charges:
               1
     1  C   -0.828322
     2  H    0.212078
     3  H    0.212093
     4  H    0.212080
     5  H    0.192070
 Sum of Mulliken charges =   0.00000

 Dipole moment (field-independent basis, Debye):
    X=             -0.0325    Y=             -0.0003    Z=              0.0000  Tot=              0.0325
 Quadrupole moment (field-independent basis, Debye-Ang):
   XX=             -8.5915   YY=             -8.4699   ZZ=             -8.4704
   XY=             -0.0011   XZ=              0.0001   YZ=             -0.0000

 Normal termination of Gaussian 16 at Fri Sep 22 17:02:46 2023.
