 Gaussian 16, Revision A.03,
 Gaussian 16:  ES64L-G16RevA.03 25-Dec-2016

 ------------------------------------------------------------------
 # 6-31+g(d) scrf=(solvent=water,pcm) int=ultrafine m062x scf=tight
 ------------------------------------------------------------------

 -----------------------
 tmpdir/M1_conf_92_2.gjf
 -----------------------
 Symbolic Z-matrix:
 Charge =  0 Multiplicity = 1

                         Standard orientation:
 ---------------------------------------------------------------------
 Center     Atomic      Atomic             Coordinates (Angstroms)
 Number     Number       Type             X           Y           Z
 ---------------------------------------------------------------------
      1         17           0       -0.000000   -0.000000    0.094552
      2          1           0        0.000000    0.000000   -1.607383
 ---------------------------------------------------------------------

 SCF Done:  E(RM062X) =  -460.710975830     A.U. after    9 cycles

 The electronic state is 1-SG.
 Alpha  occ. eigenvalues -- -102.68507  -9.82836  -7.55264  -7.54553  -7.54553
 Alpha  occ. eigenvalues --   -0.90391  -0.47272  -0.39265  -0.39265
 Alpha virt. eigenvalues --   -0.06059   0.06526   0.08596   0.08596   0.09189
 Alpha virt. eigenvalues --    0.58066   0.62473   0.63845   0.63845   0.91352
 Alpha virt. eigenvalues --    0.91637   0.91637   0.93586   0.93586   1.00487

 Mulliken charges:
               1
     1  Cl  -0.310179
     2  H    0.310179
 Sum of Mulliken charges =   0.00000

 Dipole moment (field-independent basis, Debye):
    X=              0.0000    Y=              0.0000    Z=             -2.4366  Tot=              2.4366
 Quadrupole moment (field-independent basis, Debye-Ang):
   XX=            -14.6902   YY=            -14.6902   ZZ=             -8.6349
   XY=              0.0000   XZ=             -0.0000   YZ=              0.0000

 Normal termination of Gaussian 16 at Fri Sep 22 17:08:59 2023.
