 Gaussian 16, Revision A.03,
 Gaussian 16:  ES64L-G16RevA.03 25-Dec-2016

 ------------------------------------------------------------------
 # 6-31+g(d) scrf=(solvent=water,pcm) int=ultrafine m062x scf=tight
 ------------------------------------------------------------------

 -----------------------
 tmpdir/M1_conf_79_1.gjf
 -----------------------
 Symbolic Z-matrix:
 Charge =  0 Multiplicity = 1

                         Standard orientation:
 ---------------------------------------------------------------------
 Center     Atomic      Atomic             Coordinates (Angstroms)
 Number     Number       Type             X           Y           Z
 ---------------------------------------------------------------------
      1          6           0        0.109806   -0.000014    0.000214
      2          1           0        0.208699   -0.909901   -0.567363
      3          1           0        0.205349   -0.036835    1.072231
      4          1           0        0.208828    0.946648   -0.503617
      5          1           0       -1.281714    0.000170   -0.002539
 ---------------------------------------------------------------------

 SCF Done:  E(RM062X) =  -40.4390886806     A.U. after    9 cycles

 The electronic state is 1-A.
 Alpha  occ. eigenvalues --  -10.55350  -0.77786  -0.48276  -0.48276  -0.37544
 Alpha virt. eigenvalues --    0.03359   0.06911   0.06911   0.08023   0.13043
 Alpha virt. eigenvalues --    0.24517   0.24518   0.28868   0.68268   0.68269
 Alpha virt. eigenvalues --    0.72970   0.86551   1.03067   1.03068   1.09332

 Mulliken charges:
               1
     1  C   -0.830122
     2  H    0.235969
     3  H    0.235980
     4  H    0.235968
     5  H    0.122204
 Sum of Mulliken charges =  -0.00000

 Dipole moment (field-independent basis, Debye):
    X=              0.0326    Y=             -0.0000    Z=              0.0002  Tot=              0.0326
 Quadrupole moment (field-independent basis, Debye-Ang):
   XX=             -9.7979   YY=             -8.3154   ZZ=             -8.3156
   XY=              0.0002   XZ=             -0.0034   YZ=             -0.0000

 Normal termination of Gaussian 16 at Fri Sep 22 17:07:57 2023.
