 Gaussian 16, Revision A.03,
 Gaussian 16:  ES64L-G16RevA.03 25-Dec-2016

 ------------------------------------------------------------------
 # 6-31+g(d) scrf=(solvent=water,pcm) int=ultrafine m062x scf=tight
 ------------------------------------------------------------------

 -----------------------
 tmpdir/M1_conf_76_2.gjf
 -----------------------
 Symbolic Z-matrix:
 Charge =  0 Multiplicity = 1

                         Standard orientation:
 ---------------------------------------------------------------------
 Center     Atomic      Atomic             Coordinates (Angstroms)
 Number     Number       Type             X           Y           Z
 ---------------------------------------------------------------------
      1         17           0       -0.000000   -0.000000    0.089755
      2          1           0        0.000000    0.000000   -1.525827
 ---------------------------------------------------------------------

 SCF Done:  E(RM062X) =  -460.725187012     A.U. after    9 cycles

 The electronic state is 1-SG.
 Alpha  occ. eigenvalues -- -102.68380  -9.82782  -7.55205  -7.54504  -7.54504
 Alpha  occ. eigenvalues --   -0.90926  -0.48527  -0.39396  -0.39396
 Alpha virt. eigenvalues --   -0.03905   0.06714   0.08604   0.08604   0.09021
 Alpha virt. eigenvalues --    0.58396   0.62519   0.63783   0.63783   0.87993
 Alpha virt. eigenvalues --    0.91389   0.91389   0.93475   0.93477   1.05152

 Mulliken charges:
               1
     1  Cl  -0.303544
     2  H    0.303544
 Sum of Mulliken charges =   0.00000

 Dipole moment (field-independent basis, Debye):
    X=              0.0000    Y=              0.0000    Z=             -2.2907  Tot=              2.2907
 Quadrupole moment (field-independent basis, Debye-Ang):
   XX=            -14.6041   YY=            -14.6041   ZZ=             -9.0487
   XY=              0.0000   XZ=              0.0000   YZ=              0.0000

 Normal termination of Gaussian 16 at Fri Sep 22 17:07:40 2023.
