 Gaussian 16, Revision A.03,
 Gaussian 16:  ES64L-G16RevA.03 25-Dec-2016

 ------------------------------------------------------------------
 # 6-31+g(d) scrf=(solvent=water,pcm) int=ultrafine m062x scf=tight
 ------------------------------------------------------------------

 -----------------------
 tmpdir/M1_conf_91_1.gjf
 -----------------------
 Symbolic Z-matrix:
 Charge =  0 Multiplicity = 1

                         Standard orientation:
 ---------------------------------------------------------------------
 Center     Atomic      Atomic             Coordinates (Angstroms)
 Number     Number       Type             X           Y           Z
 ---------------------------------------------------------------------
      1          6           0        0.137961   -0.000007    0.000191
      2          1           0        0.161192   -0.910018   -0.574799
      3          1           0        0.158603   -0.043074    1.075794
      4          1           0        0.161208    0.953049   -0.500224
      5          1           0       -1.308771    0.000087   -0.001919
 ---------------------------------------------------------------------

 SCF Done:  E(RM062X) =  -40.4233392114     A.U. after    9 cycles

 The electronic state is 1-A.
 Alpha  occ. eigenvalues --  -10.55891  -0.77920  -0.48671  -0.48669  -0.36253
 Alpha virt. eigenvalues --    0.02957   0.06873   0.06873   0.08190   0.11159
 Alpha virt. eigenvalues --    0.24589   0.24590   0.28485   0.68139   0.68141
 Alpha virt. eigenvalues --    0.73149   0.85303   1.03104   1.03107   1.08672

 Mulliken charges:
               1
     1  C   -0.834986
     2  H    0.243292
     3  H    0.243300
     4  H    0.243282
     5  H    0.105111
 Sum of Mulliken charges =  -0.00000

 Dipole moment (field-independent basis, Debye):
    X=             -0.0163    Y=             -0.0001    Z=              0.0002  Tot=              0.0163
 Quadrupole moment (field-independent basis, Debye-Ang):
   XX=            -10.1488   YY=             -8.3151   ZZ=             -8.3156
   XY=              0.0001   XZ=             -0.0032   YZ=              0.0000

 Normal termination of Gaussian 16 at Fri Sep 22 17:08:57 2023.
