 Gaussian 16, Revision A.03,
 Gaussian 16:  ES64L-G16RevA.03 25-Dec-2016

 ------------------------------------------------------------------
 # 6-31+g(d) scrf=(solvent=water,pcm) int=ultrafine m062x scf=tight
 ------------------------------------------------------------------

 -----------------------
 tmpdir/M1_conf_23_1.gjf
 -----------------------
 Symbolic Z-matrix:
 Charge =  0 Multiplicity = 1

                         Standard orientation:
 ---------------------------------------------------------------------
 Center     Atomic      Atomic             Coordinates (Angstroms)
 Number     Number       Type             X           Y           Z
 ---------------------------------------------------------------------
      1          6           0        0.016129   -0.000013   -0.000001
      2          1           0        0.348703   -0.329317    0.977828
      3          1           0        0.353006    1.009882   -0.204339
      4          1           0        0.348464   -0.683519   -0.773022
      5          1           0       -1.146944    0.003032   -0.000464
 ---------------------------------------------------------------------

 SCF Done:  E(RM062X) =  -40.4807965810     A.U. after    9 cycles

 The electronic state is 1-A.
 Alpha  occ. eigenvalues --  -10.53140  -0.78228  -0.46099  -0.46098  -0.43932
 Alpha virt. eigenvalues --    0.03929   0.07143   0.07143   0.07369   0.21013
 Alpha virt. eigenvalues --    0.23474   0.23475   0.30760   0.68882   0.68882
 Alpha virt. eigenvalues --    0.70637   0.96223   1.00790   1.00793   1.10837

 Mulliken charges:
               1
     1  C   -0.828333
     2  H    0.212261
     3  H    0.212262
     4  H    0.212242
     5  H    0.191568
 Sum of Mulliken charges =  -0.00000

 Dipole moment (field-independent basis, Debye):
    X=              0.0309    Y=             -0.0002    Z=              0.0001  Tot=              0.0309
 Quadrupole moment (field-independent basis, Debye-Ang):
   XX=             -8.6024   YY=             -8.4653   ZZ=             -8.4655
   XY=              0.0008   XZ=             -0.0001   YZ=             -0.0000

 Normal termination of Gaussian 16 at Fri Sep 22 17:03:20 2023.
