 Gaussian 16, Revision A.03,
 Gaussian 16:  ES64L-G16RevA.03 25-Dec-2016

 ------------------------------------------------------------------
 # 6-31+g(d) scrf=(solvent=water,pcm) int=ultrafine m062x scf=tight
 ------------------------------------------------------------------

 -----------------------
 tmpdir/M1_conf_93_1.gjf
 -----------------------
 Symbolic Z-matrix:
 Charge =  0 Multiplicity = 1

                         Standard orientation:
 ---------------------------------------------------------------------
 Center     Atomic      Atomic             Coordinates (Angstroms)
 Number     Number       Type             X           Y           Z
 ---------------------------------------------------------------------
      1          6           0        0.142686   -0.000006    0.000185
      2          1           0        0.153185   -0.910644   -0.574228
      3          1           0        0.150725   -0.042248    1.076014
      4          1           0        0.153194    0.952853   -0.501082
      5          1           0       -1.313220    0.000077   -0.001816
 ---------------------------------------------------------------------

 SCF Done:  E(RM062X) =  -40.4206194821     A.U. after    9 cycles

 The electronic state is 1-A.
 Alpha  occ. eigenvalues --  -10.55978  -0.77951  -0.48723  -0.48721  -0.36062
 Alpha virt. eigenvalues --    0.02870   0.06868   0.06868   0.08217   0.10866
 Alpha virt. eigenvalues --    0.24588   0.24589   0.28431   0.68118   0.68120
 Alpha virt. eigenvalues --    0.73159   0.85164   1.03076   1.03080   1.08564

 Mulliken charges:
               1
     1  C   -0.835704
     2  H    0.244428
     3  H    0.244437
     4  H    0.244418
     5  H    0.102421
 Sum of Mulliken charges =  -0.00000

 Dipole moment (field-independent basis, Debye):
    X=             -0.0276    Y=             -0.0001    Z=              0.0002  Tot=              0.0276
 Quadrupole moment (field-independent basis, Debye-Ang):
   XX=            -10.2041   YY=             -8.3184   ZZ=             -8.3189
   XY=              0.0001   XZ=             -0.0031   YZ=              0.0000

 Normal termination of Gaussian 16 at Fri Sep 22 17:09:11 2023.
