 Gaussian 16, Revision A.03,
 Gaussian 16:  ES64L-G16RevA.03 25-Dec-2016

 ------------------------------------------------------------------
 # 6-31+g(d) scrf=(solvent=water,pcm) int=ultrafine m062x scf=tight
 ------------------------------------------------------------------

 -----------------------
 tmpdir/M1_conf_18_0.gjf
 -----------------------
 Symbolic Z-matrix:
 Charge = -1 Multiplicity = 1

                         Standard orientation:
 ---------------------------------------------------------------------
 Center     Atomic      Atomic             Coordinates (Angstroms)
 Number     Number       Type             X           Y           Z
 ---------------------------------------------------------------------
      1          7           0       -0.000000   -0.000000    0.542061
      2          6           0        0.000000    0.000000   -0.632405
 ---------------------------------------------------------------------

 SCF Done:  E(RM062X) =  -92.9322810546     A.U. after   10 cycles

 The electronic state is 1-SG.
 Alpha  occ. eigenvalues --  -14.69766 -10.49607  -0.93338  -0.43956  -0.34277
 Alpha  occ. eigenvalues --   -0.34277  -0.30676
 Alpha virt. eigenvalues --    0.04907   0.06840   0.06840   0.08736   0.14097
 Alpha virt. eigenvalues --    0.14097   0.16505   0.22749   0.22749   0.27845
 Alpha virt. eigenvalues --    0.52433   0.77410   0.77410   0.84209   1.00361

 Mulliken charges:
               1
     1  N   -0.668738
     2  C   -0.331262
 Sum of Mulliken charges =  -1.00000

 Dipole moment (field-independent basis, Debye):
    X=              0.0000    Y=              0.0000    Z=              0.4151  Tot=              0.4151
 Quadrupole moment (field-independent basis, Debye-Ang):
   XX=            -14.6403   YY=            -14.6403   ZZ=            -19.4968
   XY=             -0.0000   XZ=              0.0000   YZ=              0.0000

 Normal termination of Gaussian 16 at Fri Sep 22 17:02:53 2023.
