 Gaussian 16, Revision A.03,
 Gaussian 16:  ES64L-G16RevA.03 25-Dec-2016

 ------------------------------------------------------------------
 # 6-31+g(d) scrf=(solvent=water,pcm) int=ultrafine m062x scf=tight
 ------------------------------------------------------------------

 -----------------------
 tmpdir/M1_conf_76_1.gjf
 -----------------------
 Symbolic Z-matrix:
 Charge =  0 Multiplicity = 1

                         Standard orientation:
 ---------------------------------------------------------------------
 Center     Atomic      Atomic             Coordinates (Angstroms)
 Number     Number       Type             X           Y           Z
 ---------------------------------------------------------------------
      1          6           0        0.102883   -0.000015    0.000207
      2          1           0        0.220256   -0.907159   -0.568554
      3          1           0        0.216833   -0.039269    1.070511
      4          1           0        0.220410    0.946323   -0.500601
      5          1           0       -1.274798    0.000195   -0.002600
 ---------------------------------------------------------------------

 SCF Done:  E(RM062X) =  -40.4428104095     A.U. after    9 cycles

 The electronic state is 1-A.
 Alpha  occ. eigenvalues --  -10.55212  -0.77766  -0.48158  -0.48158  -0.37900
 Alpha virt. eigenvalues --    0.03432   0.06923   0.06923   0.07981   0.13537
 Alpha virt. eigenvalues --    0.24479   0.24479   0.28977   0.68300   0.68301
 Alpha virt. eigenvalues --    0.72897   0.86964   1.03005   1.03007   1.09480

 Mulliken charges:
               1
     1  C   -0.828911
     2  H    0.234079
     3  H    0.234093
     4  H    0.234082
     5  H    0.126658
 Sum of Mulliken charges =   0.00000

 Dipole moment (field-independent basis, Debye):
    X=              0.0403    Y=              0.0000    Z=              0.0002  Tot=              0.0403
 Quadrupole moment (field-independent basis, Debye-Ang):
   XX=             -9.7076   YY=             -8.3202   ZZ=             -8.3203
   XY=              0.0002   XZ=             -0.0033   YZ=             -0.0000

 Normal termination of Gaussian 16 at Fri Sep 22 17:07:42 2023.
