 Gaussian 16, Revision A.03,
 Gaussian 16:  ES64L-G16RevA.03 25-Dec-2016

 ------------------------------------------------------------------
 # 6-31+g(d) scrf=(solvent=water,pcm) int=ultrafine m062x scf=tight
 ------------------------------------------------------------------

 ------------------------
 tmpdir/M1_conf_107_2.gjf
 ------------------------
 Symbolic Z-matrix:
 Charge =  0 Multiplicity = 1

                         Standard orientation:
 ---------------------------------------------------------------------
 Center     Atomic      Atomic             Coordinates (Angstroms)
 Number     Number       Type             X           Y           Z
 ---------------------------------------------------------------------
      1         17           0        0.000000   -0.000000    0.099310
      2          1           0        0.000000    0.000000   -1.688265
 ---------------------------------------------------------------------

 SCF Done:  E(RM062X) =  -460.696752036     A.U. after    9 cycles

 The electronic state is 1-SG.
 Alpha  occ. eigenvalues -- -102.68570  -9.82842  -7.55275  -7.54555  -7.54555
 Alpha  occ. eigenvalues --   -0.89944  -0.46095  -0.39127  -0.39127
 Alpha virt. eigenvalues --   -0.08031   0.06398   0.08593   0.08593   0.09385
 Alpha virt. eigenvalues --    0.57878   0.62442   0.63924   0.63924   0.91870
 Alpha virt. eigenvalues --    0.91870   0.93706   0.93707   0.94135   0.96531

 Mulliken charges:
               1
     1  Cl  -0.317689
     2  H    0.317689
 Sum of Mulliken charges =  -0.00000

 Dipole moment (field-independent basis, Debye):
    X=             -0.0000    Y=              0.0000    Z=             -2.5959  Tot=              2.5959
 Quadrupole moment (field-independent basis, Debye-Ang):
   XX=            -14.7695   YY=            -14.7695   ZZ=             -8.1760
   XY=             -0.0000   XZ=             -0.0000   YZ=             -0.0000

 Normal termination of Gaussian 16 at Fri Sep 22 17:10:18 2023.
