 Gaussian 16, Revision A.03,
 Gaussian 16:  ES64L-G16RevA.03 25-Dec-2016

 ------------------------------------------------------------------
 # 6-31+g(d) scrf=(solvent=water,pcm) int=ultrafine m062x scf=tight
 ------------------------------------------------------------------

 -----------------------
 tmpdir/M1_conf_33_1.gjf
 -----------------------
 Symbolic Z-matrix:
 Charge =  0 Multiplicity = 1

                         Standard orientation:
 ---------------------------------------------------------------------
 Center     Atomic      Atomic             Coordinates (Angstroms)
 Number     Number       Type             X           Y           Z
 ---------------------------------------------------------------------
      1          6           0        0.021918    0.000004    0.000063
      2          1           0        0.345527   -0.894344   -0.518302
      3          1           0        0.336531   -0.003329    1.036476
      4          1           0        0.345107    0.897884   -0.512417
      5          1           0       -1.158673   -0.000236   -0.006137
 ---------------------------------------------------------------------

 SCF Done:  E(RM062X) =  -40.4792281529     A.U. after    9 cycles

 The electronic state is 1-A.
 Alpha  occ. eigenvalues --  -10.53300  -0.78144  -0.46264  -0.46261  -0.43429
 Alpha virt. eigenvalues --    0.03913   0.07124   0.07124   0.07416   0.20427
 Alpha virt. eigenvalues --    0.23568   0.23569   0.30627   0.68821   0.68823
 Alpha virt. eigenvalues --    0.70922   0.95267   1.01012   1.01015   1.10669

 Mulliken charges:
               1
     1  C   -0.827354
     2  H    0.213472
     3  H    0.213469
     4  H    0.213473
     5  H    0.186940
 Sum of Mulliken charges =   0.00000

 Dipole moment (field-independent basis, Debye):
    X=              0.0331    Y=              0.0000    Z=              0.0005  Tot=              0.0331
 Quadrupole moment (field-independent basis, Debye-Ang):
   XX=             -8.6677   YY=             -8.4533   ZZ=             -8.4542
   XY=             -0.0001   XZ=             -0.0020   YZ=             -0.0000

 Normal termination of Gaussian 16 at Fri Sep 22 17:04:09 2023.
