 Gaussian 16, Revision A.03,
 Gaussian 16:  ES64L-G16RevA.03 25-Dec-2016

 ------------------------------------------------------------------
 # 6-31+g(d) scrf=(solvent=water,pcm) int=ultrafine m062x scf=tight
 ------------------------------------------------------------------

 ------------------------
 tmpdir/M1_conf_111_1.gjf
 ------------------------
 Symbolic Z-matrix:
 Charge =  0 Multiplicity = 1

                         Standard orientation:
 ---------------------------------------------------------------------
 Center     Atomic      Atomic             Coordinates (Angstroms)
 Number     Number       Type             X           Y           Z
 ---------------------------------------------------------------------
      1          6           0        0.187209   -0.000003    0.000164
      2          1           0        0.077924   -0.923228   -0.545418
      3          1           0        0.076147   -0.010903    1.072239
      4          1           0        0.077946    0.934121   -0.526543
      5          1           0       -1.355273    0.000027   -0.001263
 ---------------------------------------------------------------------

 SCF Done:  E(RM062X) =  -40.3943542176     A.U. after    9 cycles

 The electronic state is 1-A.
 Alpha  occ. eigenvalues --  -10.56728  -0.78323  -0.48984  -0.48981  -0.34608
 Alpha virt. eigenvalues --    0.01649   0.06848   0.06848   0.08407   0.08625
 Alpha virt. eigenvalues --    0.24372   0.24374   0.28091   0.67921   0.67923
 Alpha virt. eigenvalues --    0.73007   0.84807   1.02352   1.02357   1.07894

 Mulliken charges:
               1
     1  C   -0.839230
     2  H    0.252927
     3  H    0.252933
     4  H    0.252930
     5  H    0.080439
 Sum of Mulliken charges =  -0.00000

 Dipole moment (field-independent basis, Debye):
    X=             -0.1841    Y=              0.0000    Z=             -0.0000  Tot=              0.1841
 Quadrupole moment (field-independent basis, Debye-Ang):
   XX=            -10.6427   YY=             -8.4005   ZZ=             -8.4015
   XY=              0.0001   XZ=             -0.0028   YZ=             -0.0000

 Normal termination of Gaussian 16 at Fri Sep 22 17:10:41 2023.
