 Gaussian 16, Revision A.03,
 Gaussian 16:  ES64L-G16RevA.03 25-Dec-2016

 ------------------------------------------------------------------
 # 6-31+g(d) scrf=(solvent=water,pcm) int=ultrafine m062x scf=tight
 ------------------------------------------------------------------

 ----------------------
 tmpdir/M1_conf_9_1.gjf
 ----------------------
 Symbolic Z-matrix:
 Charge =  0 Multiplicity = 1

                         Standard orientation:
 ---------------------------------------------------------------------
 Center     Atomic      Atomic             Coordinates (Angstroms)
 Number     Number       Type             X           Y           Z
 ---------------------------------------------------------------------
      1          6           0       -0.014790    0.000021   -0.000001
      2          1           0       -0.352110   -0.592651   -0.843702
      3          1           0       -0.354229    1.026289   -0.090826
      4          1           0       -0.352007   -0.435215    0.934727
      5          1           0        1.147087    0.001452   -0.000190
 ---------------------------------------------------------------------

 SCF Done:  E(RM062X) =  -40.4809380906     A.U. after    9 cycles

 The electronic state is 1-A.
 Alpha  occ. eigenvalues --  -10.53151  -0.78216  -0.46049  -0.46045  -0.44016
 Alpha virt. eigenvalues --    0.03929   0.07147   0.07147   0.07362   0.21073
 Alpha virt. eigenvalues --    0.23428   0.23431   0.30754   0.68902   0.68904
 Alpha virt. eigenvalues --    0.70618   0.96359   1.00683   1.00690   1.10807

 Mulliken charges:
               1
     1  C   -0.828195
     2  H    0.212002
     3  H    0.212032
     4  H    0.212015
     5  H    0.192146
 Sum of Mulliken charges =  -0.00000

 Dipole moment (field-independent basis, Debye):
    X=             -0.0340    Y=             -0.0001    Z=              0.0001  Tot=              0.0340
 Quadrupole moment (field-independent basis, Debye-Ang):
   XX=             -8.5872   YY=             -8.4732   ZZ=             -8.4736
   XY=             -0.0005   XZ=              0.0001   YZ=             -0.0000

 Normal termination of Gaussian 16 at Fri Sep 22 17:02:11 2023.
