 Gaussian 16, Revision A.03,
 Gaussian 16:  ES64L-G16RevA.03 25-Dec-2016

 ------------------------------------------------------------------
 # 6-31+g(d) scrf=(solvent=water,pcm) int=ultrafine m062x scf=tight
 ------------------------------------------------------------------

 ------------------------
 tmpdir/M1_conf_100_1.gjf
 ------------------------
 Symbolic Z-matrix:
 Charge =  0 Multiplicity = 1

                         Standard orientation:
 ---------------------------------------------------------------------
 Center     Atomic      Atomic             Coordinates (Angstroms)
 Number     Number       Type             X           Y           Z
 ---------------------------------------------------------------------
      1          6           0        0.161585   -0.000004    0.000166
      2          1           0        0.121130   -0.917598   -0.562263
      3          1           0        0.119121   -0.028351    1.075910
      4          1           0        0.121139    0.945926   -0.513178
      5          1           0       -1.330901    0.000044   -0.001464
 ---------------------------------------------------------------------

 SCF Done:  E(RM062X) =  -40.4095918674     A.U. after    9 cycles

 The electronic state is 1-A.
 Alpha  occ. eigenvalues --  -10.56312  -0.78091  -0.48886  -0.48884  -0.35366
 Alpha virt. eigenvalues --    0.02447   0.06854   0.06854   0.08322   0.09783
 Alpha virt. eigenvalues --    0.24541   0.24543   0.28248   0.68031   0.68033
 Alpha virt. eigenvalues --    0.73145   0.84805   1.02872   1.02876   1.08186

 Mulliken charges:
               1
     1  C   -0.838027
     2  H    0.248574
     3  H    0.248588
     4  H    0.248572
     5  H    0.092293
 Sum of Mulliken charges =  -0.00000

 Dipole moment (field-independent basis, Debye):
    X=             -0.0827    Y=             -0.0000    Z=              0.0001  Tot=              0.0827
 Quadrupole moment (field-independent basis, Debye-Ang):
   XX=            -10.4108   YY=             -8.3415   ZZ=             -8.3423
   XY=              0.0001   XZ=             -0.0028   YZ=             -0.0000

 Normal termination of Gaussian 16 at Fri Sep 22 17:09:46 2023.
