 Gaussian 16, Revision A.03,
 Gaussian 16:  ES64L-G16RevA.03 25-Dec-2016

 ------------------------------------------------------------------
 # 6-31+g(d) scrf=(solvent=water,pcm) int=ultrafine m062x scf=tight
 ------------------------------------------------------------------

 -----------------------
 tmpdir/M1_conf_47_2.gjf
 -----------------------
 Symbolic Z-matrix:
 Charge =  0 Multiplicity = 1

                         Standard orientation:
 ---------------------------------------------------------------------
 Center     Atomic      Atomic             Coordinates (Angstroms)
 Number     Number       Type             X           Y           Z
 ---------------------------------------------------------------------
      1         17           0       -0.000000   -0.000000    0.081071
      2          1           0        0.000000    0.000000   -1.378203
 ---------------------------------------------------------------------

 SCF Done:  E(RM062X) =  -460.748229328     A.U. after    8 cycles

 The electronic state is 1-SG.
 Alpha  occ. eigenvalues -- -102.68017  -9.82604  -7.55016  -7.54334  -7.54334
 Alpha  occ. eigenvalues --   -0.92235  -0.50957  -0.39648  -0.39648
 Alpha virt. eigenvalues --    0.00064   0.07328   0.08619   0.08619   0.08937
 Alpha virt. eigenvalues --    0.58968   0.62515   0.63698   0.63698   0.81901
 Alpha virt. eigenvalues --    0.90829   0.90829   0.93272   0.93273   1.15374

 Mulliken charges:
               1
     1  Cl  -0.291945
     2  H    0.291945
 Sum of Mulliken charges =  -0.00000

 Dipole moment (field-independent basis, Debye):
    X=              0.0000    Y=              0.0000    Z=             -2.0505  Tot=              2.0505
 Quadrupole moment (field-independent basis, Debye-Ang):
   XX=            -14.4302   YY=            -14.4302   ZZ=             -9.6859
   XY=              0.0000   XZ=              0.0000   YZ=              0.0000

 Normal termination of Gaussian 16 at Fri Sep 22 17:05:15 2023.
