 Gaussian 16, Revision A.03,
 Gaussian 16:  ES64L-G16RevA.03 25-Dec-2016

 ------------------------------------------------------------------
 # 6-31+g(d) scrf=(solvent=water,pcm) int=ultrafine m062x scf=tight
 ------------------------------------------------------------------

 ----------------------
 tmpdir/M1_conf_6_1.gjf
 ----------------------
 Symbolic Z-matrix:
 Charge =  0 Multiplicity = 1

                         Standard orientation:
 ---------------------------------------------------------------------
 Center     Atomic      Atomic             Coordinates (Angstroms)
 Number     Number       Type             X           Y           Z
 ---------------------------------------------------------------------
      1          6           0        0.014688   -0.000008   -0.000010
      2          1           0        0.352081    1.019343   -0.155618
      3          1           0        0.355030   -0.644269   -0.803763
      4          1           0        0.352044   -0.373780    0.961030
      5          1           0       -1.147282   -0.001248   -0.001592
 ---------------------------------------------------------------------

 SCF Done:  E(RM062X) =  -40.4809371659     A.U. after    9 cycles

 The electronic state is 1-A.
 Alpha  occ. eigenvalues --  -10.53155  -0.78212  -0.46043  -0.46040  -0.44020
 Alpha virt. eigenvalues --    0.03929   0.07147   0.07148   0.07362   0.21073
 Alpha virt. eigenvalues --    0.23423   0.23425   0.30751   0.68905   0.68907
 Alpha virt. eigenvalues --    0.70620   0.96364   1.00671   1.00678   1.10800

 Mulliken charges:
               1
     1  C   -0.828145
     2  H    0.211987
     3  H    0.212002
     4  H    0.211998
     5  H    0.192157
 Sum of Mulliken charges =   0.00000

 Dipole moment (field-independent basis, Debye):
    X=              0.0344    Y=              0.0001    Z=              0.0002  Tot=              0.0344
 Quadrupole moment (field-independent basis, Debye-Ang):
   XX=             -8.5861   YY=             -8.4744   ZZ=             -8.4744
   XY=             -0.0004   XZ=             -0.0005   YZ=              0.0001

 Normal termination of Gaussian 16 at Fri Sep 22 17:01:57 2023.
