 Gaussian 16, Revision A.03,
 Gaussian 16:  ES64L-G16RevA.03 25-Dec-2016

 ------------------------------------------------------------------
 # 6-31+g(d) scrf=(solvent=water,pcm) int=ultrafine m062x scf=tight
 ------------------------------------------------------------------

 -----------------------
 tmpdir/M1_conf_65_1.gjf
 -----------------------
 Symbolic Z-matrix:
 Charge =  0 Multiplicity = 1

                         Standard orientation:
 ---------------------------------------------------------------------
 Center     Atomic      Atomic             Coordinates (Angstroms)
 Number     Number       Type             X           Y           Z
 ---------------------------------------------------------------------
      1          6           0        0.078426   -0.000009    0.000259
      2          1           0        0.261118   -0.914348   -0.541068
      3          1           0        0.255407   -0.012251    1.063682
      4          1           0        0.261277    0.926505   -0.519903
      5          1           0       -1.248360    0.000150   -0.004267
 ---------------------------------------------------------------------

 SCF Done:  E(RM062X) =  -40.4553703252     A.U. after    8 cycles

 The electronic state is 1-A.
 Alpha  occ. eigenvalues --  -10.54706  -0.77745  -0.47676  -0.47676  -0.39287
 Alpha virt. eigenvalues --    0.03640   0.06971   0.06971   0.07827   0.15367
 Alpha virt. eigenvalues --    0.24283   0.24285   0.29403   0.68420   0.68421
 Alpha virt. eigenvalues --    0.72556   0.88744   1.02627   1.02629   1.09875

 Mulliken charges:
               1
     1  C   -0.825366
     2  H    0.227379
     3  H    0.227400
     4  H    0.227381
     5  H    0.143205
 Sum of Mulliken charges =  -0.00000

 Dipole moment (field-independent basis, Debye):
    X=              0.0548    Y=              0.0000    Z=              0.0004  Tot=              0.0548
 Quadrupole moment (field-independent basis, Debye-Ang):
   XX=             -9.3836   YY=             -8.3497   ZZ=             -8.3497
   XY=              0.0002   XZ=             -0.0042   YZ=              0.0000

 Normal termination of Gaussian 16 at Fri Sep 22 17:06:48 2023.
