 Gaussian 16, Revision A.03,
 Gaussian 16:  ES64L-G16RevA.03 25-Dec-2016

 ------------------------------------------------------------------
 # 6-31+g(d) scrf=(solvent=water,pcm) int=ultrafine m062x scf=tight
 ------------------------------------------------------------------

 -----------------------
 tmpdir/M1_conf_50_0.gjf
 -----------------------
 Symbolic Z-matrix:
 Charge = -1 Multiplicity = 1

                         Standard orientation:
 ---------------------------------------------------------------------
 Center     Atomic      Atomic             Coordinates (Angstroms)
 Number     Number       Type             X           Y           Z
 ---------------------------------------------------------------------
      1          7           0       -0.000000   -0.000000    0.540839
      2          6           0        0.000000    0.000000   -0.630979
 ---------------------------------------------------------------------

 SCF Done:  E(RM062X) =  -92.9322471383     A.U. after   10 cycles

 The electronic state is 1-SG.
 Alpha  occ. eigenvalues --  -14.69702 -10.49519  -0.93434  -0.43907  -0.34332
 Alpha  occ. eigenvalues --   -0.34332  -0.30669
 Alpha virt. eigenvalues --    0.04905   0.06850   0.06850   0.08738   0.14137
 Alpha virt. eigenvalues --    0.14137   0.16517   0.22803   0.22803   0.27857
 Alpha virt. eigenvalues --    0.52486   0.77422   0.77422   0.84306   1.00423

 Mulliken charges:
               1
     1  N   -0.668997
     2  C   -0.331003
 Sum of Mulliken charges =  -1.00000

 Dipole moment (field-independent basis, Debye):
    X=             -0.0000    Y=             -0.0000    Z=              0.4225  Tot=              0.4225
 Quadrupole moment (field-independent basis, Debye-Ang):
   XX=            -14.6299   YY=            -14.6299   ZZ=            -19.4886
   XY=              0.0000   XZ=              0.0000   YZ=              0.0000

 Normal termination of Gaussian 16 at Fri Sep 22 17:05:30 2023.
