 Gaussian 16, Revision A.03,
 Gaussian 16:  ES64L-G16RevA.03 25-Dec-2016

 ------------------------------------------------------------------
 # 6-31+g(d) scrf=(solvent=water,pcm) int=ultrafine m062x scf=tight
 ------------------------------------------------------------------

 -----------------------
 tmpdir/M1_conf_59_1.gjf
 -----------------------
 Symbolic Z-matrix:
 Charge =  0 Multiplicity = 1

                         Standard orientation:
 ---------------------------------------------------------------------
 Center     Atomic      Atomic             Coordinates (Angstroms)
 Number     Number       Type             X           Y           Z
 ---------------------------------------------------------------------
      1          6           0       -0.066023    0.000001    0.000296
      2          1           0       -0.281582    0.924529   -0.512554
      3          1           0       -0.273542   -0.017140    1.058958
      4          1           0       -0.281755   -0.907384   -0.542242
      5          1           0        1.233018   -0.000014   -0.005936
 ---------------------------------------------------------------------

 SCF Done:  E(RM062X) =  -40.4613461004     A.U. after    9 cycles

 The electronic state is 1-A.
 Alpha  occ. eigenvalues --  -10.54435  -0.77768  -0.47396  -0.47396  -0.40074
 Alpha virt. eigenvalues --    0.03720   0.07000   0.07000   0.07744   0.16358
 Alpha virt. eigenvalues --    0.24152   0.24153   0.29642   0.68490   0.68491
 Alpha virt. eigenvalues --    0.72328   0.89841   1.02347   1.02348   1.10000

 Mulliken charges:
               1
     1  C   -0.824349
     2  H    0.224066
     3  H    0.224082
     4  H    0.224063
     5  H    0.152137
 Sum of Mulliken charges =   0.00000

 Dipole moment (field-independent basis, Debye):
    X=             -0.0552    Y=              0.0000    Z=              0.0005  Tot=              0.0552
 Quadrupole moment (field-independent basis, Debye-Ang):
   XX=             -9.2192   YY=             -8.3704   ZZ=             -8.3707
   XY=              0.0000   XZ=              0.0050   YZ=             -0.0000

 Normal termination of Gaussian 16 at Fri Sep 22 17:06:18 2023.
