 Gaussian 16, Revision A.03,
 Gaussian 16:  ES64L-G16RevA.03 25-Dec-2016

 ------------------------------------------------------------------
 # 6-31+g(d) scrf=(solvent=water,pcm) int=ultrafine m062x scf=tight
 ------------------------------------------------------------------

 -----------------------
 tmpdir/M1_conf_30_1.gjf
 -----------------------
 Symbolic Z-matrix:
 Charge =  0 Multiplicity = 1

                         Standard orientation:
 ---------------------------------------------------------------------
 Center     Atomic      Atomic             Coordinates (Angstroms)
 Number     Number       Type             X           Y           Z
 ---------------------------------------------------------------------
      1          6           0        0.019415    0.000004    0.000033
      2          1           0        0.347642   -0.887751   -0.527331
      3          1           0        0.342063   -0.013759    1.034226
      4          1           0        0.347144    0.901738   -0.503372
      5          1           0       -1.153339   -0.000253   -0.003720
 ---------------------------------------------------------------------

 SCF Done:  E(RM062X) =  -40.4799617953     A.U. after    9 cycles

 The electronic state is 1-A.
 Alpha  occ. eigenvalues --  -10.53226  -0.78183  -0.46194  -0.46193  -0.43649
 Alpha virt. eigenvalues --    0.03920   0.07132   0.07132   0.07395   0.20687
 Alpha virt. eigenvalues --    0.23530   0.23531   0.30689   0.68846   0.68847
 Alpha virt. eigenvalues --    0.70797   0.95681   1.00924   1.00925   1.10746

 Mulliken charges:
               1
     1  C   -0.827819
     2  H    0.212939
     3  H    0.212938
     4  H    0.212940
     5  H    0.189002
 Sum of Mulliken charges =  -0.00000

 Dipole moment (field-independent basis, Debye):
    X=              0.0317    Y=              0.0000    Z=              0.0003  Tot=              0.0317
 Quadrupole moment (field-independent basis, Debye-Ang):
   XX=             -8.6392   YY=             -8.4579   ZZ=             -8.4584
   XY=             -0.0001   XZ=             -0.0011   YZ=             -0.0000

 Normal termination of Gaussian 16 at Fri Sep 22 17:03:54 2023.
