 Gaussian 16, Revision A.03,
 Gaussian 16:  ES64L-G16RevA.03 25-Dec-2016

 ------------------------------------------------------------------
 # 6-31+g(d) scrf=(solvent=water,pcm) int=ultrafine m062x scf=tight
 ------------------------------------------------------------------

 ----------------------
 tmpdir/M1_conf_1_2.gjf
 ----------------------
 Symbolic Z-matrix:
 Charge =  0 Multiplicity = 1

                         Standard orientation:
 ---------------------------------------------------------------------
 Center     Atomic      Atomic             Coordinates (Angstroms)
 Number     Number       Type             X           Y           Z
 ---------------------------------------------------------------------
      1         17           0       -0.000000   -0.000000    0.075712
      2          1           0        0.000000    0.000000   -1.287096
 ---------------------------------------------------------------------

 SCF Done:  E(RM062X) =  -460.758034438     A.U. after    8 cycles

 The electronic state is 1-SG.
 Alpha  occ. eigenvalues -- -102.67697  -9.82443  -7.54853  -7.54175  -7.54175
 Alpha  occ. eigenvalues --   -0.93351  -0.52516  -0.39814  -0.39814
 Alpha virt. eigenvalues --    0.02087   0.07755   0.08630   0.08630   0.09551
 Alpha virt. eigenvalues --    0.58847   0.62362   0.63669   0.63669   0.79428
 Alpha virt. eigenvalues --    0.90403   0.90403   0.93140   0.93145   1.23134

 Mulliken charges:
               1
     1  Cl  -0.284398
     2  H    0.284398
 Sum of Mulliken charges =  -0.00000

 Dipole moment (field-independent basis, Debye):
    X=              0.0000    Y=              0.0000    Z=             -1.9152  Tot=              1.9152
 Quadrupole moment (field-independent basis, Debye-Ang):
   XX=            -14.3120   YY=            -14.3120   ZZ=            -10.0095
   XY=              0.0000   XZ=              0.0000   YZ=             -0.0000

 Normal termination of Gaussian 16 at Fri Sep 22 17:01:29 2023.
