 Gaussian 16, Revision A.03,
 Gaussian 16:  ES64L-G16RevA.03 25-Dec-2016

 ------------------------------------------------------------------
 # 6-31+g(d) scrf=(solvent=water,pcm) int=ultrafine m062x scf=tight
 ------------------------------------------------------------------

 ------------------------
 tmpdir/M1_conf_106_1.gjf
 ------------------------
 Symbolic Z-matrix:
 Charge =  0 Multiplicity = 1

                         Standard orientation:
 ---------------------------------------------------------------------
 Center     Atomic      Atomic             Coordinates (Angstroms)
 Number     Number       Type             X           Y           Z
 ---------------------------------------------------------------------
      1          6           0        0.175663   -0.000003    0.000164
      2          1           0        0.097335   -0.921688   -0.552311
      3          1           0        0.095483   -0.017660    1.074396
      4          1           0        0.097347    0.939334   -0.521736
      5          1           0       -1.344144    0.000030   -0.001331
 ---------------------------------------------------------------------

 SCF Done:  E(RM062X) =  -40.4012565351     A.U. after    9 cycles

 The electronic state is 1-A.
 Alpha  occ. eigenvalues --  -10.56546  -0.78214  -0.48958  -0.48956  -0.34923
 Alpha virt. eigenvalues --    0.02043   0.06849   0.06849   0.08391   0.09085
 Alpha virt. eigenvalues --    0.24464   0.24466   0.28149   0.67968   0.67971
 Alpha virt. eigenvalues --    0.73084   0.84739   1.02620   1.02625   1.07987

 Mulliken charges:
               1
     1  C   -0.839010
     2  H    0.251167
     3  H    0.251179
     4  H    0.251169
     5  H    0.085496
 Sum of Mulliken charges =   0.00000

 Dipole moment (field-independent basis, Debye):
    X=             -0.1346    Y=              0.0000    Z=              0.0000  Tot=              0.1346
 Quadrupole moment (field-independent basis, Debye-Ang):
   XX=            -10.5461   YY=             -8.3698   ZZ=             -8.3708
   XY=              0.0001   XZ=             -0.0028   YZ=             -0.0000

 Normal termination of Gaussian 16 at Fri Sep 22 17:10:16 2023.
