 Gaussian 16, Revision A.03,
 Gaussian 16:  ES64L-G16RevA.03 25-Dec-2016

 ------------------------------------------------------------------
 # 6-31+g(d) scrf=(solvent=water,pcm) int=ultrafine m062x scf=tight
 ------------------------------------------------------------------

 -----------------------
 tmpdir/M1_conf_73_1.gjf
 -----------------------
 Symbolic Z-matrix:
 Charge =  0 Multiplicity = 1

                         Standard orientation:
 ---------------------------------------------------------------------
 Center     Atomic      Atomic             Coordinates (Angstroms)
 Number     Number       Type             X           Y           Z
 ---------------------------------------------------------------------
      1          6           0        0.096046   -0.000017    0.000209
      2          1           0        0.231669   -0.901207   -0.574336
      3          1           0        0.227993   -0.047312    1.068339
      4          1           0        0.231838    0.948388   -0.492467
      5          1           0       -1.267778    0.000232   -0.002788
 ---------------------------------------------------------------------

 SCF Done:  E(RM062X) =  -40.4464170049     A.U. after    9 cycles

 The electronic state is 1-A.
 Alpha  occ. eigenvalues --  -10.55073  -0.77753  -0.48033  -0.48033  -0.38267
 Alpha virt. eigenvalues --    0.03498   0.06935   0.06935   0.07938   0.14034
 Alpha virt. eigenvalues --    0.24434   0.24434   0.29090   0.68332   0.68332
 Alpha virt. eigenvalues --    0.72814   0.87412   1.02925   1.02927   1.09611

 Mulliken charges:
               1
     1  C   -0.827776
     2  H    0.232201
     3  H    0.232216
     4  H    0.232207
     5  H    0.131152
 Sum of Mulliken charges =  -0.00000

 Dipole moment (field-independent basis, Debye):
    X=              0.0463    Y=              0.0000    Z=              0.0002  Tot=              0.0463
 Quadrupole moment (field-independent basis, Debye-Ang):
   XX=             -9.6176   YY=             -8.3266   ZZ=             -8.3267
   XY=              0.0003   XZ=             -0.0033   YZ=             -0.0000

 Normal termination of Gaussian 16 at Fri Sep 22 17:07:28 2023.
