 Gaussian 16, Revision A.03,
 Gaussian 16:  ES64L-G16RevA.03 25-Dec-2016

 ------------------------------------------------------------------
 # 6-31+g(d) scrf=(solvent=water,pcm) int=ultrafine m062x scf=tight
 ------------------------------------------------------------------

 -----------------------
 tmpdir/M2_conf_54_4.gjf
 -----------------------
 Symbolic Z-matrix:
 Charge =  0 Multiplicity = 1

                         Standard orientation:
 ---------------------------------------------------------------------
 Center     Atomic      Atomic             Coordinates (Angstroms)
 Number     Number       Type             X           Y           Z
 ---------------------------------------------------------------------
      1          6           0       -0.000000   -1.257629    0.000000
      2         17           0       -0.000000    0.725571    0.000000
      3          1           0       -1.033730   -1.596309    0.000000
      4          1           0        0.516870   -1.596309    0.895240
      5          1           0        0.516870   -1.596309   -0.895240
 ---------------------------------------------------------------------

 SCF Done:  E(RM062X) =  -500.040630513     A.U. after   10 cycles

 The electronic state is 1-A'.
 Alpha  occ. eigenvalues -- -102.66446 -10.61821  -9.80948  -7.53334  -7.52695
 Alpha  occ. eigenvalues --   -7.52695  -0.92086  -0.78293  -0.51203  -0.51202
 Alpha  occ. eigenvalues --   -0.45114  -0.37268  -0.37267
 Alpha virt. eigenvalues --   -0.00434   0.03610   0.07023   0.07024   0.08351
 Alpha virt. eigenvalues --    0.09807   0.10995   0.10995   0.17260   0.21934
 Alpha virt. eigenvalues --    0.21934   0.29888   0.61117   0.62303   0.62303

 Mulliken charges:
               1
     1  C   -0.653398
     2  Cl  -0.159348
     3  H    0.270913
     4  H    0.270917
     5  H    0.270917
 Sum of Mulliken charges =  -0.00000

 Dipole moment (field-independent basis, Debye):
    X=              0.0002    Y=             -3.3055    Z=             -0.0000  Tot=              3.3055
 Quadrupole moment (field-independent basis, Debye-Ang):
   XX=            -20.2528   YY=            -17.0333   ZZ=            -20.2528
   XY=              0.0001   XZ=              0.0000   YZ=              0.0000

 Normal termination of Gaussian 16 at Fri Sep 22 17:14:06 2023.
