 Gaussian 16, Revision A.03,
 Gaussian 16:  ES64L-G16RevA.03 25-Dec-2016

 ------------------------------------------------------------------
 # 6-31+g(d) scrf=(solvent=water,pcm) int=ultrafine m062x scf=tight
 ------------------------------------------------------------------

 -----------------------
 tmpdir/M2_conf_21_5.gjf
 -----------------------
 Symbolic Z-matrix:
 Charge =  0 Multiplicity = 1

                         Standard orientation:
 ---------------------------------------------------------------------
 Center     Atomic      Atomic             Coordinates (Angstroms)
 Number     Number       Type             X           Y           Z
 ---------------------------------------------------------------------
      1          1           0        0.351360    0.972225   -0.353362
      2          6           0        0.014170    0.000115   -0.000358
      3          1           0        0.339045   -0.790949   -0.672659
      4          1           0        0.366870   -0.186396    1.011631
      5          1           0       -1.142296    0.004431    0.016535
 ---------------------------------------------------------------------

 SCF Done:  E(RM062X) =  -40.4813454081     A.U. after    9 cycles

 The electronic state is 1-A.
 Alpha  occ. eigenvalues --  -10.53191  -0.78171  -0.46000  -0.45962  -0.44086
 Alpha virt. eigenvalues --    0.03928   0.07152   0.07155   0.07351   0.21191
 Alpha virt. eigenvalues --    0.23322   0.23350   0.30699   0.68992   0.68994
 Alpha virt. eigenvalues --    0.70529   0.96513   1.00467   1.00535   1.10741

 Mulliken charges:
               1
     1  H    0.211562
     2  C   -0.828084
     3  H    0.211507
     4  H    0.211487
     5  H    0.193528
 Sum of Mulliken charges =   0.00000

 Dipole moment (field-independent basis, Debye):
    X=              0.0258    Y=             -0.0008    Z=              0.0002  Tot=              0.0258
 Quadrupole moment (field-independent basis, Debye-Ang):
   XX=             -8.5952   YY=             -8.4694   ZZ=             -8.4777
   XY=              0.0011   XZ=              0.0036   YZ=             -0.0001

 Normal termination of Gaussian 16 at Fri Sep 22 17:10:25 2023.
