 Gaussian 16, Revision A.03,
 Gaussian 16:  ES64L-G16RevA.03 25-Dec-2016

 ------------------------------------------------------------------
 # 6-31+g(d) scrf=(solvent=water,pcm) int=ultrafine m062x scf=tight
 ------------------------------------------------------------------

 ------------------------
 tmpdir/M2_conf_116_7.gjf
 ------------------------
 Symbolic Z-matrix:
 Charge =  0 Multiplicity = 1

                         Standard orientation:
 ---------------------------------------------------------------------
 Center     Atomic      Atomic             Coordinates (Angstroms)
 Number     Number       Type             X           Y           Z
 ---------------------------------------------------------------------
      1          1           0        1.061739    0.998995    0.000000
      2          6           0       -0.016878    1.140042   -0.000000
      3         17           0       -0.016878   -0.657462   -0.000000
      4          1           0       -0.336768    1.668804    0.895200
      5          1           0       -0.336768    1.668804   -0.895200
 ---------------------------------------------------------------------

 SCF Done:  E(RM062X) =  -500.023429560     A.U. after   11 cycles

 The electronic state is 1-A'.
 Alpha  occ. eigenvalues -- -102.66453 -10.59877  -9.81227  -7.53628  -7.52961
 Alpha  occ. eigenvalues --   -7.52940  -0.96188  -0.76525  -0.53473  -0.51581
 Alpha  occ. eigenvalues --   -0.46368  -0.37302  -0.35267
 Alpha virt. eigenvalues --    0.02272   0.03538   0.06802   0.06969   0.09058
 Alpha virt. eigenvalues --    0.10490   0.11064   0.11787   0.17613   0.21493
 Alpha virt. eigenvalues --    0.22949   0.28572   0.59906   0.63029   0.65246

 Mulliken charges:
               1
     1  H    0.243131
     2  C   -0.682586
     3  Cl  -0.093287
     4  H    0.266371
     5  H    0.266371
 Sum of Mulliken charges =  -0.00000

 Dipole moment (field-independent basis, Debye):
    X=              0.2449    Y=              2.5224    Z=              0.0000  Tot=              2.5343
 Quadrupole moment (field-independent basis, Debye-Ang):
   XX=            -20.4297   YY=            -18.0348   ZZ=            -20.0018
   XY=             -0.7091   XZ=             -0.0000   YZ=             -0.0000

 Normal termination of Gaussian 16 at Fri Sep 22 17:21:15 2023.
