 Gaussian 16, Revision A.03,
 Gaussian 16:  ES64L-G16RevA.03 25-Dec-2016

 ------------------------------------------------------------------
 # 6-31+g(d) scrf=(solvent=water,pcm) int=ultrafine m062x scf=tight
 ------------------------------------------------------------------

 -----------------------
 tmpdir/M2_conf_54_5.gjf
 -----------------------
 Symbolic Z-matrix:
 Charge =  0 Multiplicity = 1

                         Standard orientation:
 ---------------------------------------------------------------------
 Center     Atomic      Atomic             Coordinates (Angstroms)
 Number     Number       Type             X           Y           Z
 ---------------------------------------------------------------------
      1          1           0        1.020975    0.118835   -0.392334
      2          6           0        0.010993   -0.012556   -0.010259
      3          1           0       -0.718732   -0.363861   -0.736478
      4          1           0        0.004656   -0.695535    0.836384
      5          1           0       -0.372854    1.015894    0.353982
 ---------------------------------------------------------------------

 SCF Done:  E(RM062X) =  -40.4806242001     A.U. after    9 cycles

 The electronic state is 1-A.
 Alpha  occ. eigenvalues --  -10.53197  -0.78185  -0.46748  -0.45496  -0.43790
 Alpha virt. eigenvalues --    0.03927   0.07101   0.07186   0.07368   0.21016
 Alpha virt. eigenvalues --    0.22943   0.23901   0.30649   0.68963   0.69083
 Alpha virt. eigenvalues --    0.70528   0.96047   0.99590   1.01815   1.10860

 Mulliken charges:
               1
     1  H    0.213241
     2  C   -0.829133
     3  H    0.212091
     4  H    0.210937
     5  H    0.192864
 Sum of Mulliken charges =   0.00000

 Dipole moment (field-independent basis, Debye):
    X=             -0.0195    Y=             -0.0237    Z=              0.0145  Tot=              0.0340
 Quadrupole moment (field-independent basis, Debye-Ang):
   XX=             -8.3272   YY=             -8.5816   ZZ=             -8.6420
   XY=              0.0764   XZ=              0.0215   YZ=             -0.0702

 Normal termination of Gaussian 16 at Fri Sep 22 17:14:05 2023.
