 Gaussian 16, Revision A.03,
 Gaussian 16:  ES64L-G16RevA.03 25-Dec-2016

 ------------------------------------------------------------------
 # 6-31+g(d) scrf=(solvent=water,pcm) int=ultrafine m062x scf=tight
 ------------------------------------------------------------------

 ------------------------
 tmpdir/M2_conf_83_10.gjf
 ------------------------
 Symbolic Z-matrix:
 Charge =  0 Multiplicity = 1

                         Standard orientation:
 ---------------------------------------------------------------------
 Center     Atomic      Atomic             Coordinates (Angstroms)
 Number     Number       Type             X           Y           Z
 ---------------------------------------------------------------------
      1          1           0        1.075676    1.211204    0.000000
      2          6           0       -0.009618    1.137409    0.000000
      3         17           0       -0.009618   -0.660092   -0.000000
      4          1           0       -0.427233    1.592948    0.895200
      5          1           0       -0.427233    1.592948   -0.895200
 ---------------------------------------------------------------------

 SCF Done:  E(RM062X) =  -500.042672958     A.U. after   11 cycles

 The electronic state is 1-A'.
 Alpha  occ. eigenvalues -- -102.66303 -10.60017  -9.81045  -7.53441  -7.52789
 Alpha  occ. eigenvalues --   -7.52775  -0.95598  -0.76648  -0.52434  -0.51633
 Alpha  occ. eigenvalues --   -0.46971  -0.37028  -0.36215
 Alpha virt. eigenvalues --    0.02641   0.03505   0.06865   0.06952   0.09108
 Alpha virt. eigenvalues --    0.10916   0.11092   0.11989   0.17739   0.21611
 Alpha virt. eigenvalues --    0.22513   0.29268   0.60311   0.63317   0.64667

 Mulliken charges:
               1
     1  H    0.253109
     2  C   -0.693369
     3  Cl  -0.089179
     4  H    0.264719
     5  H    0.264719
 Sum of Mulliken charges =  -0.00000

 Dipole moment (field-independent basis, Debye):
    X=              0.1301    Y=              2.6064    Z=             -0.0000  Tot=              2.6096
 Quadrupole moment (field-independent basis, Debye-Ang):
   XX=            -20.1768   YY=            -18.0952   ZZ=            -20.0278
   XY=             -0.4453   XZ=              0.0000   YZ=             -0.0000

 Normal termination of Gaussian 16 at Fri Sep 22 17:17:22 2023.
