 Gaussian 16, Revision A.03,
 Gaussian 16:  ES64L-G16RevA.03 25-Dec-2016

 ------------------------------------------------------------------
 # 6-31+g(d) scrf=(solvent=water,pcm) int=ultrafine m062x scf=tight
 ------------------------------------------------------------------

 -----------------------
 tmpdir/M2_conf_96_9.gjf
 -----------------------
 Symbolic Z-matrix:
 Charge =  0 Multiplicity = 1

                         Standard orientation:
 ---------------------------------------------------------------------
 Center     Atomic      Atomic             Coordinates (Angstroms)
 Number     Number       Type             X           Y           Z
 ---------------------------------------------------------------------
      1          1           0       -1.075261    1.128576   -0.000000
      2          6           0        0.012495    1.138259   -0.000000
      3         17           0        0.012495   -0.659242    0.000000
      4          1           0        0.393933    1.624494    0.895200
      5          1           0        0.393933    1.624494   -0.895200
 ---------------------------------------------------------------------

 SCF Done:  E(RM062X) =  -500.036631293     A.U. after   11 cycles

 The electronic state is 1-A'.
 Alpha  occ. eigenvalues -- -102.66344 -10.59982  -9.81096  -7.53493  -7.52837
 Alpha  occ. eigenvalues --   -7.52820  -0.95771  -0.76612  -0.52800  -0.51612
 Alpha  occ. eigenvalues --   -0.46734  -0.37124  -0.35912
 Alpha virt. eigenvalues --    0.02519   0.03516   0.06842   0.06959   0.09093
 Alpha virt. eigenvalues --    0.10773   0.11083   0.11896   0.17698   0.21563
 Alpha virt. eigenvalues --    0.22687   0.28996   0.60147   0.63200   0.64966

 Mulliken charges:
               1
     1  H    0.249287
     2  C   -0.688688
     3  Cl  -0.091358
     4  H    0.265380
     5  H    0.265380
 Sum of Mulliken charges =  -0.00000

 Dipole moment (field-independent basis, Debye):
    X=             -0.1730    Y=              2.5836    Z=             -0.0000  Tot=              2.5894
 Quadrupole moment (field-independent basis, Debye-Ang):
   XX=            -20.2608   YY=            -18.0718   ZZ=            -20.0191
   XY=              0.5617   XZ=              0.0000   YZ=             -0.0000

 Normal termination of Gaussian 16 at Fri Sep 22 17:18:53 2023.
