 Gaussian 16, Revision A.03,
 Gaussian 16:  ES64L-G16RevA.03 25-Dec-2016

 ------------------------------------------------------------------
 # 6-31+g(d) scrf=(solvent=water,pcm) int=ultrafine m062x scf=tight
 ------------------------------------------------------------------

 -----------------------
 tmpdir/M2_conf_63_9.gjf
 -----------------------
 Symbolic Z-matrix:
 Charge =  0 Multiplicity = 1

                         Standard orientation:
 ---------------------------------------------------------------------
 Center     Atomic      Atomic             Coordinates (Angstroms)
 Number     Number       Type             X           Y           Z
 ---------------------------------------------------------------------
      1          1           0       -1.065131    1.329772   -0.000000
      2          6           0        0.005376    1.136576   -0.000000
      3         17           0        0.005376   -0.660920    0.000000
      4          1           0        0.470743    1.543210    0.895200
      5          1           0        0.470743    1.543210   -0.895200
 ---------------------------------------------------------------------

 SCF Done:  E(RM062X) =  -500.048400716     A.U. after   10 cycles

 The electronic state is 1-A'.
 Alpha  occ. eigenvalues -- -102.66271 -10.60044  -9.81005  -7.53398  -7.52749
 Alpha  occ. eigenvalues --   -7.52742  -0.95445  -0.76681  -0.52020  -0.51675
 Alpha  occ. eigenvalues --   -0.47258  -0.36905  -0.36533
 Alpha virt. eigenvalues --    0.02762   0.03493   0.06893   0.06940   0.09123
 Alpha virt. eigenvalues --    0.11046   0.11099   0.12131   0.17776   0.21709
 Alpha virt. eigenvalues --    0.22257   0.29585   0.60517   0.63498   0.64187

 Mulliken charges:
               1
     1  H    0.257895
     2  C   -0.699090
     3  Cl  -0.086198
     4  H    0.263697
     5  H    0.263697
 Sum of Mulliken charges =  -0.00000

 Dipole moment (field-independent basis, Debye):
    X=             -0.0707    Y=              2.6246    Z=             -0.0000  Tot=              2.6255
 Quadrupole moment (field-independent basis, Debye-Ang):
   XX=            -20.0913   YY=            -18.1212   ZZ=            -20.0379
   XY=              0.2560   XZ=              0.0000   YZ=              0.0000

 Normal termination of Gaussian 16 at Fri Sep 22 17:15:06 2023.
