 Gaussian 16, Revision A.03,
 Gaussian 16:  ES64L-G16RevA.03 25-Dec-2016

 ------------------------------------------------------------------
 # 6-31+g(d) scrf=(solvent=water,pcm) int=ultrafine m062x scf=tight
 ------------------------------------------------------------------

 ------------------------
 tmpdir/M2_conf_120_9.gjf
 ------------------------
 Symbolic Z-matrix:
 Charge =  0 Multiplicity = 1

                         Standard orientation:
 ---------------------------------------------------------------------
 Center     Atomic      Atomic             Coordinates (Angstroms)
 Number     Number       Type             X           Y           Z
 ---------------------------------------------------------------------
      1          1           0       -1.057641    0.975877    0.000000
      2          6           0        0.017643    1.140417    0.000000
      3         17           0        0.017643   -0.657085   -0.000000
      4          1           0        0.325923    1.676030    0.895200
      5          1           0        0.325923    1.676030   -0.895200
 ---------------------------------------------------------------------

 SCF Done:  E(RM062X) =  -500.020549394     A.U. after   11 cycles

 The electronic state is 1-A'.
 Alpha  occ. eigenvalues -- -102.66480 -10.59850  -9.81260  -7.53661  -7.52991
 Alpha  occ. eigenvalues --   -7.52971  -0.96286  -0.76505  -0.53605  -0.51575
 Alpha  occ. eigenvalues --   -0.46310  -0.37339  -0.35127
 Alpha virt. eigenvalues --    0.02221   0.03542   0.06794   0.06970   0.09049
 Alpha virt. eigenvalues --    0.10437   0.11060   0.11772   0.17596   0.21480
 Alpha virt. eigenvalues --    0.22994   0.28504   0.59867   0.62999   0.65267

 Mulliken charges:
               1
     1  H    0.242076
     2  C   -0.681887
     3  Cl  -0.093275
     4  H    0.266543
     5  H    0.266543
 Sum of Mulliken charges =  -0.00000

 Dipole moment (field-independent basis, Debye):
    X=             -0.2585    Y=              2.5070    Z=              0.0000  Tot=              2.5203
 Quadrupole moment (field-independent basis, Debye-Ang):
   XX=            -20.4643   YY=            -18.0292   ZZ=            -19.9981
   XY=              0.7298   XZ=             -0.0000   YZ=              0.0000

 Normal termination of Gaussian 16 at Fri Sep 22 17:21:43 2023.
