 Gaussian 16, Revision A.03,
 Gaussian 16:  ES64L-G16RevA.03 25-Dec-2016

 ------------------------------------------------------------------
 # 6-31+g(d) scrf=(solvent=water,pcm) int=ultrafine m062x scf=tight
 ------------------------------------------------------------------

 ------------------------
 tmpdir/M2_conf_108_8.gjf
 ------------------------
 Symbolic Z-matrix:
 Charge =  0 Multiplicity = 1

                         Standard orientation:
 ---------------------------------------------------------------------
 Center     Atomic      Atomic             Coordinates (Angstroms)
 Number     Number       Type             X           Y           Z
 ---------------------------------------------------------------------
      1          1           0        1.040494    0.000385   -0.377765
      2          6           0        0.014420   -0.013516   -0.016810
      3          1           0       -0.796134   -0.175943   -0.723863
      4          1           0       -0.111236   -0.765008    0.759575
      5          1           0       -0.219644    1.021661    0.442911
 ---------------------------------------------------------------------

 SCF Done:  E(RM062X) =  -40.4790000123     A.U. after    9 cycles

 The electronic state is 1-A.
 Alpha  occ. eigenvalues --  -10.53207  -0.78221  -0.47399  -0.45215  -0.43371
 Alpha virt. eigenvalues --    0.03922   0.07054   0.07208   0.07385   0.20728
 Alpha virt. eigenvalues --    0.22675   0.24418   0.30579   0.68961   0.69235
 Alpha virt. eigenvalues --    0.70533   0.95362   0.99000   1.02872   1.11145

 Mulliken charges:
               1
     1  H    0.215204
     2  C   -0.831418
     3  H    0.213176
     4  H    0.210622
     5  H    0.192416
 Sum of Mulliken charges =   0.00000

 Dipole moment (field-independent basis, Debye):
    X=             -0.0455    Y=             -0.0203    Z=              0.0322  Tot=              0.0593
 Quadrupole moment (field-independent basis, Debye-Ang):
   XX=             -8.1660   YY=             -8.5998   ZZ=             -8.7997
   XY=              0.0438   XZ=              0.0109   YZ=             -0.0895

 Normal termination of Gaussian 16 at Fri Sep 22 17:20:17 2023.
