 Gaussian 16, Revision A.03,
 Gaussian 16:  ES64L-G16RevA.03 25-Dec-2016

 ------------------------------------------------------------------
 # 6-31+g(d) scrf=(solvent=water,pcm) int=ultrafine m062x scf=tight
 ------------------------------------------------------------------

 -----------------------
 tmpdir/M2_conf_62_9.gjf
 -----------------------
 Symbolic Z-matrix:
 Charge =  0 Multiplicity = 1

                         Standard orientation:
 ---------------------------------------------------------------------
 Center     Atomic      Atomic             Coordinates (Angstroms)
 Number     Number       Type             X           Y           Z
 ---------------------------------------------------------------------
      1          1           0       -1.064335    1.335166    0.000000
      2          6           0        0.005180    1.136555   -0.000000
      3         17           0        0.005180   -0.660950    0.000000
      4          1           0        0.472599    1.540828    0.895200
      5          1           0        0.472599    1.540828   -0.895200
 ---------------------------------------------------------------------

 SCF Done:  E(RM062X) =  -500.048581582     A.U. after   10 cycles

 The electronic state is 1-A'.
 Alpha  occ. eigenvalues -- -102.66270 -10.60044  -9.81004  -7.53397  -7.52748
 Alpha  occ. eigenvalues --   -7.52741  -0.95440  -0.76682  -0.52005  -0.51677
 Alpha  occ. eigenvalues --   -0.47269  -0.36899  -0.36544
 Alpha virt. eigenvalues --    0.02766   0.03493   0.06895   0.06940   0.09123
 Alpha virt. eigenvalues --    0.11050   0.11099   0.12136   0.17778   0.21714
 Alpha virt. eigenvalues --    0.22245   0.29596   0.60525   0.63507   0.64166

 Mulliken charges:
               1
     1  H    0.258086
     2  C   -0.699289
     3  Cl  -0.086092
     4  H    0.263647
     5  H    0.263647
 Sum of Mulliken charges =   0.00000

 Dipole moment (field-independent basis, Debye):
    X=             -0.0680    Y=              2.6251    Z=              0.0000  Tot=              2.6260
 Quadrupole moment (field-independent basis, Debye-Ang):
   XX=            -20.0884   YY=            -18.1220   ZZ=            -20.0383
   XY=              0.2469   XZ=              0.0000   YZ=              0.0000

 Normal termination of Gaussian 16 at Fri Sep 22 17:14:59 2023.
