 Gaussian 16, Revision A.03,
 Gaussian 16:  ES64L-G16RevA.03 25-Dec-2016

 ------------------------------------------------------------------
 # 6-31+g(d) scrf=(solvent=water,pcm) int=ultrafine m062x scf=tight
 ------------------------------------------------------------------

 ------------------------
 tmpdir/M2_conf_85_10.gjf
 ------------------------
 Symbolic Z-matrix:
 Charge =  0 Multiplicity = 1

                         Standard orientation:
 ---------------------------------------------------------------------
 Center     Atomic      Atomic             Coordinates (Angstroms)
 Number     Number       Type             X           Y           Z
 ---------------------------------------------------------------------
      1          1           0        1.076023    1.198627    0.000000
      2          6           0       -0.010060    1.137523    0.000000
      3         17           0       -0.010060   -0.659976   -0.000000
      4          1           0       -0.422322    1.597912    0.895200
      5          1           0       -0.422322    1.597912   -0.895200
 ---------------------------------------------------------------------

 SCF Done:  E(RM062X) =  -500.041864964     A.U. after   11 cycles

 The electronic state is 1-A'.
 Alpha  occ. eigenvalues -- -102.66308 -10.60013  -9.81052  -7.53447  -7.52795
 Alpha  occ. eigenvalues --   -7.52781  -0.95620  -0.76644  -0.52486  -0.51630
 Alpha  occ. eigenvalues --   -0.46936  -0.37042  -0.36174
 Alpha virt. eigenvalues --    0.02624   0.03506   0.06862   0.06953   0.09106
 Alpha virt. eigenvalues --    0.10897   0.11091   0.11974   0.17733   0.21603
 Alpha virt. eigenvalues --    0.22540   0.29229   0.60286   0.63298   0.64717

 Mulliken charges:
               1
     1  H    0.252546
     2  C   -0.692667
     3  Cl  -0.089523
     4  H    0.264822
     5  H    0.264822
 Sum of Mulliken charges =  -0.00000

 Dipole moment (field-independent basis, Debye):
    X=              0.1365    Y=              2.6035    Z=             -0.0000  Tot=              2.6071
 Quadrupole moment (field-independent basis, Debye-Ang):
   XX=            -20.1883   YY=            -18.0919   ZZ=            -20.0265
   XY=             -0.4640   XZ=              0.0000   YZ=             -0.0000

 Normal termination of Gaussian 16 at Fri Sep 22 17:17:36 2023.
