 Gaussian 16, Revision A.03,
 Gaussian 16:  ES64L-G16RevA.03 25-Dec-2016

 ------------------------------------------------------------------
 # 6-31+g(d) scrf=(solvent=water,pcm) int=ultrafine m062x scf=tight
 ------------------------------------------------------------------

 ------------------------
 tmpdir/M2_conf_113_6.gjf
 ------------------------
 Symbolic Z-matrix:
 Charge =  0 Multiplicity = 1

                         Standard orientation:
 ---------------------------------------------------------------------
 Center     Atomic      Atomic             Coordinates (Angstroms)
 Number     Number       Type             X           Y           Z
 ---------------------------------------------------------------------
      1          1           0       -1.038567    0.003311   -0.380449
      2          6           0       -0.013776   -0.013505   -0.015991
      3          1           0        0.791407   -0.187592   -0.726397
      4          1           0        0.104884   -0.758929    0.767314
      5          1           0        0.224932    1.024239    0.435479
 ---------------------------------------------------------------------

 SCF Done:  E(RM062X) =  -40.4792696944     A.U. after    9 cycles

 The electronic state is 1-A.
 Alpha  occ. eigenvalues --  -10.53205  -0.78215  -0.47314  -0.45245  -0.43435
 Alpha virt. eigenvalues --    0.03923   0.07061   0.07205   0.07382   0.20775
 Alpha virt. eigenvalues --    0.22705   0.24348   0.30589   0.68960   0.69210
 Alpha virt. eigenvalues --    0.70532   0.95468   0.99066   1.02739   1.11095

 Mulliken charges:
               1
     1  H    0.214914
     2  C   -0.831037
     3  H    0.212997
     4  H    0.210657
     5  H    0.192469
 Sum of Mulliken charges =  -0.00000

 Dipole moment (field-independent basis, Debye):
    X=              0.0425    Y=             -0.0205    Z=              0.0298  Tot=              0.0558
 Quadrupole moment (field-independent basis, Debye-Ang):
   XX=             -8.1856   YY=             -8.5988   ZZ=             -8.7788
   XY=             -0.0451   XZ=             -0.0116   YZ=             -0.0880

 Normal termination of Gaussian 16 at Fri Sep 22 17:20:52 2023.
