 Gaussian 16, Revision A.03,
 Gaussian 16:  ES64L-G16RevA.03 25-Dec-2016

 ------------------------------------------------------------------
 # 6-31+g(d) scrf=(solvent=water,pcm) int=ultrafine m062x scf=tight
 ------------------------------------------------------------------

 -----------------------
 tmpdir/M2_conf_74_4.gjf
 -----------------------
 Symbolic Z-matrix:
 Charge =  0 Multiplicity = 1

                         Standard orientation:
 ---------------------------------------------------------------------
 Center     Atomic      Atomic             Coordinates (Angstroms)
 Number     Number       Type             X           Y           Z
 ---------------------------------------------------------------------
      1          6           0       -0.000000   -1.351456    0.000000
      2         17           0       -0.000000    0.775244    0.000000
      3          1           0       -1.033730   -1.690136    0.000000
      4          1           0        0.516870   -1.690136    0.895240
      5          1           0        0.516870   -1.690136   -0.895240
 ---------------------------------------------------------------------

 SCF Done:  E(RM062X) =  -500.024687376     A.U. after   10 cycles

 The electronic state is 1-A'.
 Alpha  occ. eigenvalues -- -102.66410 -10.63124  -9.80798  -7.53179  -7.52548
 Alpha  occ. eigenvalues --   -7.52548  -0.90306  -0.79388  -0.51271  -0.51270
 Alpha  occ. eigenvalues --   -0.43398  -0.37322  -0.37322
 Alpha virt. eigenvalues --   -0.03640   0.03664   0.07033   0.07033   0.07424
 Alpha virt. eigenvalues --    0.09896   0.10930   0.10930   0.16880   0.21821
 Alpha virt. eigenvalues --    0.21822   0.29933   0.61214   0.61556   0.61557

 Mulliken charges:
               1
     1  C   -0.608652
     2  Cl  -0.220019
     3  H    0.276224
     4  H    0.276223
     5  H    0.276223
 Sum of Mulliken charges =  -0.00000

 Dipole moment (field-independent basis, Debye):
    X=              0.0003    Y=             -3.8985    Z=              0.0000  Tot=              3.8985
 Quadrupole moment (field-independent basis, Debye-Ang):
   XX=            -20.3784   YY=            -16.1173   ZZ=            -20.3783
   XY=              0.0002   XZ=              0.0000   YZ=             -0.0000

 Normal termination of Gaussian 16 at Fri Sep 22 17:16:18 2023.
