 Gaussian 16, Revision A.03,
 Gaussian 16:  ES64L-G16RevA.03 25-Dec-2016

 ------------------------------------------------------------------
 # 6-31+g(d) scrf=(solvent=water,pcm) int=ultrafine m062x scf=tight
 ------------------------------------------------------------------

 -----------------------
 tmpdir/M2_conf_47_5.gjf
 -----------------------
 Symbolic Z-matrix:
 Charge =  0 Multiplicity = 1

                         Standard orientation:
 ---------------------------------------------------------------------
 Center     Atomic      Atomic             Coordinates (Angstroms)
 Number     Number       Type             X           Y           Z
 ---------------------------------------------------------------------
      1          1           0        0.891881    0.506644   -0.391843
      2          6           0        0.013809   -0.008016   -0.007884
      3          1           0       -0.473971   -0.654582   -0.734066
      4          1           0        0.264684   -0.593519    0.873905
      5          1           0       -0.765447    0.789551    0.299307
 ---------------------------------------------------------------------

 SCF Done:  E(RM062X) =  -40.4809446958     A.U. after    9 cycles

 The electronic state is 1-A.
 Alpha  occ. eigenvalues --  -10.53196  -0.78180  -0.46540  -0.45614  -0.43892
 Alpha virt. eigenvalues --    0.03926   0.07115   0.07177   0.07362   0.21079
 Alpha virt. eigenvalues --    0.23043   0.23742   0.30666   0.68967   0.69049
 Alpha virt. eigenvalues --    0.70526   0.96207   0.99818   1.01458   1.10806

 Mulliken charges:
               1
     1  H    0.212730
     2  C   -0.828739
     3  H    0.211882
     4  H    0.211089
     5  H    0.193038
 Sum of Mulliken charges =  -0.00000

 Dipole moment (field-independent basis, Debye):
    X=             -0.0015    Y=             -0.0262    Z=              0.0095  Tot=              0.0279
 Quadrupole moment (field-independent basis, Debye-Ang):
   XX=             -8.4569   YY=             -8.4985   ZZ=             -8.5920
   XY=              0.1240   XZ=              0.0417   YZ=             -0.0470

 Normal termination of Gaussian 16 at Fri Sep 22 17:13:18 2023.
