 Gaussian 16, Revision A.03,
 Gaussian 16:  ES64L-G16RevA.03 25-Dec-2016

 ------------------------------------------------------------------
 # 6-31+g(d) scrf=(solvent=water,pcm) int=ultrafine m062x scf=tight
 ------------------------------------------------------------------

 ------------------------
 tmpdir/M2_conf_45_10.gjf
 ------------------------
 Symbolic Z-matrix:
 Charge =  0 Multiplicity = 1

                         Standard orientation:
 ---------------------------------------------------------------------
 Center     Atomic      Atomic             Coordinates (Angstroms)
 Number     Number       Type             X           Y           Z
 ---------------------------------------------------------------------
      1          1           0        1.048468    1.418361    0.000000
      2          6           0       -0.002118    1.136266    0.000000
      3         17           0       -0.002118   -0.661237   -0.000000
      4          1           0       -0.499879    1.502534    0.895200
      5          1           0       -0.499879    1.502534   -0.895200
 ---------------------------------------------------------------------

 SCF Done:  E(RM062X) =  -500.050512088     A.U. after   10 cycles

 The electronic state is 1-A'.
 Alpha  occ. eigenvalues -- -102.66261 -10.60050  -9.80992  -7.53384  -7.52735
 Alpha  occ. eigenvalues --   -7.52732  -0.95391  -0.76692  -0.51822  -0.51718
 Alpha  occ. eigenvalues --   -0.47385  -0.36816  -0.36691
 Alpha virt. eigenvalues --    0.02809   0.03489   0.06911   0.06930   0.09129
 Alpha virt. eigenvalues --    0.11090   0.11100   0.12205   0.17790   0.21829
 Alpha virt. eigenvalues --    0.22063   0.29719   0.60613   0.63647   0.63883

 Mulliken charges:
               1
     1  H    0.260737
     2  C   -0.701519
     3  Cl  -0.084863
     4  H    0.262823
     5  H    0.262823
 Sum of Mulliken charges =  -0.00000

 Dipole moment (field-independent basis, Debye):
    X=              0.0272    Y=              2.6303    Z=              0.0000  Tot=              2.6304
 Quadrupole moment (field-independent basis, Debye-Ang):
   XX=            -20.0562   YY=            -18.1318   ZZ=            -20.0441
   XY=             -0.1020   XZ=             -0.0000   YZ=              0.0000

 Normal termination of Gaussian 16 at Fri Sep 22 17:13:05 2023.
