 Gaussian 16, Revision A.03,
 Gaussian 16:  ES64L-G16RevA.03 25-Dec-2016

 ------------------------------------------------------------------
 # 6-31+g(d) scrf=(solvent=water,pcm) int=ultrafine m062x scf=tight
 ------------------------------------------------------------------

 -----------------------
 tmpdir/M2_conf_47_4.gjf
 -----------------------
 Symbolic Z-matrix:
 Charge =  0 Multiplicity = 1

                         Standard orientation:
 ---------------------------------------------------------------------
 Center     Atomic      Atomic             Coordinates (Angstroms)
 Number     Number       Type             X           Y           Z
 ---------------------------------------------------------------------
      1          6           0       -0.000000   -1.225395    0.000000
      2         17           0       -0.000000    0.708505    0.000000
      3          1           0       -1.033730   -1.564075    0.000000
      4          1           0        0.516870   -1.564075    0.895240
      5          1           0        0.516870   -1.564075   -0.895240
 ---------------------------------------------------------------------

 SCF Done:  E(RM062X) =  -500.044933151     A.U. after   10 cycles

 The electronic state is 1-A'.
 Alpha  occ. eigenvalues -- -102.66424 -10.61358  -9.80976  -7.53364  -7.52722
 Alpha  occ. eigenvalues --   -7.52722  -0.92835  -0.77889  -0.51265  -0.51265
 Alpha  occ. eigenvalues --   -0.45719  -0.37189  -0.37189
 Alpha virt. eigenvalues --    0.00598   0.03583   0.07007   0.07008   0.08769
 Alpha virt. eigenvalues --    0.09939   0.11021   0.11021   0.17396   0.21953
 Alpha virt. eigenvalues --    0.21954   0.29857   0.61104   0.62635   0.62635

 Mulliken charges:
               1
     1  C   -0.667575
     2  Cl  -0.138914
     3  H    0.268837
     4  H    0.268826
     5  H    0.268826
 Sum of Mulliken charges =  -0.00000

 Dipole moment (field-independent basis, Debye):
    X=              0.0000    Y=             -3.1158    Z=              0.0000  Tot=              3.1158
 Quadrupole moment (field-independent basis, Debye-Ang):
   XX=            -20.2031   YY=            -17.3352   ZZ=            -20.2032
   XY=              0.0002   XZ=              0.0000   YZ=             -0.0000

 Normal termination of Gaussian 16 at Fri Sep 22 17:13:19 2023.
