 Gaussian 16, Revision A.03,
 Gaussian 16:  ES64L-G16RevA.03 25-Dec-2016

 ------------------------------------------------------------------
 # 6-31+g(d) scrf=(solvent=water,pcm) int=ultrafine m062x scf=tight
 ------------------------------------------------------------------

 ----------------------
 tmpdir/M2_conf_0_8.gjf
 ----------------------
 Symbolic Z-matrix:
 Charge =  0 Multiplicity = 1

                         Standard orientation:
 ---------------------------------------------------------------------
 Center     Atomic      Atomic             Coordinates (Angstroms)
 Number     Number       Type             X           Y           Z
 ---------------------------------------------------------------------
      1          1           0       -0.354171   -0.345757    0.973539
      2          6           0       -0.014001    0.000211   -0.000062
      3          1           0       -0.361780   -0.664839   -0.787510
      4          1           0       -0.342579    1.020905   -0.183159
      5          1           0        1.142535   -0.011574   -0.002501
 ---------------------------------------------------------------------

 SCF Done:  E(RM062X) =  -40.4813511233     A.U. after    9 cycles

 The electronic state is 1-A.
 Alpha  occ. eigenvalues --  -10.53191  -0.78171  -0.45986  -0.45966  -0.44095
 Alpha virt. eigenvalues --    0.03929   0.07154   0.07155   0.07350   0.21197
 Alpha virt. eigenvalues --    0.23325   0.23341   0.30700   0.68992   0.68994
 Alpha virt. eigenvalues --    0.70529   0.96528   1.00475   1.00511   1.10739

 Mulliken charges:
               1
     1  H    0.211494
     2  C   -0.828065
     3  H    0.211492
     4  H    0.211516
     5  H    0.193564
 Sum of Mulliken charges =  -0.00000

 Dipole moment (field-independent basis, Debye):
    X=             -0.0265    Y=             -0.0000    Z=              0.0006  Tot=              0.0265
 Quadrupole moment (field-independent basis, Debye-Ang):
   XX=             -8.5928   YY=             -8.4725   ZZ=             -8.4768
   XY=              0.0025   XZ=              0.0006   YZ=              0.0000

 Normal termination of Gaussian 16 at Fri Sep 22 17:08:05 2023.
