 Gaussian 16, Revision A.03,
 Gaussian 16:  ES64L-G16RevA.03 25-Dec-2016

 ------------------------------------------------------------------
 # 6-31+g(d) scrf=(solvent=water,pcm) int=ultrafine m062x scf=tight
 ------------------------------------------------------------------

 ------------------------
 tmpdir/M2_conf_106_6.gjf
 ------------------------
 Symbolic Z-matrix:
 Charge =  0 Multiplicity = 1

                         Standard orientation:
 ---------------------------------------------------------------------
 Center     Atomic      Atomic             Coordinates (Angstroms)
 Number     Number       Type             X           Y           Z
 ---------------------------------------------------------------------
      1          1           0       -1.041225   -0.000491   -0.376726
      2          6           0       -0.014667   -0.013518   -0.017116
      3          1           0        0.797817   -0.171948   -0.722863
      4          1           0        0.113426   -0.767147    0.756796
      5          1           0        0.217986    1.020692    0.445488
 ---------------------------------------------------------------------

 SCF Done:  E(RM062X) =  -40.4788940316     A.U. after    9 cycles

 The electronic state is 1-A.
 Alpha  occ. eigenvalues --  -10.53208  -0.78223  -0.47431  -0.45204  -0.43347
 Alpha virt. eigenvalues --    0.03922   0.07052   0.07209   0.07385   0.20710
 Alpha virt. eigenvalues --    0.22664   0.24444   0.30576   0.68961   0.69244
 Alpha virt. eigenvalues --    0.70534   0.95321   0.98976   1.02922   1.11164

 Mulliken charges:
               1
     1  H    0.215316
     2  C   -0.831569
     3  H    0.213246
     4  H    0.210609
     5  H    0.192397
 Sum of Mulliken charges =  -0.00000

 Dipole moment (field-independent basis, Debye):
    X=              0.0467    Y=             -0.0202    Z=              0.0331  Tot=              0.0607
 Quadrupole moment (field-independent basis, Debye-Ang):
   XX=             -8.1587   YY=             -8.6002   ZZ=             -8.8076
   XY=             -0.0434   XZ=             -0.0107   YZ=             -0.0900

 Normal termination of Gaussian 16 at Fri Sep 22 17:20:02 2023.
