 Gaussian 16, Revision A.03,
 Gaussian 16:  ES64L-G16RevA.03 25-Dec-2016

 ------------------------------------------------------------------
 # 6-31+g(d) scrf=(solvent=water,pcm) int=ultrafine m062x scf=tight
 ------------------------------------------------------------------

 ------------------------
 tmpdir/M2_conf_115_9.gjf
 ------------------------
 Symbolic Z-matrix:
 Charge =  0 Multiplicity = 1

                         Standard orientation:
 ---------------------------------------------------------------------
 Center     Atomic      Atomic             Coordinates (Angstroms)
 Number     Number       Type             X           Y           Z
 ---------------------------------------------------------------------
      1          1           0       -1.062647    1.004554    0.000000
      2          6           0        0.016694    1.139950    0.000000
      3         17           0        0.016694   -0.657548    0.000000
      4          1           0        0.339348    1.667029    0.895200
      5          1           0        0.339348    1.667029   -0.895200
 ---------------------------------------------------------------------

 SCF Done:  E(RM062X) =  -500.024097282     A.U. after   11 cycles

 The electronic state is 1-A'.
 Alpha  occ. eigenvalues -- -102.66447 -10.59883  -9.81220  -7.53621  -7.52954
 Alpha  occ. eigenvalues --   -7.52933  -0.96166  -0.76529  -0.53442  -0.51582
 Alpha  occ. eigenvalues --   -0.46383  -0.37293  -0.35300
 Alpha virt. eigenvalues --    0.02284   0.03537   0.06804   0.06968   0.09060
 Alpha virt. eigenvalues --    0.10503   0.11065   0.11791   0.17617   0.21496
 Alpha virt. eigenvalues --    0.22938   0.28588   0.59915   0.63036   0.65240

 Mulliken charges:
               1
     1  H    0.243388
     2  C   -0.682779
     3  Cl  -0.093267
     4  H    0.266329
     5  H    0.266329
 Sum of Mulliken charges =  -0.00000

 Dipole moment (field-independent basis, Debye):
    X=             -0.2417    Y=              2.5259    Z=             -0.0000  Tot=              2.5374
 Quadrupole moment (field-independent basis, Debye-Ang):
   XX=            -20.4216   YY=            -18.0363   ZZ=            -20.0026
   XY=              0.7038   XZ=             -0.0000   YZ=             -0.0000

 Normal termination of Gaussian 16 at Fri Sep 22 17:21:08 2023.
