 Gaussian 16, Revision A.03,
 Gaussian 16:  ES64L-G16RevA.03 25-Dec-2016

 ------------------------------------------------------------------
 # 6-31+g(d) scrf=(solvent=water,pcm) int=ultrafine m062x scf=tight
 ------------------------------------------------------------------

 ------------------------
 tmpdir/M2_conf_115_4.gjf
 ------------------------
 Symbolic Z-matrix:
 Charge =  0 Multiplicity = 1

                         Standard orientation:
 ---------------------------------------------------------------------
 Center     Atomic      Atomic             Coordinates (Angstroms)
 Number     Number       Type             X           Y           Z
 ---------------------------------------------------------------------
      1          6           0       -0.000000   -1.546695    0.000000
      2         17           0       -0.000000    0.878605   -0.000000
      3          1           0       -1.033730   -1.885375    0.000000
      4          1           0        0.516870   -1.885375    0.895240
      5          1           0        0.516870   -1.885375   -0.895240
 ---------------------------------------------------------------------

 SCF Done:  E(RM062X) =  -499.986570799     A.U. after   11 cycles

 The electronic state is 1-A'.
 Alpha  occ. eigenvalues -- -102.65926 -10.65570  -9.80186  -7.52548  -7.51949
 Alpha  occ. eigenvalues --   -7.51949  -0.87894  -0.81333  -0.52108  -0.52108
 Alpha  occ. eigenvalues --   -0.40275  -0.36920  -0.36920
 Alpha virt. eigenvalues --   -0.09413   0.03674   0.06689   0.06931   0.06932
 Alpha virt. eigenvalues --    0.10324   0.10829   0.10829   0.16175   0.21412
 Alpha virt. eigenvalues --    0.21413   0.29804   0.60896   0.60898   0.62158

 Mulliken charges:
               1
     1  C   -0.514072
     2  Cl  -0.341399
     3  H    0.285167
     4  H    0.285152
     5  H    0.285152
 Sum of Mulliken charges =  -0.00000

 Dipole moment (field-independent basis, Debye):
    X=              0.0000    Y=             -5.3032    Z=             -0.0000  Tot=              5.3032
 Quadrupole moment (field-independent basis, Debye-Ang):
   XX=            -20.5662   YY=            -14.0498   ZZ=            -20.5662
   XY=              0.0002   XZ=             -0.0000   YZ=              0.0000

 Normal termination of Gaussian 16 at Fri Sep 22 17:21:08 2023.
