 Gaussian 16, Revision A.03,
 Gaussian 16:  ES64L-G16RevA.03 25-Dec-2016

 ------------------------------------------------------------------
 # 6-31+g(d) scrf=(solvent=water,pcm) int=ultrafine m062x scf=tight
 ------------------------------------------------------------------

 ------------------------
 tmpdir/M2_conf_110_3.gjf
 ------------------------
 Symbolic Z-matrix:
 Charge =  0 Multiplicity = 1

                         Standard orientation:
 ---------------------------------------------------------------------
 Center     Atomic      Atomic             Coordinates (Angstroms)
 Number     Number       Type             X           Y           Z
 ---------------------------------------------------------------------
      1          6           0       -0.014274    0.000012    0.001937
      2          1           0       -0.278706    0.000177    1.046795
      3          1           0       -0.388964   -0.894567   -0.490659
      4          1           0       -0.386280    0.895922   -0.490264
      5          1           0        1.139592   -0.001603   -0.077496
 ---------------------------------------------------------------------

 SCF Done:  E(RM062X) =  -40.4812425297     A.U. after    9 cycles

 The electronic state is 1-A.
 Alpha  occ. eigenvalues --  -10.53085  -0.78261  -0.46132  -0.45966  -0.44098
 Alpha virt. eigenvalues --    0.03933   0.07139   0.07159   0.07353   0.21214
 Alpha virt. eigenvalues --    0.23334   0.23549   0.30805   0.68789   0.69017
 Alpha virt. eigenvalues --    0.70529   0.96553   1.00501   1.00938   1.10908

 Mulliken charges:
               1
     1  C   -0.828772
     2  H    0.213321
     3  H    0.211134
     4  H    0.211134
     5  H    0.193182
 Sum of Mulliken charges =  -0.00000

 Dipole moment (field-independent basis, Debye):
    X=             -0.0282    Y=              0.0001    Z=              0.0081  Tot=              0.0294
 Quadrupole moment (field-independent basis, Debye-Ang):
   XX=             -8.5837   YY=             -8.4645   ZZ=             -8.4709
   XY=              0.0004   XZ=              0.0092   YZ=             -0.0000

 Normal termination of Gaussian 16 at Fri Sep 22 17:20:31 2023.
