 Gaussian 16, Revision A.03,
 Gaussian 16:  ES64L-G16RevA.03 25-Dec-2016

 ------------------------------------------------------------------
 # 6-31+g(d) scrf=(solvent=water,pcm) int=ultrafine m062x scf=tight
 ------------------------------------------------------------------

 -----------------------
 tmpdir/M2_conf_52_4.gjf
 -----------------------
 Symbolic Z-matrix:
 Charge =  0 Multiplicity = 1

                         Standard orientation:
 ---------------------------------------------------------------------
 Center     Atomic      Atomic             Coordinates (Angstroms)
 Number     Number       Type             X           Y           Z
 ---------------------------------------------------------------------
      1          6           0       -0.000000   -1.248345    0.000000
      2         17           0       -0.000000    0.720655    0.000000
      3          1           0       -1.033730   -1.587025    0.000000
      4          1           0        0.516870   -1.587025    0.895240
      5          1           0        0.516870   -1.587025   -0.895240
 ---------------------------------------------------------------------

 SCF Done:  E(RM062X) =  -500.041952325     A.U. after   10 cycles

 The electronic state is 1-A'.
 Alpha  occ. eigenvalues -- -102.66442 -10.61688  -9.80957  -7.53344  -7.52704
 Alpha  occ. eigenvalues --   -7.52704  -0.92293  -0.78178  -0.51215  -0.51215
 Alpha  occ. eigenvalues --   -0.45287  -0.37249  -0.37248
 Alpha virt. eigenvalues --   -0.00128   0.03603   0.07019   0.07020   0.08473
 Alpha virt. eigenvalues --    0.09825   0.11002   0.11003   0.17299   0.21941
 Alpha virt. eigenvalues --    0.21941   0.29879   0.61116   0.62395   0.62395

 Mulliken charges:
               1
     1  C   -0.657568
     2  Cl  -0.153419
     3  H    0.270329
     4  H    0.270329
     5  H    0.270329
 Sum of Mulliken charges =   0.00000

 Dipole moment (field-independent basis, Debye):
    X=              0.0001    Y=             -3.2500    Z=              0.0000  Tot=              3.2500
 Quadrupole moment (field-independent basis, Debye-Ang):
   XX=            -20.2389   YY=            -17.1210   ZZ=            -20.2388
   XY=              0.0001   XZ=              0.0000   YZ=             -0.0000

 Normal termination of Gaussian 16 at Fri Sep 22 17:13:52 2023.
