 Gaussian 16, Revision A.03,
 Gaussian 16:  ES64L-G16RevA.03 25-Dec-2016

 ------------------------------------------------------------------
 # 6-31+g(d) scrf=(solvent=water,pcm) int=ultrafine m062x scf=tight
 ------------------------------------------------------------------

 -----------------------
 tmpdir/M2_conf_43_9.gjf
 -----------------------
 Symbolic Z-matrix:
 Charge =  0 Multiplicity = 1

                         Standard orientation:
 ---------------------------------------------------------------------
 Center     Atomic      Atomic             Coordinates (Angstroms)
 Number     Number       Type             X           Y           Z
 ---------------------------------------------------------------------
      1          1           0       -1.046921    1.424935    0.000000
      2          6           0        0.001873    1.136248    0.000000
      3         17           0        0.001873   -0.661246    0.000000
      4          1           0        0.501924    1.499382    0.895200
      5          1           0        0.501924    1.499382   -0.895200
 ---------------------------------------------------------------------

 SCF Done:  E(RM062X) =  -500.050595626     A.U. after   10 cycles

 The electronic state is 1-A'.
 Alpha  occ. eigenvalues -- -102.66260 -10.60050  -9.80991  -7.53384  -7.52735
 Alpha  occ. eigenvalues --   -7.52732  -0.95389  -0.76692  -0.51811  -0.51722
 Alpha  occ. eigenvalues --   -0.47390  -0.36809  -0.36700
 Alpha virt. eigenvalues --    0.02811   0.03489   0.06912   0.06929   0.09129
 Alpha virt. eigenvalues --    0.11092   0.11100   0.12209   0.17790   0.21840
 Alpha virt. eigenvalues --    0.22048   0.29725   0.60617   0.63659   0.63865

 Mulliken charges:
               1
     1  H    0.260921
     2  C   -0.701621
     3  Cl  -0.084805
     4  H    0.262752
     5  H    0.262752
 Sum of Mulliken charges =  -0.00000

 Dipole moment (field-independent basis, Debye):
    X=             -0.0241    Y=              2.6304    Z=             -0.0000  Tot=              2.6305
 Quadrupole moment (field-independent basis, Debye-Ang):
   XX=            -20.0546   YY=            -18.1323   ZZ=            -20.0446
   XY=              0.0903   XZ=             -0.0000   YZ=              0.0000

 Normal termination of Gaussian 16 at Fri Sep 22 17:12:52 2023.
