 Gaussian 16, Revision A.03,
 Gaussian 16:  ES64L-G16RevA.03 25-Dec-2016

 ------------------------------------------------------------------
 # 6-31+g(d) scrf=(solvent=water,pcm) int=ultrafine m062x scf=tight
 ------------------------------------------------------------------

 ------------------------
 tmpdir/M2_conf_124_7.gjf
 ------------------------
 Symbolic Z-matrix:
 Charge =  0 Multiplicity = 1

                         Standard orientation:
 ---------------------------------------------------------------------
 Center     Atomic      Atomic             Coordinates (Angstroms)
 Number     Number       Type             X           Y           Z
 ---------------------------------------------------------------------
      1          1           0        1.053348    0.954321    0.000000
      2          6           0       -0.018352    1.140787    0.000000
      3         17           0       -0.018352   -0.656718   -0.000000
      4          1           0       -0.315629    1.682584    0.895200
      5          1           0       -0.315629    1.682584   -0.895200
 ---------------------------------------------------------------------

 SCF Done:  E(RM062X) =  -500.017707446     A.U. after   11 cycles

 The electronic state is 1-A'.
 Alpha  occ. eigenvalues -- -102.66508 -10.59821  -9.81294  -7.53696  -7.53023
 Alpha  occ. eigenvalues --   -7.53003  -0.96384  -0.76484  -0.53731  -0.51569
 Alpha  occ. eigenvalues --   -0.46259  -0.37375  -0.34988
 Alpha virt. eigenvalues --    0.02171   0.03546   0.06786   0.06971   0.09040
 Alpha virt. eigenvalues --    0.10388   0.11056   0.11759   0.17579   0.21468
 Alpha virt. eigenvalues --    0.23035   0.28443   0.59834   0.62972   0.65278

 Mulliken charges:
               1
     1  H    0.241120
     2  C   -0.681398
     3  Cl  -0.093124
     4  H    0.266701
     5  H    0.266701
 Sum of Mulliken charges =   0.00000

 Dipole moment (field-independent basis, Debye):
    X=              0.2715    Y=              2.4911    Z=              0.0000  Tot=              2.5059
 Quadrupole moment (field-independent basis, Debye-Ang):
   XX=            -20.4977   YY=            -18.0245   ZZ=            -19.9944
   XY=             -0.7473   XZ=             -0.0000   YZ=              0.0000

 Normal termination of Gaussian 16 at Fri Sep 22 17:22:11 2023.
