 Gaussian 16, Revision A.03,
 Gaussian 16:  ES64L-G16RevA.03 25-Dec-2016

 ------------------------------------------------------------------
 # 6-31+g(d) scrf=(solvent=water,pcm) int=ultrafine m062x scf=tight
 ------------------------------------------------------------------

 -----------------------
 tmpdir/M2_conf_61_9.gjf
 -----------------------
 Symbolic Z-matrix:
 Charge =  0 Multiplicity = 1

                         Standard orientation:
 ---------------------------------------------------------------------
 Center     Atomic      Atomic             Coordinates (Angstroms)
 Number     Number       Type             X           Y           Z
 ---------------------------------------------------------------------
      1          1           0       -1.063512    1.340547    0.000000
      2          6           0        0.004984    1.136525    0.000000
      3         17           0        0.004984   -0.660974    0.000000
      4          1           0        0.474444    1.538427    0.895200
      5          1           0        0.474444    1.538427   -0.895200
 ---------------------------------------------------------------------

 SCF Done:  E(RM062X) =  -500.048755491     A.U. after   10 cycles

 The electronic state is 1-A'.
 Alpha  occ. eigenvalues -- -102.66269 -10.60045  -9.81002  -7.53396  -7.52747
 Alpha  occ. eigenvalues --   -7.52740  -0.95436  -0.76683  -0.51991  -0.51679
 Alpha  occ. eigenvalues --   -0.47279  -0.36894  -0.36555
 Alpha virt. eigenvalues --    0.02770   0.03493   0.06896   0.06939   0.09124
 Alpha virt. eigenvalues --    0.11054   0.11099   0.12142   0.17779   0.21720
 Alpha virt. eigenvalues --    0.22233   0.29607   0.60532   0.63515   0.64145

 Mulliken charges:
               1
     1  H    0.258274
     2  C   -0.699485
     3  Cl  -0.085983
     4  H    0.263597
     5  H    0.263597
 Sum of Mulliken charges =  -0.00000

 Dipole moment (field-independent basis, Debye):
    X=             -0.0653    Y=              2.6256    Z=              0.0000  Tot=              2.6264
 Quadrupole moment (field-independent basis, Debye-Ang):
   XX=            -20.0857   YY=            -18.1229   ZZ=            -20.0387
   XY=              0.2378   XZ=              0.0000   YZ=              0.0000

 Normal termination of Gaussian 16 at Fri Sep 22 17:14:52 2023.
