 Gaussian 16, Revision A.03,
 Gaussian 16:  ES64L-G16RevA.03 25-Dec-2016

 ------------------------------------------------------------------
 # 6-31+g(d) scrf=(solvent=water,pcm) int=ultrafine m062x scf=tight
 ------------------------------------------------------------------

 ------------------------
 tmpdir/M2_conf_103_6.gjf
 ------------------------
 Symbolic Z-matrix:
 Charge =  0 Multiplicity = 1

                         Standard orientation:
 ---------------------------------------------------------------------
 Center     Atomic      Atomic             Coordinates (Angstroms)
 Number     Number       Type             X           Y           Z
 ---------------------------------------------------------------------
      1          1           0       -1.042035   -0.001326   -0.375556
      2          6           0       -0.014942   -0.013519   -0.017451
      3          1           0        0.799602   -0.167780   -0.721748
      4          1           0        0.115726   -0.769413    0.753818
      5          1           0        0.216357    1.019632    0.448190
 ---------------------------------------------------------------------

 SCF Done:  E(RM062X) =  -40.4787748413     A.U. after    9 cycles

 The electronic state is 1-A.
 Alpha  occ. eigenvalues --  -10.53208  -0.78226  -0.47466  -0.45193  -0.43319
 Alpha virt. eigenvalues --    0.03922   0.07049   0.07210   0.07386   0.20690
 Alpha virt. eigenvalues --    0.22652   0.24473   0.30571   0.68962   0.69255
 Alpha virt. eigenvalues --    0.70534   0.95276   0.98951   1.02976   1.11187

 Mulliken charges:
               1
     1  H    0.215440
     2  C   -0.831739
     3  H    0.213326
     4  H    0.210596
     5  H    0.192377
 Sum of Mulliken charges =  -0.00000

 Dipole moment (field-independent basis, Debye):
    X=              0.0480    Y=             -0.0202    Z=              0.0341  Tot=              0.0622
 Quadrupole moment (field-independent basis, Debye-Ang):
   XX=             -8.1507   YY=             -8.6006   ZZ=             -8.8162
   XY=             -0.0430   XZ=             -0.0105   YZ=             -0.0906

 Normal termination of Gaussian 16 at Fri Sep 22 17:19:41 2023.
