 Gaussian 16, Revision A.03,
 Gaussian 16:  ES64L-G16RevA.03 25-Dec-2016

 ------------------------------------------------------------------
 # 6-31+g(d) scrf=(solvent=water,pcm) int=ultrafine m062x scf=tight
 ------------------------------------------------------------------

 -----------------------
 tmpdir/M2_conf_25_4.gjf
 -----------------------
 Symbolic Z-matrix:
 Charge =  0 Multiplicity = 1

                         Standard orientation:
 ---------------------------------------------------------------------
 Center     Atomic      Atomic             Coordinates (Angstroms)
 Number     Number       Type             X           Y           Z
 ---------------------------------------------------------------------
      1          6           0       -0.000000   -1.143991   -0.000000
      2         17           0       -0.000000    0.665409    0.000000
      3          1           0       -1.033730   -1.482671   -0.000000
      4          1           0        0.516870   -1.482671    0.895240
      5          1           0        0.516870   -1.482671   -0.895240
 ---------------------------------------------------------------------

 SCF Done:  E(RM062X) =  -500.050839980     A.U. after   10 cycles

 The electronic state is 1-A'.
 Alpha  occ. eigenvalues -- -102.66279 -10.60165  -9.80991  -7.53383  -7.52734
 Alpha  occ. eigenvalues --   -7.52734  -0.95127  -0.76802  -0.51690  -0.51690
 Alpha  occ. eigenvalues --   -0.47261  -0.36811  -0.36810
 Alpha virt. eigenvalues --    0.02671   0.03496   0.06931   0.06932   0.09134
 Alpha virt. eigenvalues --    0.11092   0.11092   0.11917   0.17756   0.21945
 Alpha virt. eigenvalues --    0.21945   0.29756   0.60725   0.63643   0.63644

 Mulliken charges:
               1
     1  C   -0.699318
     2  Cl  -0.089173
     3  H    0.262843
     4  H    0.262824
     5  H    0.262824
 Sum of Mulliken charges =  -0.00000

 Dipole moment (field-independent basis, Debye):
    X=              0.0000    Y=             -2.6710    Z=              0.0000  Tot=              2.6710
 Quadrupole moment (field-independent basis, Debye-Ang):
   XX=            -20.0621   YY=            -18.0668   ZZ=            -20.0621
   XY=              0.0002   XZ=              0.0000   YZ=             -0.0000

 Normal termination of Gaussian 16 at Fri Sep 22 17:10:53 2023.
