 Gaussian 16, Revision A.03,
 Gaussian 16:  ES64L-G16RevA.03 25-Dec-2016

 ------------------------------------------------------------------
 # 6-31+g(d) scrf=(solvent=water,pcm) int=ultrafine m062x scf=tight
 ------------------------------------------------------------------

 -----------------------
 tmpdir/M2_conf_56_5.gjf
 -----------------------
 Symbolic Z-matrix:
 Charge =  0 Multiplicity = 1

                         Standard orientation:
 ---------------------------------------------------------------------
 Center     Atomic      Atomic             Coordinates (Angstroms)
 Number     Number       Type             X           Y           Z
 ---------------------------------------------------------------------
      1          1           0        1.025311    0.083842   -0.391801
      2          6           0        0.010978   -0.012871   -0.010904
      3          1           0       -0.736711   -0.326097   -0.736272
      4          1           0       -0.021963   -0.705629    0.827134
      5          1           0       -0.332504    1.025113    0.366360
 ---------------------------------------------------------------------

 SCF Done:  E(RM062X) =  -40.4805151859     A.U. after    9 cycles

 The electronic state is 1-A.
 Alpha  occ. eigenvalues --  -10.53198  -0.78187  -0.46808  -0.45465  -0.43758
 Alpha virt. eigenvalues --    0.03926   0.07097   0.07188   0.07369   0.20996
 Alpha virt. eigenvalues --    0.22915   0.23947   0.30643   0.68962   0.69094
 Alpha virt. eigenvalues --    0.70528   0.95996   0.99528   1.01915   1.10878

 Mulliken charges:
               1
     1  H    0.213402
     2  C   -0.829290
     3  H    0.212166
     4  H    0.210904
     5  H    0.192818
 Sum of Mulliken charges =   0.00000

 Dipole moment (field-independent basis, Debye):
    X=             -0.0225    Y=             -0.0231    Z=              0.0161  Tot=              0.0360
 Quadrupole moment (field-independent basis, Debye-Ang):
   XX=             -8.3088   YY=             -8.5867   ZZ=             -8.6563
   XY=              0.0685   XZ=              0.0192   YZ=             -0.0733

 Normal termination of Gaussian 16 at Fri Sep 22 17:14:18 2023.
