 Gaussian 16, Revision A.03,
 Gaussian 16:  ES64L-G16RevA.03 25-Dec-2016

 ------------------------------------------------------------------
 # 6-31+g(d) scrf=(solvent=water,pcm) int=ultrafine m062x scf=tight
 ------------------------------------------------------------------

 -----------------------
 tmpdir/M2_conf_50_8.gjf
 -----------------------
 Symbolic Z-matrix:
 Charge =  0 Multiplicity = 1

                         Standard orientation:
 ---------------------------------------------------------------------
 Center     Atomic      Atomic             Coordinates (Angstroms)
 Number     Number       Type             X           Y           Z
 ---------------------------------------------------------------------
      1          1           0        0.991982    0.263724   -0.392583
      2          6           0        0.011887   -0.011093   -0.008919
      3          1           0       -0.640604   -0.489876   -0.735787
      4          1           0        0.105453   -0.662938    0.856903
      5          1           0       -0.528150    0.955648    0.324983
 ---------------------------------------------------------------------

 SCF Done:  E(RM062X) =  -40.4808201501     A.U. after    9 cycles

 The electronic state is 1-A.
 Alpha  occ. eigenvalues --  -10.53196  -0.78181  -0.46628  -0.45562  -0.43850
 Alpha virt. eigenvalues --    0.03927   0.07109   0.07181   0.07364   0.21054
 Alpha virt. eigenvalues --    0.23000   0.23809   0.30659   0.68965   0.69062
 Alpha virt. eigenvalues --    0.70527   0.96142   0.99719   1.01611   1.10827

 Mulliken charges:
               1
     1  H    0.212941
     2  C   -0.828892
     3  H    0.211961
     4  H    0.211022
     5  H    0.192969
 Sum of Mulliken charges =  -0.00000

 Dipole moment (field-independent basis, Debye):
    X=             -0.0114    Y=             -0.0255    Z=              0.0116  Tot=              0.0303
 Quadrupole moment (field-independent basis, Debye-Ang):
   XX=             -8.3797   YY=             -8.5559   ZZ=             -8.6131
   XY=              0.1027   XZ=              0.0299   YZ=             -0.0609

 Normal termination of Gaussian 16 at Fri Sep 22 17:13:38 2023.
