 Gaussian 16, Revision A.03,
 Gaussian 16:  ES64L-G16RevA.03 25-Dec-2016

 ------------------------------------------------------------------
 # 6-31+g(d) scrf=(solvent=water,pcm) int=ultrafine m062x scf=tight
 ------------------------------------------------------------------

 -----------------------
 tmpdir/M2_conf_91_6.gjf
 -----------------------
 Symbolic Z-matrix:
 Charge =  0 Multiplicity = 1

                         Standard orientation:
 ---------------------------------------------------------------------
 Center     Atomic      Atomic             Coordinates (Angstroms)
 Number     Number       Type             X           Y           Z
 ---------------------------------------------------------------------
      1          1           0       -1.043005   -0.002160   -0.374127
      2          6           0       -0.015269   -0.013519   -0.017845
      3          1           0        0.801624   -0.163130   -0.720415
      4          1           0        0.118321   -0.771985    0.750392
      5          1           0        0.214672    1.018385    0.451219
 ---------------------------------------------------------------------

 SCF Done:  E(RM062X) =  -40.4786302211     A.U. after    9 cycles

 The electronic state is 1-A.
 Alpha  occ. eigenvalues --  -10.53209  -0.78229  -0.47508  -0.45180  -0.43286
 Alpha virt. eigenvalues --    0.03921   0.07046   0.07211   0.07388   0.20665
 Alpha virt. eigenvalues --    0.22638   0.24508   0.30566   0.68963   0.69268
 Alpha virt. eigenvalues --    0.70535   0.95221   0.98921   1.03039   1.11214

 Mulliken charges:
               1
     1  H    0.215589
     2  C   -0.831946
     3  H    0.213423
     4  H    0.210580
     5  H    0.192353
 Sum of Mulliken charges =  -0.00000

 Dipole moment (field-independent basis, Debye):
    X=              0.0495    Y=             -0.0201    Z=              0.0352  Tot=              0.0640
 Quadrupole moment (field-independent basis, Debye-Ang):
   XX=             -8.1412   YY=             -8.6011   ZZ=             -8.8264
   XY=             -0.0425   XZ=             -0.0102   YZ=             -0.0912

 Normal termination of Gaussian 16 at Fri Sep 22 17:18:17 2023.
