 Gaussian 16, Revision A.03,
 Gaussian 16:  ES64L-G16RevA.03 25-Dec-2016

 ------------------------------------------------------------------
 # 6-31+g(d) scrf=(solvent=water,pcm) int=ultrafine m062x scf=tight
 ------------------------------------------------------------------

 ------------------------
 tmpdir/M2_conf_119_8.gjf
 ------------------------
 Symbolic Z-matrix:
 Charge =  0 Multiplicity = 1

                         Standard orientation:
 ---------------------------------------------------------------------
 Center     Atomic      Atomic             Coordinates (Angstroms)
 Number     Number       Type             X           Y           Z
 ---------------------------------------------------------------------
      1          1           0        1.035526    0.010785   -0.384425
      2          6           0        0.012791   -0.013463   -0.014652
      3          1           0       -0.782603   -0.210427   -0.730095
      4          1           0       -0.092425   -0.747762    0.780986
      5          1           0       -0.237242    1.028181    0.421446
 ---------------------------------------------------------------------

 SCF Done:  E(RM062X) =  -40.4796681821     A.U. after    9 cycles

 The electronic state is 1-A.
 Alpha  occ. eigenvalues --  -10.53203  -0.78206  -0.47176  -0.45297  -0.43533
 Alpha virt. eigenvalues --    0.03924   0.07071   0.07201   0.07378   0.20844
 Alpha virt. eigenvalues --    0.22758   0.24237   0.30605   0.68959   0.69173
 Alpha virt. eigenvalues --    0.70531   0.95629   0.99179   1.02520   1.11023

 Mulliken charges:
               1
     1  H    0.214470
     2  C   -0.830480
     3  H    0.212735
     4  H    0.210719
     5  H    0.192556
 Sum of Mulliken charges =   0.00000

 Dipole moment (field-independent basis, Debye):
    X=             -0.0374    Y=             -0.0210    Z=              0.0260  Tot=              0.0501
 Quadrupole moment (field-independent basis, Debye-Ang):
   XX=             -8.2173   YY=             -8.5971   ZZ=             -8.7452
   XY=              0.0480   XZ=              0.0128   YZ=             -0.0852

 Normal termination of Gaussian 16 at Fri Sep 22 17:21:34 2023.
