 Gaussian 16, Revision A.03,
 Gaussian 16:  ES64L-G16RevA.03 25-Dec-2016

 ------------------------------------------------------------------
 # 6-31+g(d) scrf=(solvent=water,pcm) int=ultrafine m062x scf=tight
 ------------------------------------------------------------------

 ------------------------
 tmpdir/M2_conf_115_6.gjf
 ------------------------
 Symbolic Z-matrix:
 Charge =  0 Multiplicity = 1

                         Standard orientation:
 ---------------------------------------------------------------------
 Center     Atomic      Atomic             Coordinates (Angstroms)
 Number     Number       Type             X           Y           Z
 ---------------------------------------------------------------------
      1          1           0       -1.037624    0.005141   -0.381734
      2          6           0       -0.013467   -0.013496   -0.015585
      3          1           0        0.788926   -0.193954   -0.727566
      4          1           0        0.101416   -0.755705    0.771328
      5          1           0        0.228085    1.025495    0.431482
 ---------------------------------------------------------------------

 SCF Done:  E(RM062X) =  -40.4793960453     A.U. after    9 cycles

 The electronic state is 1-A.
 Alpha  occ. eigenvalues --  -10.53205  -0.78212  -0.47272  -0.45260  -0.43466
 Alpha virt. eigenvalues --    0.03923   0.07064   0.07204   0.07381   0.20796
 Alpha virt. eigenvalues --    0.22721   0.24314   0.30594   0.68959   0.69199
 Alpha virt. eigenvalues --    0.70532   0.95519   0.99099   1.02673   1.11072

 Mulliken charges:
               1
     1  H    0.214776
     2  C   -0.830859
     3  H    0.212912
     4  H    0.210676
     5  H    0.192495
 Sum of Mulliken charges =  -0.00000

 Dipole moment (field-independent basis, Debye):
    X=              0.0409    Y=             -0.0206    Z=              0.0286  Tot=              0.0540
 Quadrupole moment (field-independent basis, Debye-Ang):
   XX=             -8.1952   YY=             -8.5983   ZZ=             -8.7685
   XY=             -0.0459   XZ=             -0.0119   YZ=             -0.0872

 Normal termination of Gaussian 16 at Fri Sep 22 17:21:06 2023.
