 Gaussian 16, Revision A.03,
 Gaussian 16:  ES64L-G16RevA.03 25-Dec-2016

 ------------------------------------------------------------------
 # 6-31+g(d) scrf=(solvent=water,pcm) int=ultrafine m062x scf=tight
 ------------------------------------------------------------------

 -----------------------
 tmpdir/M2_conf_50_9.gjf
 -----------------------
 Symbolic Z-matrix:
 Charge =  0 Multiplicity = 1

                         Standard orientation:
 ---------------------------------------------------------------------
 Center     Atomic      Atomic             Coordinates (Angstroms)
 Number     Number       Type             X           Y           Z
 ---------------------------------------------------------------------
      1          1           0       -1.053980    1.393224   -0.000000
      2          6           0        0.003050    1.136329   -0.000000
      3         17           0        0.003050   -0.661175    0.000000
      4          1           0        0.491912    1.514393    0.895200
      5          1           0        0.491912    1.514393   -0.895200
 ---------------------------------------------------------------------

 SCF Done:  E(RM062X) =  -500.050099375     A.U. after   10 cycles

 The electronic state is 1-A'.
 Alpha  occ. eigenvalues -- -102.66263 -10.60049  -9.80994  -7.53387  -7.52738
 Alpha  occ. eigenvalues --   -7.52734  -0.95402  -0.76690  -0.51867  -0.51705
 Alpha  occ. eigenvalues --   -0.47359  -0.36841  -0.36653
 Alpha virt. eigenvalues --    0.02800   0.03490   0.06906   0.06933   0.09127
 Alpha virt. eigenvalues --    0.11082   0.11100   0.12189   0.17787   0.21789
 Alpha virt. eigenvalues --    0.22118   0.29692   0.60593   0.63603   0.63959

 Mulliken charges:
               1
     1  H    0.259995
     2  C   -0.701029
     3  Cl  -0.085135
     4  H    0.263084
     5  H    0.263084
 Sum of Mulliken charges =  -0.00000

 Dipole moment (field-independent basis, Debye):
    X=             -0.0395    Y=              2.6292    Z=             -0.0000  Tot=              2.6295
 Quadrupole moment (field-independent basis, Debye-Ang):
   XX=            -20.0635   YY=            -18.1296   ZZ=            -20.0425
   XY=              0.1466   XZ=             -0.0000   YZ=             -0.0000

 Normal termination of Gaussian 16 at Fri Sep 22 17:13:39 2023.
