 Gaussian 16, Revision A.03,
 Gaussian 16:  ES64L-G16RevA.03 25-Dec-2016

 ------------------------------------------------------------------
 # 6-31+g(d) scrf=(solvent=water,pcm) int=ultrafine m062x scf=tight
 ------------------------------------------------------------------

 -----------------------
 tmpdir/M2_conf_74_6.gjf
 -----------------------
 Symbolic Z-matrix:
 Charge =  0 Multiplicity = 1

                         Standard orientation:
 ---------------------------------------------------------------------
 Center     Atomic      Atomic             Coordinates (Angstroms)
 Number     Number       Type             X           Y           Z
 ---------------------------------------------------------------------
      1          1           0       -1.038023    0.004333   -0.381191
      2          6           0       -0.013597   -0.013500   -0.015757
      3          1           0        0.789987   -0.191209   -0.727080
      4          1           0        0.102914   -0.757089    0.769613
      5          1           0        0.226705    1.024965    0.433201
 ---------------------------------------------------------------------

 SCF Done:  E(RM062X) =  -40.4793431398     A.U. after    9 cycles

 The electronic state is 1-A.
 Alpha  occ. eigenvalues --  -10.53205  -0.78213  -0.47290  -0.45253  -0.43453
 Alpha virt. eigenvalues --    0.03923   0.07062   0.07205   0.07381   0.20787
 Alpha virt. eigenvalues --    0.22714   0.24328   0.30592   0.68959   0.69203
 Alpha virt. eigenvalues --    0.70532   0.95497   0.99085   1.02701   1.11082

 Mulliken charges:
               1
     1  H    0.214834
     2  C   -0.830934
     3  H    0.212948
     4  H    0.210668
     5  H    0.192484
 Sum of Mulliken charges =   0.00000

 Dipole moment (field-independent basis, Debye):
    X=              0.0416    Y=             -0.0206    Z=              0.0291  Tot=              0.0548
 Quadrupole moment (field-independent basis, Debye-Ang):
   XX=             -8.1911   YY=             -8.5985   ZZ=             -8.7729
   XY=             -0.0456   XZ=             -0.0118   YZ=             -0.0876

 Normal termination of Gaussian 16 at Fri Sep 22 17:16:17 2023.
