 Gaussian 16, Revision A.03,
 Gaussian 16:  ES64L-G16RevA.03 25-Dec-2016

 ------------------------------------------------------------------
 # 6-31+g(d) scrf=(solvent=water,pcm) int=ultrafine m062x scf=tight
 ------------------------------------------------------------------

 ------------------------
 tmpdir/M2_conf_122_6.gjf
 ------------------------
 Symbolic Z-matrix:
 Charge =  0 Multiplicity = 1

                         Standard orientation:
 ---------------------------------------------------------------------
 Center     Atomic      Atomic             Coordinates (Angstroms)
 Number     Number       Type             X           Y           Z
 ---------------------------------------------------------------------
      1          1           0       -1.033958    0.016763   -0.386294
      2          6           0       -0.012315   -0.013422   -0.013944
      3          1           0        0.777160   -0.224975   -0.731778
      4          1           0        0.084356   -0.741172    0.788763
      5          1           0        0.246335    1.029918    0.412975
 ---------------------------------------------------------------------

 SCF Done:  E(RM062X) =  -40.4798576500     A.U. after    9 cycles

 The electronic state is 1-A.
 Alpha  occ. eigenvalues --  -10.53202  -0.78202  -0.47105  -0.45327  -0.43581
 Alpha virt. eigenvalues --    0.03924   0.07076   0.07199   0.07376   0.20877
 Alpha virt. eigenvalues --    0.22786   0.24180   0.30613   0.68959   0.69156
 Alpha virt. eigenvalues --    0.70530   0.95707   0.99242   1.02405   1.10990

 Mulliken charges:
               1
     1  H    0.214249
     2  C   -0.830218
     3  H    0.212611
     4  H    0.210753
     5  H    0.192604
 Sum of Mulliken charges =  -0.00000

 Dipole moment (field-independent basis, Debye):
    X=              0.0347    Y=             -0.0213    Z=              0.0240  Tot=              0.0472
 Quadrupole moment (field-independent basis, Debye-Ang):
   XX=             -8.2341   YY=             -8.5960   ZZ=             -8.7278
   XY=             -0.0501   XZ=             -0.0136   YZ=             -0.0835

 Normal termination of Gaussian 16 at Fri Sep 22 17:21:56 2023.
