 Gaussian 16, Revision A.03,
 Gaussian 16:  ES64L-G16RevA.03 25-Dec-2016

 ------------------------------------------------------------------
 # 6-31+g(d) scrf=(solvent=water,pcm) int=ultrafine m062x scf=tight
 ------------------------------------------------------------------

 ------------------------
 tmpdir/M2_conf_113_5.gjf
 ------------------------
 Symbolic Z-matrix:
 Charge =  0 Multiplicity = 1

                         Standard orientation:
 ---------------------------------------------------------------------
 Center     Atomic      Atomic             Coordinates (Angstroms)
 Number     Number       Type             X           Y           Z
 ---------------------------------------------------------------------
      1          1           0        1.038485    0.003419   -0.380575
      2          6           0        0.013752   -0.013505   -0.015960
      3          1           0       -0.791247   -0.188058   -0.726472
      4          1           0       -0.104620   -0.758678    0.767628
      5          1           0       -0.225129    1.024345    0.435177
 ---------------------------------------------------------------------

 SCF Done:  E(RM062X) =  -40.4792796146     A.U. after    9 cycles

 The electronic state is 1-A.
 Alpha  occ. eigenvalues --  -10.53205  -0.78215  -0.47311  -0.45246  -0.43438
 Alpha virt. eigenvalues --    0.03923   0.07061   0.07205   0.07382   0.20776
 Alpha virt. eigenvalues --    0.22706   0.24345   0.30590   0.68960   0.69209
 Alpha virt. eigenvalues --    0.70532   0.95472   0.99068   1.02734   1.11093

 Mulliken charges:
               1
     1  H    0.214904
     2  C   -0.831023
     3  H    0.212989
     4  H    0.210659
     5  H    0.192471
 Sum of Mulliken charges =  -0.00000

 Dipole moment (field-independent basis, Debye):
    X=             -0.0423    Y=             -0.0205    Z=              0.0297  Tot=              0.0556
 Quadrupole moment (field-independent basis, Debye-Ang):
   XX=             -8.1863   YY=             -8.5988   ZZ=             -8.7780
   XY=              0.0452   XZ=              0.0116   YZ=             -0.0880

 Normal termination of Gaussian 16 at Fri Sep 22 17:20:52 2023.
