 Gaussian 16, Revision A.03,
 Gaussian 16:  ES64L-G16RevA.03 25-Dec-2016

 ------------------------------------------------------------------
 # 6-31+g(d) scrf=(solvent=water,pcm) int=ultrafine m062x scf=tight
 ------------------------------------------------------------------

 ------------------------
 tmpdir/M2_conf_104_9.gjf
 ------------------------
 Symbolic Z-matrix:
 Charge =  0 Multiplicity = 1

                         Standard orientation:
 ---------------------------------------------------------------------
 Center     Atomic      Atomic             Coordinates (Angstroms)
 Number     Number       Type             X           Y           Z
 ---------------------------------------------------------------------
      1          1           0       -1.071289    1.071802   -0.000000
      2          6           0        0.014435    1.138970   -0.000000
      3         17           0        0.014435   -0.658529    0.000000
      4          1           0        0.369637    1.644688    0.895200
      5          1           0        0.369637    1.644688   -0.895200
 ---------------------------------------------------------------------

 SCF Done:  E(RM062X) =  -500.031435299     A.U. after   11 cycles

 The electronic state is 1-A'.
 Alpha  occ. eigenvalues -- -102.66383 -10.59945  -9.81144  -7.53542  -7.52882
 Alpha  occ. eigenvalues --   -7.52863  -0.95930  -0.76579  -0.53081  -0.51599
 Alpha  occ. eigenvalues --   -0.46569  -0.37196  -0.35657
 Alpha virt. eigenvalues --    0.02419   0.03525   0.06825   0.06963   0.09080
 Alpha virt. eigenvalues --    0.10655   0.11076   0.11842   0.17664   0.21533
 Alpha virt. eigenvalues --    0.22804   0.28804   0.60036   0.63123   0.65122

 Mulliken charges:
               1
     1  H    0.246568
     2  C   -0.685662
     3  Cl  -0.092547
     4  H    0.265821
     5  H    0.265821
 Sum of Mulliken charges =   0.00000

 Dipole moment (field-independent basis, Debye):
    X=             -0.2037    Y=              2.5614    Z=              0.0000  Tot=              2.5695
 Quadrupole moment (field-independent basis, Debye-Ang):
   XX=            -20.3294   YY=            -18.0550   ZZ=            -20.0121
   XY=              0.6323   XZ=              0.0000   YZ=              0.0000

 Normal termination of Gaussian 16 at Fri Sep 22 17:19:50 2023.
