 Gaussian 16, Revision A.03,
 Gaussian 16:  ES64L-G16RevA.03 25-Dec-2016

 ------------------------------------------------------------------
 # 6-31+g(d) scrf=(solvent=water,pcm) int=ultrafine m062x scf=tight
 ------------------------------------------------------------------

 -----------------------
 tmpdir/M2_conf_26_0.gjf
 -----------------------
 Symbolic Z-matrix:
 Charge = -1 Multiplicity = 1

                         Standard orientation:
 ---------------------------------------------------------------------
 Center     Atomic      Atomic             Coordinates (Angstroms)
 Number     Number       Type             X           Y           Z
 ---------------------------------------------------------------------
      1          7           0        0.000000    0.000000    0.541800
      2          6           0        0.000000    0.000000   -0.632100
 ---------------------------------------------------------------------

 SCF Done:  E(RM062X) =  -92.9322763263     A.U. after   10 cycles

 The electronic state is 1-SG.
 Alpha  occ. eigenvalues --  -14.69752 -10.49588  -0.93359  -0.43945  -0.34289
 Alpha  occ. eigenvalues --   -0.34289  -0.30675
 Alpha virt. eigenvalues --    0.04907   0.06842   0.06842   0.08736   0.14106
 Alpha virt. eigenvalues --    0.14106   0.16508   0.22761   0.22761   0.27848
 Alpha virt. eigenvalues --    0.52445   0.77412   0.77412   0.84230   1.00374

 Mulliken charges:
               1
     1  N   -0.668793
     2  C   -0.331207
 Sum of Mulliken charges =  -1.00000

 Dipole moment (field-independent basis, Debye):
    X=              0.0000    Y=              0.0000    Z=              0.4167  Tot=              0.4167
 Quadrupole moment (field-independent basis, Debye-Ang):
   XX=            -14.6381   YY=            -14.6381   ZZ=            -19.4951
   XY=              0.0000   XZ=              0.0000   YZ=              0.0000

 Normal termination of Gaussian 16 at Fri Sep 22 17:10:55 2023.
