 Gaussian 16, Revision A.03,
 Gaussian 16:  ES64L-G16RevA.03 25-Dec-2016

 ------------------------------------------------------------------
 # 6-31+g(d) scrf=(solvent=water,pcm) int=ultrafine m062x scf=tight
 ------------------------------------------------------------------

 ------------------------
 tmpdir/M2_conf_37_10.gjf
 ------------------------
 Symbolic Z-matrix:
 Charge =  0 Multiplicity = 1

                         Standard orientation:
 ---------------------------------------------------------------------
 Center     Atomic      Atomic             Coordinates (Angstroms)
 Number     Number       Type             X           Y           Z
 ---------------------------------------------------------------------
      1          1           0        1.041794    1.445539    0.000000
      2          6           0       -0.001102    1.136222    0.000000
      3         17           0       -0.001102   -0.661278   -0.000000
      4          1           0       -0.508219    1.489424    0.895200
      5          1           0       -0.508219    1.489424   -0.895200
 ---------------------------------------------------------------------

 SCF Done:  E(RM062X) =  -500.050791214     A.U. after   10 cycles

 The electronic state is 1-A'.
 Alpha  occ. eigenvalues -- -102.66259 -10.60051  -9.80989  -7.53382  -7.52733
 Alpha  occ. eigenvalues --   -7.52731  -0.95384  -0.76693  -0.51783  -0.51734
 Alpha  occ. eigenvalues --   -0.47403  -0.36789  -0.36727
 Alpha virt. eigenvalues --    0.02816   0.03489   0.06916   0.06926   0.09129
 Alpha virt. eigenvalues --    0.11097   0.11100   0.12217   0.17791   0.21879
 Alpha virt. eigenvalues --    0.22003   0.29738   0.60627   0.63696   0.63812

 Mulliken charges:
               1
     1  H    0.261477
     2  C   -0.701854
     3  Cl  -0.084677
     4  H    0.262527
     5  H    0.262527
 Sum of Mulliken charges =   0.00000

 Dipole moment (field-independent basis, Debye):
    X=              0.0141    Y=              2.6309    Z=             -0.0000  Tot=              2.6310
 Quadrupole moment (field-independent basis, Debye-Ang):
   XX=            -20.0506   YY=            -18.1335   ZZ=            -20.0459
   XY=             -0.0532   XZ=              0.0000   YZ=             -0.0000

 Normal termination of Gaussian 16 at Fri Sep 22 17:12:12 2023.
