 Gaussian 16, Revision A.03,
 Gaussian 16:  ES64L-G16RevA.03 25-Dec-2016

 ------------------------------------------------------------------
 # 6-31+g(d) scrf=(solvent=water,pcm) int=ultrafine m062x scf=tight
 ------------------------------------------------------------------

 -----------------------
 tmpdir/M2_conf_99_4.gjf
 -----------------------
 Symbolic Z-matrix:
 Charge =  0 Multiplicity = 1

                         Standard orientation:
 ---------------------------------------------------------------------
 Center     Atomic      Atomic             Coordinates (Angstroms)
 Number     Number       Type             X           Y           Z
 ---------------------------------------------------------------------
      1          6           0       -0.000000   -1.472875    0.000000
      2         17           0       -0.000000    0.839525   -0.000000
      3          1           0       -1.033730   -1.811555    0.000000
      4          1           0        0.516870   -1.811555    0.895240
      5          1           0        0.516870   -1.811555   -0.895240
 ---------------------------------------------------------------------

 SCF Done:  E(RM062X) =  -500.000993052     A.U. after   11 cycles

 The electronic state is 1-A'.
 Alpha  occ. eigenvalues -- -102.66167 -10.64687  -9.80460  -7.52830  -7.52217
 Alpha  occ. eigenvalues --   -7.52217  -0.88653  -0.80644  -0.51719  -0.51719
 Alpha  occ. eigenvalues --   -0.41367  -0.37125  -0.37125
 Alpha virt. eigenvalues --   -0.07451   0.03684   0.06868   0.06985   0.06986
 Alpha virt. eigenvalues --    0.10160   0.10863   0.10863   0.16427   0.21588
 Alpha virt. eigenvalues --    0.21589   0.29888   0.61024   0.61026   0.61724

 Mulliken charges:
               1
     1  C   -0.548485
     2  Cl  -0.297248
     3  H    0.281922
     4  H    0.281905
     5  H    0.281905
 Sum of Mulliken charges =  -0.00000

 Dipole moment (field-independent basis, Debye):
    X=              0.0001    Y=             -4.7466    Z=              0.0000  Tot=              4.7466
 Quadrupole moment (field-independent basis, Debye-Ang):
   XX=            -20.5049   YY=            -14.8571   ZZ=            -20.5048
   XY=              0.0003   XZ=              0.0000   YZ=             -0.0000

 Normal termination of Gaussian 16 at Fri Sep 22 17:19:15 2023.
