 Gaussian 16, Revision A.03,
 Gaussian 16:  ES64L-G16RevA.03 25-Dec-2016

 ------------------------------------------------------------------
 # 6-31+g(d) scrf=(solvent=water,pcm) int=ultrafine m062x scf=tight
 ------------------------------------------------------------------

 -----------------------
 tmpdir/M2_conf_29_8.gjf
 -----------------------
 Symbolic Z-matrix:
 Charge =  0 Multiplicity = 1

                         Standard orientation:
 ---------------------------------------------------------------------
 Center     Atomic      Atomic             Coordinates (Angstroms)
 Number     Number       Type             X           Y           Z
 ---------------------------------------------------------------------
      1          1           0        0.349537    0.970795   -0.360676
      2          6           0        0.014396    0.000351   -0.001194
      3          1           0        0.304447   -0.794163   -0.685247
      4          1           0        0.400291   -0.195630    0.996794
      5          1           0       -1.140654    0.016894    0.056295
 ---------------------------------------------------------------------

 SCF Done:  E(RM062X) =  -40.4813324384     A.U. after    9 cycles

 The electronic state is 1-A.
 Alpha  occ. eigenvalues --  -10.53191  -0.78171  -0.46052  -0.45926  -0.44071
 Alpha virt. eigenvalues --    0.03928   0.07149   0.07157   0.07352   0.21183
 Alpha virt. eigenvalues --    0.23294   0.23387   0.30697   0.68988   0.68997
 Alpha virt. eigenvalues --    0.70528   0.96489   1.00402   1.00624   1.10744

 Mulliken charges:
               1
     1  H    0.211666
     2  C   -0.828127
     3  H    0.211536
     4  H    0.211448
     5  H    0.193476
 Sum of Mulliken charges =  -0.00000

 Dipole moment (field-independent basis, Debye):
    X=              0.0247    Y=             -0.0029    Z=              0.0007  Tot=              0.0249
 Quadrupole moment (field-independent basis, Debye-Ang):
   XX=             -8.5979   YY=             -8.4582   ZZ=             -8.4864
   XY=              0.0042   XZ=              0.0121   YZ=             -0.0005

 Normal termination of Gaussian 16 at Fri Sep 22 17:11:18 2023.
