 Gaussian 16, Revision A.03,
 Gaussian 16:  ES64L-G16RevA.03 25-Dec-2016

 ------------------------------------------------------------------
 # 6-31+g(d) scrf=(solvent=water,pcm) int=ultrafine m062x scf=tight
 ------------------------------------------------------------------

 ------------------------
 tmpdir/M2_conf_116_4.gjf
 ------------------------
 Symbolic Z-matrix:
 Charge =  0 Multiplicity = 1

                         Standard orientation:
 ---------------------------------------------------------------------
 Center     Atomic      Atomic             Coordinates (Angstroms)
 Number     Number       Type             X           Y           Z
 ---------------------------------------------------------------------
      1          6           0       -0.000000   -1.551206    0.000000
      2         17           0       -0.000000    0.880994    0.000000
      3          1           0       -1.033730   -1.889886    0.000000
      4          1           0        0.516870   -1.889886    0.895240
      5          1           0        0.516870   -1.889886   -0.895240
 ---------------------------------------------------------------------

 SCF Done:  E(RM062X) =  -499.985705893     A.U. after   11 cycles

 The electronic state is 1-A'.
 Alpha  occ. eigenvalues -- -102.65910 -10.65622  -9.80168  -7.52529  -7.51931
 Alpha  occ. eigenvalues --   -7.51931  -0.87852  -0.81373  -0.52133  -0.52133
 Alpha  occ. eigenvalues --   -0.40212  -0.36906  -0.36906
 Alpha virt. eigenvalues --   -0.09524   0.03673   0.06680   0.06928   0.06928
 Alpha virt. eigenvalues --    0.10334   0.10827   0.10828   0.16161   0.21401
 Alpha virt. eigenvalues --    0.21401   0.29798   0.60892   0.60894   0.62183

 Mulliken charges:
               1
     1  C   -0.512046
     2  Cl  -0.344021
     3  H    0.285366
     4  H    0.285351
     5  H    0.285351
 Sum of Mulliken charges =  -0.00000

 Dipole moment (field-independent basis, Debye):
    X=              0.0000    Y=             -5.3382    Z=             -0.0000  Tot=              5.3382
 Quadrupole moment (field-independent basis, Debye-Ang):
   XX=            -20.5697   YY=            -13.9994   ZZ=            -20.5696
   XY=              0.0002   XZ=             -0.0000   YZ=              0.0000

 Normal termination of Gaussian 16 at Fri Sep 22 17:21:15 2023.
