 Gaussian 16, Revision A.03,
 Gaussian 16:  ES64L-G16RevA.03 25-Dec-2016

 ------------------------------------------------------------------
 # 6-31+g(d) scrf=(solvent=water,pcm) int=ultrafine m062x scf=tight
 ------------------------------------------------------------------

 -----------------------
 tmpdir/M2_conf_47_2.gjf
 -----------------------
 Symbolic Z-matrix:
 Charge =  0 Multiplicity = 1

                         Standard orientation:
 ---------------------------------------------------------------------
 Center     Atomic      Atomic             Coordinates (Angstroms)
 Number     Number       Type             X           Y           Z
 ---------------------------------------------------------------------
      1          6           0        0.014227    0.000012    0.001395
      2          1           0        0.297882    0.000251    1.044309
      3          1           0        0.380144   -0.894604   -0.497686
      4          1           0        0.377475    0.895885   -0.497371
      5          1           0       -1.140863   -0.001603   -0.057622
 ---------------------------------------------------------------------

 SCF Done:  E(RM062X) =  -40.4812887203     A.U. after    9 cycles

 The electronic state is 1-A.
 Alpha  occ. eigenvalues --  -10.53117  -0.78234  -0.46086  -0.45970  -0.44096
 Alpha virt. eigenvalues --    0.03932   0.07144   0.07157   0.07352   0.21208
 Alpha virt. eigenvalues --    0.23334   0.23485   0.30773   0.68851   0.69010
 Alpha virt. eigenvalues --    0.70528   0.96544   1.00499   1.00804   1.10857

 Mulliken charges:
               1
     1  C   -0.828577
     2  H    0.212781
     3  H    0.211250
     4  H    0.211250
     5  H    0.193295
 Sum of Mulliken charges =  -0.00000

 Dipole moment (field-independent basis, Debye):
    X=              0.0277    Y=              0.0001    Z=              0.0057  Tot=              0.0283
 Quadrupole moment (field-independent basis, Debye-Ang):
   XX=             -8.5868   YY=             -8.4674   ZZ=             -8.4718
   XY=             -0.0004   XZ=             -0.0069   YZ=             -0.0000

 Normal termination of Gaussian 16 at Fri Sep 22 17:13:18 2023.
