 Gaussian 16, Revision A.03,
 Gaussian 16:  ES64L-G16RevA.03 25-Dec-2016

 ------------------------------------------------------------------
 # 6-31+g(d) scrf=(solvent=water,pcm) int=ultrafine m062x scf=tight
 ------------------------------------------------------------------

 -----------------------
 tmpdir/M2_conf_99_9.gjf
 -----------------------
 Symbolic Z-matrix:
 Charge =  0 Multiplicity = 1

                         Standard orientation:
 ---------------------------------------------------------------------
 Center     Atomic      Atomic             Coordinates (Angstroms)
 Number     Number       Type             X           Y           Z
 ---------------------------------------------------------------------
      1          1           0       -1.073863    1.103255    0.000000
      2          6           0        0.013364    1.138561    0.000000
      3         17           0        0.013364   -0.658936    0.000000
      4          1           0        0.383241    1.633647    0.895200
      5          1           0        0.383241    1.633647   -0.895200
 ---------------------------------------------------------------------

 SCF Done:  E(RM062X) =  -500.034423251     A.U. after   11 cycles

 The electronic state is 1-A'.
 Alpha  occ. eigenvalues -- -102.66360 -10.59967  -9.81115  -7.53513  -7.52855
 Alpha  occ. eigenvalues --   -7.52837  -0.95838  -0.76598  -0.52922  -0.51606
 Alpha  occ. eigenvalues --   -0.46660  -0.37155  -0.35803
 Alpha virt. eigenvalues --    0.02476   0.03520   0.06835   0.06961   0.09087
 Alpha virt. eigenvalues --    0.10722   0.11080   0.11871   0.17683   0.21549
 Alpha virt. eigenvalues --    0.22739   0.28910   0.60097   0.63166   0.65042

 Mulliken charges:
               1
     1  H    0.248077
     2  C   -0.687293
     3  Cl  -0.091937
     4  H    0.265577
     5  H    0.265577
 Sum of Mulliken charges =   0.00000

 Dipole moment (field-independent basis, Debye):
    X=             -0.1866    Y=              2.5744    Z=              0.0000  Tot=              2.5812
 Quadrupole moment (field-independent basis, Debye-Ang):
   XX=            -20.2904   YY=            -18.0643   ZZ=            -20.0161
   XY=              0.5942   XZ=              0.0000   YZ=              0.0000

 Normal termination of Gaussian 16 at Fri Sep 22 17:19:14 2023.
