 Gaussian 16, Revision A.03,
 Gaussian 16:  ES64L-G16RevA.03 25-Dec-2016

 ------------------------------------------------------------------
 # 6-31+g(d) scrf=(solvent=water,pcm) int=ultrafine m062x scf=tight
 ------------------------------------------------------------------

 -----------------------
 tmpdir/M2_conf_60_5.gjf
 -----------------------
 Symbolic Z-matrix:
 Charge =  0 Multiplicity = 1

                         Standard orientation:
 ---------------------------------------------------------------------
 Center     Atomic      Atomic             Coordinates (Angstroms)
 Number     Number       Type             X           Y           Z
 ---------------------------------------------------------------------
      1          1           0        1.029775    0.043984   -0.390059
      2          6           0        0.011334   -0.013211   -0.012152
      3          1           0       -0.758517   -0.274000   -0.735075
      4          1           0       -0.055686   -0.721950    0.810345
      5          1           0       -0.283574    1.031234    0.387702
 ---------------------------------------------------------------------

 SCF Done:  E(RM062X) =  -40.4802749404     A.U. after    9 cycles

 The electronic state is 1-A.
 Alpha  occ. eigenvalues --  -10.53199  -0.78193  -0.46927  -0.45406  -0.43691
 Alpha virt. eigenvalues --    0.03925   0.07088   0.07192   0.07372   0.20951
 Alpha virt. eigenvalues --    0.22861   0.24040   0.30632   0.68960   0.69116
 Alpha virt. eigenvalues --    0.70529   0.95887   0.99408   1.02114   1.10918

 Mulliken charges:
               1
     1  H    0.213732
     2  C   -0.829639
     3  H    0.212338
     4  H    0.210842
     5  H    0.192726
 Sum of Mulliken charges =  -0.00000

 Dipole moment (field-independent basis, Debye):
    X=             -0.0277    Y=             -0.0222    Z=              0.0192  Tot=              0.0404
 Quadrupole moment (field-independent basis, Debye-Ang):
   XX=             -8.2770   YY=             -8.5921   ZZ=             -8.6850
   XY=              0.0583   XZ=              0.0162   YZ=             -0.0781

 Normal termination of Gaussian 16 at Fri Sep 22 17:14:44 2023.
