 Gaussian 16, Revision A.03,
 Gaussian 16:  ES64L-G16RevA.03 25-Dec-2016

 ------------------------------------------------------------------
 # 6-31+g(d) scrf=(solvent=water,pcm) int=ultrafine m062x scf=tight
 ------------------------------------------------------------------

 -----------------------
 tmpdir/M2_conf_52_6.gjf
 -----------------------
 Symbolic Z-matrix:
 Charge =  0 Multiplicity = 1

                         Standard orientation:
 ---------------------------------------------------------------------
 Center     Atomic      Atomic             Coordinates (Angstroms)
 Number     Number       Type             X           Y           Z
 ---------------------------------------------------------------------
      1          1           0       -1.012662    0.171767   -0.392582
      2          6           0       -0.011234   -0.012050   -0.009617
      3          1           0        0.691362   -0.413913   -0.736368
      4          1           0       -0.042582   -0.683060    0.845993
      5          1           0        0.431283    0.997507    0.340658
 ---------------------------------------------------------------------

 SCF Done:  E(RM062X) =  -40.4807233427     A.U. after    9 cycles

 The electronic state is 1-A.
 Alpha  occ. eigenvalues --  -10.53196  -0.78183  -0.46690  -0.45527  -0.43820
 Alpha virt. eigenvalues --    0.03927   0.07105   0.07184   0.07366   0.21035
 Alpha virt. eigenvalues --    0.22970   0.23857   0.30654   0.68964   0.69073
 Alpha virt. eigenvalues --    0.70528   0.96094   0.99652   1.01716   1.10843

 Mulliken charges:
               1
     1  H    0.213092
     2  C   -0.829011
     3  H    0.212033
     4  H    0.210978
     5  H    0.192907
 Sum of Mulliken charges =  -0.00000

 Dipole moment (field-independent basis, Debye):
    X=              0.0161    Y=             -0.0246    Z=              0.0130  Tot=              0.0322
 Quadrupole moment (field-independent basis, Debye-Ang):
   XX=             -8.3487   YY=             -8.5731   ZZ=             -8.6279
   XY=             -0.0872   XZ=             -0.0248   YZ=             -0.0664

 Normal termination of Gaussian 16 at Fri Sep 22 17:13:51 2023.
