 Gaussian 16, Revision A.03,
 Gaussian 16:  ES64L-G16RevA.03 25-Dec-2016

 ------------------------------------------------------------------
 # 6-31+g(d) scrf=(solvent=water,pcm) int=ultrafine m062x scf=tight
 ------------------------------------------------------------------

 -----------------------
 tmpdir/M2_conf_52_9.gjf
 -----------------------
 Symbolic Z-matrix:
 Charge =  0 Multiplicity = 1

                         Standard orientation:
 ---------------------------------------------------------------------
 Center     Atomic      Atomic             Coordinates (Angstroms)
 Number     Number       Type             X           Y           Z
 ---------------------------------------------------------------------
      1          1           0       -1.055769    1.384383   -0.000000
      2          6           0        0.003377    1.136352   -0.000000
      3         17           0        0.003377   -0.661147    0.000000
      4          1           0        0.489054    1.518499    0.895200
      5          1           0        0.489054    1.518499   -0.895200
 ---------------------------------------------------------------------

 SCF Done:  E(RM062X) =  -500.049919125     A.U. after   10 cycles

 The electronic state is 1-A'.
 Alpha  occ. eigenvalues -- -102.66264 -10.60049  -9.80995  -7.53388  -7.52740
 Alpha  occ. eigenvalues --   -7.52735  -0.95406  -0.76689  -0.51885  -0.51700
 Alpha  occ. eigenvalues --   -0.47348  -0.36850  -0.36638
 Alpha virt. eigenvalues --    0.02796   0.03490   0.06905   0.06934   0.09127
 Alpha virt. eigenvalues --    0.11078   0.11100   0.12182   0.17786   0.21776
 Alpha virt. eigenvalues --    0.22137   0.29680   0.60584   0.63588   0.63988

 Mulliken charges:
               1
     1  H    0.259722
     2  C   -0.700818
     3  Cl  -0.085250
     4  H    0.263173
     5  H    0.263173
 Sum of Mulliken charges =  -0.00000

 Dipole moment (field-independent basis, Debye):
    X=             -0.0438    Y=              2.6287    Z=             -0.0000  Tot=              2.6291
 Quadrupole moment (field-independent basis, Debye-Ang):
   XX=            -20.0666   YY=            -18.1287   ZZ=            -20.0419
   XY=              0.1621   XZ=              0.0000   YZ=             -0.0000

 Normal termination of Gaussian 16 at Fri Sep 22 17:13:52 2023.
