 Gaussian 16, Revision A.03,
 Gaussian 16:  ES64L-G16RevA.03 25-Dec-2016

 ------------------------------------------------------------------
 # 6-31+g(d) scrf=(solvent=water,pcm) int=ultrafine m062x scf=tight
 ------------------------------------------------------------------

 -----------------------
 tmpdir/M2_conf_71_4.gjf
 -----------------------
 Symbolic Z-matrix:
 Charge =  0 Multiplicity = 1

                         Standard orientation:
 ---------------------------------------------------------------------
 Center     Atomic      Atomic             Coordinates (Angstroms)
 Number     Number       Type             X           Y           Z
 ---------------------------------------------------------------------
      1          6           0       -0.000000   -1.337398    0.000000
      2         17           0       -0.000000    0.767802    0.000000
      3          1           0       -1.033730   -1.676078    0.000000
      4          1           0        0.516870   -1.676078    0.895240
      5          1           0        0.516870   -1.676078   -0.895240
 ---------------------------------------------------------------------

 SCF Done:  E(RM062X) =  -500.027292567     A.U. after   10 cycles

 The electronic state is 1-A'.
 Alpha  occ. eigenvalues -- -102.66426 -10.62933  -9.80828  -7.53209  -7.52577
 Alpha  occ. eigenvalues --   -7.52577  -0.90540  -0.79232  -0.51241  -0.51241
 Alpha  occ. eigenvalues --   -0.43649  -0.37328  -0.37328
 Alpha virt. eigenvalues --   -0.03161   0.03658   0.07034   0.07035   0.07526
 Alpha virt. eigenvalues --    0.09870   0.10939   0.10939   0.16936   0.21843
 Alpha virt. eigenvalues --    0.21843   0.29930   0.61185   0.61648   0.61649

 Mulliken charges:
               1
     1  C   -0.615612
     2  Cl  -0.210861
     3  H    0.275489
     4  H    0.275492
     5  H    0.275492
 Sum of Mulliken charges =  -0.00000

 Dipole moment (field-independent basis, Debye):
    X=              0.0003    Y=             -3.8057    Z=             -0.0000  Tot=              3.8057
 Quadrupole moment (field-independent basis, Debye-Ang):
   XX=            -20.3613   YY=            -16.2580   ZZ=            -20.3612
   XY=              0.0002   XZ=             -0.0000   YZ=              0.0000

 Normal termination of Gaussian 16 at Fri Sep 22 17:15:58 2023.
