 Gaussian 16, Revision A.03,
 Gaussian 16:  ES64L-G16RevA.03 25-Dec-2016

 ------------------------------------------------------------------
 # 6-31+g(d) scrf=(solvent=water,pcm) int=ultrafine m062x scf=tight
 ------------------------------------------------------------------

 -----------------------
 tmpdir/M2_conf_56_4.gjf
 -----------------------
 Symbolic Z-matrix:
 Charge =  0 Multiplicity = 1

                         Standard orientation:
 ---------------------------------------------------------------------
 Center     Atomic      Atomic             Coordinates (Angstroms)
 Number     Number       Type             X           Y           Z
 ---------------------------------------------------------------------
      1          6           0       -0.000000   -1.266914   -0.000000
      2         17           0       -0.000000    0.730486    0.000000
      3          1           0       -1.033730   -1.605594   -0.000000
      4          1           0        0.516870   -1.605594    0.895240
      5          1           0        0.516870   -1.605594   -0.895240
 ---------------------------------------------------------------------

 SCF Done:  E(RM062X) =  -500.039250335     A.U. after   10 cycles

 The electronic state is 1-A'.
 Alpha  occ. eigenvalues -- -102.66449 -10.61953  -9.80937  -7.53323  -7.52685
 Alpha  occ. eigenvalues --   -7.52685  -0.91885  -0.78407  -0.51194  -0.51193
 Alpha  occ. eigenvalues --   -0.44941  -0.37284  -0.37284
 Alpha virt. eigenvalues --   -0.00744   0.03617   0.07027   0.07027   0.08232
 Alpha virt. eigenvalues --    0.09799   0.10988   0.10988   0.17221   0.21927
 Alpha virt. eigenvalues --    0.21927   0.29895   0.61119   0.62215   0.62215

 Mulliken charges:
               1
     1  C   -0.649172
     2  Cl  -0.165297
     3  H    0.271485
     4  H    0.271492
     5  H    0.271492
 Sum of Mulliken charges =  -0.00000

 Dipole moment (field-independent basis, Debye):
    X=              0.0002    Y=             -3.3616    Z=              0.0000  Tot=              3.3616
 Quadrupole moment (field-independent basis, Debye-Ang):
   XX=            -20.2665   YY=            -16.9451   ZZ=            -20.2664
   XY=              0.0001   XZ=              0.0000   YZ=             -0.0000

 Normal termination of Gaussian 16 at Fri Sep 22 17:14:19 2023.
