 Gaussian 16, Revision A.03,
 Gaussian 16:  ES64L-G16RevA.03 25-Dec-2016

 ------------------------------------------------------------------
 # 6-31+g(d) scrf=(solvent=water,pcm) int=ultrafine m062x scf=tight
 ------------------------------------------------------------------

 -----------------------
 tmpdir/M2_conf_48_7.gjf
 -----------------------
 Symbolic Z-matrix:
 Charge =  0 Multiplicity = 1

                         Standard orientation:
 ---------------------------------------------------------------------
 Center     Atomic      Atomic             Coordinates (Angstroms)
 Number     Number       Type             X           Y           Z
 ---------------------------------------------------------------------
      1          1           0        1.052039    1.402410    0.000000
      2          6           0       -0.002710    1.136303    0.000000
      3         17           0       -0.002710   -0.661200   -0.000000
      4          1           0       -0.494851    1.510088    0.895200
      5          1           0       -0.494851    1.510088   -0.895200
 ---------------------------------------------------------------------

 SCF Done:  E(RM062X) =  -500.050267348     A.U. after   10 cycles

 The electronic state is 1-A'.
 Alpha  occ. eigenvalues -- -102.66262 -10.60050  -9.80993  -7.53386  -7.52737
 Alpha  occ. eigenvalues --   -7.52733  -0.95397  -0.76691  -0.51849  -0.51709
 Alpha  occ. eigenvalues --   -0.47370  -0.36832  -0.36668
 Alpha virt. eigenvalues --    0.02804   0.03489   0.06908   0.06932   0.09128
 Alpha virt. eigenvalues --    0.11085   0.11100   0.12195   0.17788   0.21803
 Alpha virt. eigenvalues --    0.22098   0.29703   0.60601   0.63619   0.63930

 Mulliken charges:
               1
     1  H    0.260272
     2  C   -0.701228
     3  Cl  -0.085025
     4  H    0.262990
     5  H    0.262990
 Sum of Mulliken charges =  -0.00000

 Dipole moment (field-independent basis, Debye):
    X=              0.0350    Y=              2.6296    Z=             -0.0000  Tot=              2.6299
 Quadrupole moment (field-independent basis, Debye-Ang):
   XX=            -20.0606   YY=            -18.1305   ZZ=            -20.0431
   XY=             -0.1304   XZ=              0.0000   YZ=             -0.0000

 Normal termination of Gaussian 16 at Fri Sep 22 17:13:25 2023.
