 Gaussian 16, Revision A.03,
 Gaussian 16:  ES64L-G16RevA.03 25-Dec-2016

 ------------------------------------------------------------------
 # 6-31+g(d) scrf=(solvent=water,pcm) int=ultrafine m062x scf=tight
 ------------------------------------------------------------------

 -----------------------
 tmpdir/M2_conf_19_6.gjf
 -----------------------
 Symbolic Z-matrix:
 Charge =  0 Multiplicity = 1

                         Standard orientation:
 ---------------------------------------------------------------------
 Center     Atomic      Atomic             Coordinates (Angstroms)
 Number     Number       Type             X           Y           Z
 ---------------------------------------------------------------------
      1          1           0       -0.351835    0.972396   -0.352198
      2          6           0       -0.014138    0.000080   -0.000245
      3          1           0       -0.343598   -0.790468   -0.670917
      4          1           0       -0.362143   -0.185381    1.013561
      5          1           0        1.142402    0.002969    0.011022
 ---------------------------------------------------------------------

 SCF Done:  E(RM062X) =  -40.4813467310     A.U. after    9 cycles

 The electronic state is 1-A.
 Alpha  occ. eigenvalues --  -10.53191  -0.78171  -0.45993  -0.45967  -0.44088
 Alpha virt. eigenvalues --    0.03929   0.07153   0.07155   0.07351   0.21192
 Alpha virt. eigenvalues --    0.23326   0.23345   0.30699   0.68992   0.68994
 Alpha virt. eigenvalues --    0.70529   0.96516   1.00476   1.00523   1.10741

 Mulliken charges:
               1
     1  H    0.211548
     2  C   -0.828080
     3  H    0.211503
     4  H    0.211493
     5  H    0.193535
 Sum of Mulliken charges =   0.00000

 Dipole moment (field-independent basis, Debye):
    X=             -0.0259    Y=             -0.0005    Z=              0.0002  Tot=              0.0259
 Quadrupole moment (field-independent basis, Debye-Ang):
   XX=             -8.5947   YY=             -8.4709   ZZ=             -8.4766
   XY=             -0.0008   XZ=             -0.0024   YZ=             -0.0001

 Normal termination of Gaussian 16 at Fri Sep 22 17:10:11 2023.
