 Gaussian 16, Revision A.03,
 Gaussian 16:  ES64L-G16RevA.03 25-Dec-2016

 ------------------------------------------------------------------
 # 6-31+g(d) scrf=(solvent=water,pcm) int=ultrafine m062x scf=tight
 ------------------------------------------------------------------

 -----------------------
 tmpdir/M2_conf_91_4.gjf
 -----------------------
 Symbolic Z-matrix:
 Charge =  0 Multiplicity = 1

                         Standard orientation:
 ---------------------------------------------------------------------
 Center     Atomic      Atomic             Coordinates (Angstroms)
 Number     Number       Type             X           Y           Z
 ---------------------------------------------------------------------
      1          6           0       -0.000000   -1.431029    0.000000
      2         17           0       -0.000000    0.817371   -0.000000
      3          1           0       -1.033730   -1.769709    0.000000
      4          1           0        0.516870   -1.769709    0.895240
      5          1           0        0.516870   -1.769709   -0.895240
 ---------------------------------------------------------------------

 SCF Done:  E(RM062X) =  -500.009269085     A.U. after   10 cycles

 The electronic state is 1-A'.
 Alpha  occ. eigenvalues -- -102.66273 -10.64164  -9.80593  -7.52967  -7.52347
 Alpha  occ. eigenvalues --   -7.52347  -0.89156  -0.80230  -0.51532  -0.51532
 Alpha  occ. eigenvalues --   -0.42035  -0.37217  -0.37217
 Alpha virt. eigenvalues --   -0.06215   0.03683   0.07008   0.07009   0.07011
 Alpha virt. eigenvalues --    0.10066   0.10884   0.10884   0.16578   0.21678
 Alpha virt. eigenvalues --    0.21678   0.29917   0.61159   0.61160   0.61503

 Mulliken charges:
               1
     1  C   -0.568947
     2  Cl  -0.271174
     3  H    0.280051
     4  H    0.280035
     5  H    0.280035
 Sum of Mulliken charges =  -0.00000

 Dipole moment (field-independent basis, Debye):
    X=              0.0001    Y=             -4.4449    Z=             -0.0000  Tot=              4.4449
 Quadrupole moment (field-independent basis, Debye-Ang):
   XX=            -20.4653   YY=            -15.3008   ZZ=            -20.4652
   XY=              0.0003   XZ=              0.0000   YZ=              0.0000

 Normal termination of Gaussian 16 at Fri Sep 22 17:18:18 2023.
