 Gaussian 16, Revision A.03,
 Gaussian 16:  ES64L-G16RevA.03 25-Dec-2016

 ------------------------------------------------------------------
 # 6-31+g(d) scrf=(solvent=water,pcm) int=ultrafine m062x scf=tight
 ------------------------------------------------------------------

 ------------------------
 tmpdir/M2_conf_113_1.gjf
 ------------------------
 Symbolic Z-matrix:
 Charge =  0 Multiplicity = 1

                         Standard orientation:
 ---------------------------------------------------------------------
 Center     Atomic      Atomic             Coordinates (Angstroms)
 Number     Number       Type             X           Y           Z
 ---------------------------------------------------------------------
      1          6           0       -0.014268    0.000012    0.001867
      2          1           0       -0.281132    0.000185    1.046519
      3          1           0       -0.387857   -0.894571   -0.491559
      4          1           0       -0.385175    0.895918   -0.491170
      5          1           0        1.139772   -0.001603   -0.074989
 ---------------------------------------------------------------------

 SCF Done:  E(RM062X) =  -40.4812494038     A.U. after    9 cycles

 The electronic state is 1-A.
 Alpha  occ. eigenvalues --  -10.53089  -0.78257  -0.46126  -0.45967  -0.44097
 Alpha virt. eigenvalues --    0.03933   0.07140   0.07159   0.07353   0.21213
 Alpha virt. eigenvalues --    0.23334   0.23541   0.30801   0.68798   0.69016
 Alpha virt. eigenvalues --    0.70529   0.96552   1.00500   1.00920   1.10901

 Mulliken charges:
               1
     1  C   -0.828746
     2  H    0.213249
     3  H    0.211150
     4  H    0.211150
     5  H    0.193197
 Sum of Mulliken charges =   0.00000

 Dipole moment (field-independent basis, Debye):
    X=             -0.0282    Y=              0.0001    Z=              0.0078  Tot=              0.0292
 Quadrupole moment (field-independent basis, Debye-Ang):
   XX=             -8.5841   YY=             -8.4649   ZZ=             -8.4710
   XY=              0.0004   XZ=              0.0089   YZ=             -0.0000

 Normal termination of Gaussian 16 at Fri Sep 22 17:20:52 2023.
