 Gaussian 16, Revision A.03,
 Gaussian 16:  ES64L-G16RevA.03 25-Dec-2016

 ------------------------------------------------------------------
 # 6-31+g(d) scrf=(solvent=water,pcm) int=ultrafine m062x scf=tight
 ------------------------------------------------------------------

 ----------------------
 tmpdir/M2_conf_2_3.gjf
 ----------------------
 Symbolic Z-matrix:
 Charge =  0 Multiplicity = 1

                         Standard orientation:
 ---------------------------------------------------------------------
 Center     Atomic      Atomic             Coordinates (Angstroms)
 Number     Number       Type             X           Y           Z
 ---------------------------------------------------------------------
      1          6           0       -0.014137    0.000012    0.000561
      2          1           0       -0.329820    0.000643    1.038726
      3          1           0       -0.365099   -0.894800   -0.508804
      4          1           0       -0.362454    0.895689   -0.509088
      5          1           0        1.142195   -0.001603   -0.024203
 ---------------------------------------------------------------------

 SCF Done:  E(RM062X) =  -40.4813336350     A.U. after    9 cycles

 The electronic state is 1-A.
 Alpha  occ. eigenvalues --  -10.53162  -0.78195  -0.46019  -0.45975  -0.44094
 Alpha virt. eigenvalues --    0.03929   0.07150   0.07155   0.07351   0.21200
 Alpha virt. eigenvalues --    0.23334   0.23392   0.30727   0.68939   0.68999
 Alpha virt. eigenvalues --    0.70528   0.96531   1.00497   1.00614   1.10784

 Mulliken charges:
               1
     1  C   -0.828284
     2  H    0.212002
     3  H    0.211414
     4  H    0.211413
     5  H    0.193455
 Sum of Mulliken charges =   0.00000

 Dipole moment (field-independent basis, Debye):
    X=             -0.0269    Y=              0.0001    Z=              0.0022  Tot=              0.0270
 Quadrupole moment (field-independent basis, Debye-Ang):
   XX=             -8.5911   YY=             -8.4716   ZZ=             -8.4732
   XY=              0.0004   XZ=              0.0029   YZ=             -0.0000

 Normal termination of Gaussian 16 at Fri Sep 22 17:08:18 2023.
