 Gaussian 16, Revision A.03,
 Gaussian 16:  ES64L-G16RevA.03 25-Dec-2016

 ------------------------------------------------------------------
 # 6-31+g(d) scrf=(solvent=water,pcm) int=ultrafine m062x scf=tight
 ------------------------------------------------------------------

 -----------------------
 tmpdir/M2_conf_43_8.gjf
 -----------------------
 Symbolic Z-matrix:
 Charge =  0 Multiplicity = 1

                         Standard orientation:
 ---------------------------------------------------------------------
 Center     Atomic      Atomic             Coordinates (Angstroms)
 Number     Number       Type             X           Y           Z
 ---------------------------------------------------------------------
      1          1           0        0.535267    0.874706   -0.388286
      2          6           0        0.015483   -0.001113   -0.006088
      3          1           0       -0.044643   -0.812541   -0.728087
      4          1           0        0.486703   -0.362094    0.905476
      5          1           0       -1.070223    0.306608    0.247425
 ---------------------------------------------------------------------

 SCF Done:  E(RM062X) =  -40.4811114173     A.U. after    9 cycles

 The electronic state is 1-A.
 Alpha  occ. eigenvalues --  -10.53194  -0.78175  -0.46393  -0.45701  -0.43952
 Alpha virt. eigenvalues --    0.03928   0.07126   0.07172   0.07359   0.21116
 Alpha virt. eigenvalues --    0.23116   0.23634   0.30677   0.68973   0.69030
 Alpha virt. eigenvalues --    0.70527   0.96305   0.99987   1.01210   1.10780

 Mulliken charges:
               1
     1  H    0.212380
     2  C   -0.828479
     3  H    0.211750
     4  H    0.211186
     5  H    0.193163
 Sum of Mulliken charges =   0.00000

 Dipole moment (field-independent basis, Debye):
    X=              0.0148    Y=             -0.0192    Z=              0.0063  Tot=              0.0250
 Quadrupole moment (field-independent basis, Debye-Ang):
   XX=             -8.5799   YY=             -8.4077   ZZ=             -8.5580
   XY=              0.0683   XZ=              0.0498   YZ=             -0.0162

 Normal termination of Gaussian 16 at Fri Sep 22 17:12:51 2023.
