 Gaussian 16, Revision A.03,
 Gaussian 16:  ES64L-G16RevA.03 25-Dec-2016

 ------------------------------------------------------------------
 # 6-31+g(d) scrf=(solvent=water,pcm) int=ultrafine m062x scf=tight
 ------------------------------------------------------------------

 -----------------------
 tmpdir/M2_conf_66_1.gjf
 -----------------------
 Symbolic Z-matrix:
 Charge =  0 Multiplicity = 1

                         Standard orientation:
 ---------------------------------------------------------------------
 Center     Atomic      Atomic             Coordinates (Angstroms)
 Number     Number       Type             X           Y           Z
 ---------------------------------------------------------------------
      1          6           0       -0.014271    0.000012    0.001902
      2          1           0       -0.279914    0.000181    1.046659
      3          1           0       -0.388413   -0.894569   -0.491108
      4          1           0       -0.385730    0.895920   -0.490715
      5          1           0        1.139683   -0.001603   -0.076248
 ---------------------------------------------------------------------

 SCF Done:  E(RM062X) =  -40.4812459944     A.U. after    9 cycles

 The electronic state is 1-A.
 Alpha  occ. eigenvalues --  -10.53087  -0.78259  -0.46129  -0.45967  -0.44097
 Alpha virt. eigenvalues --    0.03933   0.07140   0.07159   0.07353   0.21214
 Alpha virt. eigenvalues --    0.23334   0.23545   0.30803   0.68794   0.69017
 Alpha virt. eigenvalues --    0.70529   0.96553   1.00500   1.00929   1.10904

 Mulliken charges:
               1
     1  C   -0.828759
     2  H    0.213285
     3  H    0.211142
     4  H    0.211142
     5  H    0.193190
 Sum of Mulliken charges =   0.00000

 Dipole moment (field-independent basis, Debye):
    X=             -0.0282    Y=              0.0001    Z=              0.0079  Tot=              0.0293
 Quadrupole moment (field-independent basis, Debye-Ang):
   XX=             -8.5839   YY=             -8.4647   ZZ=             -8.4709
   XY=              0.0004   XZ=              0.0091   YZ=             -0.0000

 Normal termination of Gaussian 16 at Fri Sep 22 17:15:24 2023.
