 Gaussian 16, Revision A.03,
 Gaussian 16:  ES64L-G16RevA.03 25-Dec-2016

 ------------------------------------------------------------------
 # 6-31+g(d) scrf=(solvent=water,pcm) int=ultrafine m062x scf=tight
 ------------------------------------------------------------------

 ------------------------
 tmpdir/M2_conf_113_9.gjf
 ------------------------
 Symbolic Z-matrix:
 Charge =  0 Multiplicity = 1

                         Standard orientation:
 ---------------------------------------------------------------------
 Center     Atomic      Atomic             Coordinates (Angstroms)
 Number     Number       Type             X           Y           Z
 ---------------------------------------------------------------------
      1          1           0       -1.064489    1.016439   -0.000000
      2          6           0        0.016298    1.139767   -0.000000
      3         17           0        0.016298   -0.657733    0.000000
      4          1           0        0.344821    1.663208    0.895200
      5          1           0        0.344821    1.663208   -0.895200
 ---------------------------------------------------------------------

 SCF Done:  E(RM062X) =  -500.025491805     A.U. after   11 cycles

 The electronic state is 1-A'.
 Alpha  occ. eigenvalues -- -102.66434 -10.59895  -9.81205  -7.53605  -7.52940
 Alpha  occ. eigenvalues --   -7.52919  -0.96120  -0.76539  -0.53376  -0.51585
 Alpha  occ. eigenvalues --   -0.46414  -0.37275  -0.35368
 Alpha virt. eigenvalues --    0.02309   0.03534   0.06808   0.06967   0.09064
 Alpha virt. eigenvalues --    0.10530   0.11067   0.11799   0.17626   0.21503
 Alpha virt. eigenvalues --    0.22915   0.28625   0.59935   0.63051   0.65225

 Mulliken charges:
               1
     1  H    0.243941
     2  C   -0.683216
     3  Cl  -0.093206
     4  H    0.266240
     5  H    0.266240
 Sum of Mulliken charges =  -0.00000

 Dipole moment (field-independent basis, Debye):
    X=             -0.2348    Y=              2.5330    Z=             -0.0000  Tot=              2.5438
 Quadrupole moment (field-independent basis, Debye-Ang):
   XX=            -20.4045   YY=            -18.0394   ZZ=            -20.0044
   XY=              0.6922   XZ=             -0.0000   YZ=             -0.0000

 Normal termination of Gaussian 16 at Fri Sep 22 17:20:54 2023.
