 Gaussian 16, Revision A.03,
 Gaussian 16:  ES64L-G16RevA.03 25-Dec-2016

 ------------------------------------------------------------------
 # 6-31+g(d) scrf=(solvent=water,pcm) int=ultrafine m062x scf=tight
 ------------------------------------------------------------------

 -----------------------
 tmpdir/M2_conf_52_8.gjf
 -----------------------
 Symbolic Z-matrix:
 Charge =  0 Multiplicity = 1

                         Standard orientation:
 ---------------------------------------------------------------------
 Center     Atomic      Atomic             Coordinates (Angstroms)
 Number     Number       Type             X           Y           Z
 ---------------------------------------------------------------------
      1          1           0        1.012321    0.173635   -0.392591
      2          6           0        0.011245   -0.012032   -0.009599
      3          1           0       -0.690380   -0.415579   -0.736355
      4          1           0        0.043894   -0.682641    0.846276
      5          1           0       -0.433303    0.996777    0.340260
 ---------------------------------------------------------------------

 SCF Done:  E(RM062X) =  -40.4807260497     A.U. after    9 cycles

 The electronic state is 1-A.
 Alpha  occ. eigenvalues --  -10.53196  -0.78183  -0.46688  -0.45528  -0.43820
 Alpha virt. eigenvalues --    0.03927   0.07105   0.07184   0.07366   0.21036
 Alpha virt. eigenvalues --    0.22971   0.23855   0.30654   0.68964   0.69072
 Alpha virt. eigenvalues --    0.70528   0.96096   0.99654   1.01713   1.10843

 Mulliken charges:
               1
     1  H    0.213088
     2  C   -0.829008
     3  H    0.212032
     4  H    0.210980
     5  H    0.192909
 Sum of Mulliken charges =  -0.00000

 Dipole moment (field-independent basis, Debye):
    X=             -0.0160    Y=             -0.0246    Z=              0.0130  Tot=              0.0321
 Quadrupole moment (field-independent basis, Debye-Ang):
   XX=             -8.3494   YY=             -8.5727   ZZ=             -8.6276
   XY=              0.0875   XZ=              0.0249   YZ=             -0.0663

 Normal termination of Gaussian 16 at Fri Sep 22 17:13:51 2023.
