 Gaussian 16, Revision A.03,
 Gaussian 16:  ES64L-G16RevA.03 25-Dec-2016

 ------------------------------------------------------------------
 # 6-31+g(d) scrf=(solvent=water,pcm) int=ultrafine m062x scf=tight
 ------------------------------------------------------------------

 -----------------------
 tmpdir/M2_conf_95_8.gjf
 -----------------------
 Symbolic Z-matrix:
 Charge =  0 Multiplicity = 1

                         Standard orientation:
 ---------------------------------------------------------------------
 Center     Atomic      Atomic             Coordinates (Angstroms)
 Number     Number       Type             X           Y           Z
 ---------------------------------------------------------------------
      1          1           0        1.043154   -0.002279   -0.373909
      2          6           0        0.015319   -0.013518   -0.017905
      3          1           0       -0.801934   -0.162436   -0.720204
      4          1           0       -0.118708   -0.772370    0.749874
      5          1           0       -0.214427    1.018196    0.451670
 ---------------------------------------------------------------------

 SCF Done:  E(RM062X) =  -40.4786075686     A.U. after    9 cycles

 The electronic state is 1-A.
 Alpha  occ. eigenvalues --  -10.53209  -0.78230  -0.47514  -0.45178  -0.43281
 Alpha virt. eigenvalues --    0.03921   0.07046   0.07211   0.07388   0.20661
 Alpha virt. eigenvalues --    0.22636   0.24513   0.30566   0.68963   0.69270
 Alpha virt. eigenvalues --    0.70535   0.95212   0.98917   1.03048   1.11218

 Mulliken charges:
               1
     1  H    0.215613
     2  C   -0.831979
     3  H    0.213439
     4  H    0.210578
     5  H    0.192349
 Sum of Mulliken charges =   0.00000

 Dipole moment (field-independent basis, Debye):
    X=             -0.0497    Y=             -0.0201    Z=              0.0354  Tot=              0.0642
 Quadrupole moment (field-independent basis, Debye-Ang):
   XX=             -8.1398   YY=             -8.6012   ZZ=             -8.8280
   XY=              0.0425   XZ=              0.0102   YZ=             -0.0913

 Normal termination of Gaussian 16 at Fri Sep 22 17:18:45 2023.
