 Gaussian 16, Revision A.03,
 Gaussian 16:  ES64L-G16RevA.03 25-Dec-2016

 ------------------------------------------------------------------
 # 6-31+g(d) scrf=(solvent=water,pcm) int=ultrafine m062x scf=tight
 ------------------------------------------------------------------

 -----------------------
 tmpdir/M2_conf_24_9.gjf
 -----------------------
 Symbolic Z-matrix:
 Charge =  0 Multiplicity = 1

                         Standard orientation:
 ---------------------------------------------------------------------
 Center     Atomic      Atomic             Coordinates (Angstroms)
 Number     Number       Type             X           Y           Z
 ---------------------------------------------------------------------
      1          1           0       -1.034880    1.470911    0.000000
      2          6           0        0.000148    1.136208    0.000000
      3         17           0        0.000148   -0.661294    0.000000
      4          1           0        0.515742    1.476915    0.895200
      5          1           0        0.515742    1.476915   -0.895200
 ---------------------------------------------------------------------

 SCF Done:  E(RM062X) =  -500.050893678     A.U. after   10 cycles

 The electronic state is 1-A'.
 Alpha  occ. eigenvalues -- -102.66258 -10.60050  -9.80988  -7.53381  -7.52731
 Alpha  occ. eigenvalues --   -7.52731  -0.95381  -0.76693  -0.51758  -0.51750
 Alpha  occ. eigenvalues --   -0.47409  -0.36763  -0.36755
 Alpha virt. eigenvalues --    0.02818   0.03489   0.06920   0.06922   0.09130
 Alpha virt. eigenvalues --    0.11099   0.11100   0.12222   0.17792   0.21931
 Alpha virt. eigenvalues --    0.21947   0.29745   0.60633   0.63744   0.63758

 Mulliken charges:
               1
     1  H    0.262110
     2  C   -0.701974
     3  Cl  -0.084609
     4  H    0.262237
     5  H    0.262237
 Sum of Mulliken charges =  -0.00000

 Dipole moment (field-independent basis, Debye):
    X=             -0.0018    Y=              2.6312    Z=              0.0000  Tot=              2.6312
 Quadrupole moment (field-independent basis, Debye-Ang):
   XX=            -20.0476   YY=            -18.1342   ZZ=            -20.0475
   XY=              0.0072   XZ=              0.0000   YZ=              0.0000

 Normal termination of Gaussian 16 at Fri Sep 22 17:10:46 2023.
