 Gaussian 16, Revision A.03,
 Gaussian 16:  ES64L-G16RevA.03 25-Dec-2016

 ------------------------------------------------------------------
 # 6-31+g(d) scrf=(solvent=water,pcm) int=ultrafine m062x scf=tight
 ------------------------------------------------------------------

 ------------------------
 tmpdir/M2_conf_105_6.gjf
 ------------------------
 Symbolic Z-matrix:
 Charge =  0 Multiplicity = 1

                         Standard orientation:
 ---------------------------------------------------------------------
 Center     Atomic      Atomic             Coordinates (Angstroms)
 Number     Number       Type             X           Y           Z
 ---------------------------------------------------------------------
      1          1           0       -1.041522   -0.000802   -0.376295
      2          6           0       -0.014767   -0.013518   -0.017238
      3          1           0        0.798465   -0.170408   -0.722466
      4          1           0        0.114277   -0.767984    0.755700
      5          1           0        0.217381    1.020303    0.446487
 ---------------------------------------------------------------------

 SCF Done:  E(RM062X) =  -40.4788509882     A.U. after    9 cycles

 The electronic state is 1-A.
 Alpha  occ. eigenvalues --  -10.53208  -0.78224  -0.47444  -0.45200  -0.43337
 Alpha virt. eigenvalues --    0.03922   0.07051   0.07209   0.07386   0.20703
 Alpha virt. eigenvalues --    0.22659   0.24455   0.30574   0.68961   0.69248
 Alpha virt. eigenvalues --    0.70534   0.95305   0.98967   1.02941   1.11172

 Mulliken charges:
               1
     1  H    0.215361
     2  C   -0.831630
     3  H    0.213275
     4  H    0.210604
     5  H    0.192390
 Sum of Mulliken charges =  -0.00000

 Dipole moment (field-independent basis, Debye):
    X=              0.0472    Y=             -0.0202    Z=              0.0334  Tot=              0.0612
 Quadrupole moment (field-independent basis, Debye-Ang):
   XX=             -8.1558   YY=             -8.6003   ZZ=             -8.8107
   XY=             -0.0432   XZ=             -0.0106   YZ=             -0.0902

 Normal termination of Gaussian 16 at Fri Sep 22 17:19:55 2023.
