 Gaussian 16, Revision A.03,
 Gaussian 16:  ES64L-G16RevA.03 25-Dec-2016

 ------------------------------------------------------------------
 # 6-31+g(d) scrf=(solvent=water,pcm) int=ultrafine m062x scf=tight
 ------------------------------------------------------------------

 ------------------------
 tmpdir/M2_conf_104_5.gjf
 ------------------------
 Symbolic Z-matrix:
 Charge =  0 Multiplicity = 1

                         Standard orientation:
 ---------------------------------------------------------------------
 Center     Atomic      Atomic             Coordinates (Angstroms)
 Number     Number       Type             X           Y           Z
 ---------------------------------------------------------------------
      1          1           0        1.041741   -0.001034   -0.375981
      2          6           0        0.014842   -0.013518   -0.017329
      3          1           0       -0.798956   -0.169271   -0.722158
      4          1           0       -0.114902   -0.768600    0.754890
      5          1           0       -0.216932    1.020015    0.447223
 ---------------------------------------------------------------------

 SCF Done:  E(RM062X) =  -40.4788185150     A.U. after    9 cycles

 The electronic state is 1-A.
 Alpha  occ. eigenvalues --  -10.53208  -0.78225  -0.47454  -0.45197  -0.43329
 Alpha virt. eigenvalues --    0.03922   0.07050   0.07210   0.07386   0.20697
 Alpha virt. eigenvalues --    0.22656   0.24463   0.30573   0.68962   0.69251
 Alpha virt. eigenvalues --    0.70534   0.95292   0.98960   1.02956   1.11178

 Mulliken charges:
               1
     1  H    0.215395
     2  C   -0.831676
     3  H    0.213297
     4  H    0.210601
     5  H    0.192384
 Sum of Mulliken charges =  -0.00000

 Dipole moment (field-independent basis, Debye):
    X=             -0.0475    Y=             -0.0202    Z=              0.0337  Tot=              0.0617
 Quadrupole moment (field-independent basis, Debye-Ang):
   XX=             -8.1536   YY=             -8.6005   ZZ=             -8.8131
   XY=              0.0431   XZ=              0.0106   YZ=             -0.0904

 Normal termination of Gaussian 16 at Fri Sep 22 17:19:48 2023.
