 Gaussian 16, Revision A.03,
 Gaussian 16:  ES64L-G16RevA.03 25-Dec-2016

 ------------------------------------------------------------------
 # 6-31+g(d) scrf=(solvent=water,pcm) int=ultrafine m062x scf=tight
 ------------------------------------------------------------------

 -----------------------
 tmpdir/M2_conf_57_9.gjf
 -----------------------
 Symbolic Z-matrix:
 Charge =  0 Multiplicity = 1

                         Standard orientation:
 ---------------------------------------------------------------------
 Center     Atomic      Atomic             Coordinates (Angstroms)
 Number     Number       Type             X           Y           Z
 ---------------------------------------------------------------------
      1          1           0       -1.060177    1.360746    0.000000
      2          6           0        0.004246    1.136438    0.000000
      3         17           0        0.004246   -0.661062    0.000000
      4          1           0        0.481264    1.529339    0.895200
      5          1           0        0.481264    1.529339   -0.895200
 ---------------------------------------------------------------------

 SCF Done:  E(RM062X) =  -500.049347396     A.U. after   10 cycles

 The electronic state is 1-A'.
 Alpha  occ. eigenvalues -- -102.66266 -10.60047  -9.80999  -7.53392  -7.52743
 Alpha  occ. eigenvalues --   -7.52737  -0.95421  -0.76686  -0.51939  -0.51689
 Alpha  occ. eigenvalues --   -0.47314  -0.36874  -0.36596
 Alpha virt. eigenvalues --    0.02783   0.03491   0.06900   0.06937   0.09125
 Alpha virt. eigenvalues --    0.11066   0.11100   0.12162   0.17782   0.21744
 Alpha virt. eigenvalues --    0.22189   0.29644   0.60558   0.63549   0.64070

 Mulliken charges:
               1
     1  H    0.258960
     2  C   -0.700155
     3  Cl  -0.085616
     4  H    0.263405
     5  H    0.263405
 Sum of Mulliken charges =  -0.00000

 Dipole moment (field-independent basis, Debye):
    X=             -0.0554    Y=              2.6272    Z=             -0.0000  Tot=              2.6278
 Quadrupole moment (field-independent basis, Debye-Ang):
   XX=            -20.0761   YY=            -18.1258   ZZ=            -20.0402
   XY=              0.2032   XZ=              0.0000   YZ=              0.0000

 Normal termination of Gaussian 16 at Fri Sep 22 17:14:26 2023.
