 Gaussian 16, Revision A.03,
 Gaussian 16:  ES64L-G16RevA.03 25-Dec-2016

 ------------------------------------------------------------------
 # 6-31+g(d) scrf=(solvent=water,pcm) int=ultrafine m062x scf=tight
 ------------------------------------------------------------------

 -----------------------
 tmpdir/M2_conf_24_1.gjf
 -----------------------
 Symbolic Z-matrix:
 Charge =  0 Multiplicity = 1

                         Standard orientation:
 ---------------------------------------------------------------------
 Center     Atomic      Atomic             Coordinates (Angstroms)
 Number     Number       Type             X           Y           Z
 ---------------------------------------------------------------------
      1          6           0       -0.014163    0.000012    0.000782
      2          1           0       -0.321094    0.000458    1.040421
      3          1           0       -0.369254   -0.894708   -0.505877
      4          1           0       -0.366602    0.895781   -0.505863
      5          1           0        1.141929   -0.001603   -0.033372
 ---------------------------------------------------------------------

 SCF Done:  E(RM062X) =  -40.4813244961     A.U. after    9 cycles

 The electronic state is 1-A.
 Alpha  occ. eigenvalues --  -10.53151  -0.78205  -0.46036  -0.45974  -0.44095
 Alpha virt. eigenvalues --    0.03930   0.07148   0.07156   0.07351   0.21202
 Alpha virt. eigenvalues --    0.23334   0.23416   0.30739   0.68917   0.69002
 Alpha virt. eigenvalues --    0.70528   0.96535   1.00497   1.00663   1.10803

 Mulliken charges:
               1
     1  C   -0.828360
     2  H    0.212202
     3  H    0.211372
     4  H    0.211372
     5  H    0.193415
 Sum of Mulliken charges =  -0.00000

 Dipole moment (field-independent basis, Debye):
    X=             -0.0271    Y=              0.0001    Z=              0.0031  Tot=              0.0273
 Quadrupole moment (field-independent basis, Debye-Ang):
   XX=             -8.5900   YY=             -8.4705   ZZ=             -8.4728
   XY=              0.0004   XZ=              0.0040   YZ=             -0.0000

 Normal termination of Gaussian 16 at Fri Sep 22 17:10:45 2023.
