 Gaussian 16, Revision A.03,
 Gaussian 16:  ES64L-G16RevA.03 25-Dec-2016

 ------------------------------------------------------------------
 # 6-31+g(d) scrf=(solvent=water,pcm) int=ultrafine m062x scf=tight
 ------------------------------------------------------------------

 -----------------------
 tmpdir/M2_conf_44_8.gjf
 -----------------------
 Symbolic Z-matrix:
 Charge =  0 Multiplicity = 1

                         Standard orientation:
 ---------------------------------------------------------------------
 Center     Atomic      Atomic             Coordinates (Angstroms)
 Number     Number       Type             X           Y           Z
 ---------------------------------------------------------------------
      1          1           0        0.593469    0.836276   -0.389197
      2          6           0        0.015477   -0.002022   -0.006456
      3          1           0       -0.111163   -0.804617   -0.729714
      4          1           0        0.467746   -0.401101    0.898803
      5          1           0       -1.042914    0.381572    0.258845
 ---------------------------------------------------------------------

 SCF Done:  E(RM062X) =  -40.4810822623     A.U. after    9 cycles

 The electronic state is 1-A.
 Alpha  occ. eigenvalues --  -10.53194  -0.78176  -0.46423  -0.45683  -0.43941
 Alpha virt. eigenvalues --    0.03927   0.07124   0.07173   0.07360   0.21109
 Alpha virt. eigenvalues --    0.23102   0.23655   0.30675   0.68971   0.69034
 Alpha virt. eigenvalues --    0.70527   0.96286   0.99953   1.01260   1.10785

 Mulliken charges:
               1
     1  H    0.212445
     2  C   -0.828524
     3  H    0.211773
     4  H    0.211165
     5  H    0.193141
 Sum of Mulliken charges =  -0.00000

 Dipole moment (field-independent basis, Debye):
    X=              0.0126    Y=             -0.0210    Z=              0.0069  Tot=              0.0254
 Quadrupole moment (field-independent basis, Debye-Ang):
   XX=             -8.5678   YY=             -8.4134   ZZ=             -8.5647
   XY=              0.0825   XZ=              0.0506   YZ=             -0.0207

 Normal termination of Gaussian 16 at Fri Sep 22 17:12:58 2023.
