 Gaussian 16, Revision A.03,
 Gaussian 16:  ES64L-G16RevA.03 25-Dec-2016

 ------------------------------------------------------------------
 # 6-31+g(d) scrf=(solvent=water,pcm) int=ultrafine m062x scf=tight
 ------------------------------------------------------------------

 -----------------------
 tmpdir/M2_conf_34_9.gjf
 -----------------------
 Symbolic Z-matrix:
 Charge =  0 Multiplicity = 1

                         Standard orientation:
 ---------------------------------------------------------------------
 Center     Atomic      Atomic             Coordinates (Angstroms)
 Number     Number       Type             X           Y           Z
 ---------------------------------------------------------------------
      1          1           0       -1.039200    1.455348    0.000000
      2          6           0        0.000734    1.136216    0.000000
      3         17           0        0.000734   -0.661288   -0.000000
      4          1           0        0.511157    1.484622    0.895200
      5          1           0        0.511157    1.484622   -0.895200
 ---------------------------------------------------------------------

 SCF Done:  E(RM062X) =  -500.050849018     A.U. after   10 cycles

 The electronic state is 1-A'.
 Alpha  occ. eigenvalues -- -102.66258 -10.60051  -9.80989  -7.53382  -7.52732
 Alpha  occ. eigenvalues --   -7.52731  -0.95382  -0.76693  -0.51772  -0.51740
 Alpha  occ. eigenvalues --   -0.47406  -0.36779  -0.36739
 Alpha virt. eigenvalues --    0.02817   0.03489   0.06918   0.06925   0.09130
 Alpha virt. eigenvalues --    0.11098   0.11100   0.12220   0.17792   0.21898
 Alpha virt. eigenvalues --    0.21981   0.29742   0.60630   0.63714   0.63790

 Mulliken charges:
               1
     1  H    0.261729
     2  C   -0.701921
     3  Cl  -0.084640
     4  H    0.262416
     5  H    0.262416
 Sum of Mulliken charges =  -0.00000

 Dipole moment (field-independent basis, Debye):
    X=             -0.0093    Y=              2.6311    Z=             -0.0000  Tot=              2.6311
 Quadrupole moment (field-independent basis, Debye-Ang):
   XX=            -20.0492   YY=            -18.1338   ZZ=            -20.0465
   XY=              0.0355   XZ=              0.0000   YZ=             -0.0000

 Normal termination of Gaussian 16 at Fri Sep 22 17:11:52 2023.
