 Gaussian 16, Revision A.03,
 Gaussian 16:  ES64L-G16RevA.03 25-Dec-2016

 ------------------------------------------------------------------
 # 6-31+g(d) scrf=(solvent=water,pcm) int=ultrafine m062x scf=tight
 ------------------------------------------------------------------

 -----------------------
 tmpdir/M2_conf_21_1.gjf
 -----------------------
 Symbolic Z-matrix:
 Charge =  0 Multiplicity = 1

                         Standard orientation:
 ---------------------------------------------------------------------
 Center     Atomic      Atomic             Coordinates (Angstroms)
 Number     Number       Type             X           Y           Z
 ---------------------------------------------------------------------
      1          6           0       -0.014159    0.000012    0.000742
      2          1           0       -0.322650    0.000484    1.040128
      3          1           0       -0.368515   -0.894721   -0.506408
      4          1           0       -0.365865    0.895769   -0.506434
      5          1           0        1.141982   -0.001603   -0.031738
 ---------------------------------------------------------------------

 SCF Done:  E(RM062X) =  -40.4813262767     A.U. after    9 cycles

 The electronic state is 1-A.
 Alpha  occ. eigenvalues --  -10.53153  -0.78203  -0.46033  -0.45974  -0.44094
 Alpha virt. eigenvalues --    0.03930   0.07148   0.07155   0.07351   0.21202
 Alpha virt. eigenvalues --    0.23334   0.23412   0.30737   0.68921   0.69001
 Alpha virt. eigenvalues --    0.70528   0.96534   1.00497   1.00654   1.10799

 Mulliken charges:
               1
     1  C   -0.828346
     2  H    0.212165
     3  H    0.211380
     4  H    0.211379
     5  H    0.193422
 Sum of Mulliken charges =   0.00000

 Dipole moment (field-independent basis, Debye):
    X=             -0.0271    Y=              0.0001    Z=              0.0030  Tot=              0.0272
 Quadrupole moment (field-independent basis, Debye-Ang):
   XX=             -8.5902   YY=             -8.4707   ZZ=             -8.4729
   XY=              0.0004   XZ=              0.0038   YZ=             -0.0000

 Normal termination of Gaussian 16 at Fri Sep 22 17:10:25 2023.
