 Gaussian 16, Revision A.03,
 Gaussian 16:  ES64L-G16RevA.03 25-Dec-2016

 ------------------------------------------------------------------
 # 6-31+g(d) scrf=(solvent=water,pcm) int=ultrafine m062x scf=tight
 ------------------------------------------------------------------

 -----------------------
 tmpdir/M2_conf_11_1.gjf
 -----------------------
 Symbolic Z-matrix:
 Charge =  0 Multiplicity = 1

                         Standard orientation:
 ---------------------------------------------------------------------
 Center     Atomic      Atomic             Coordinates (Angstroms)
 Number     Number       Type             X           Y           Z
 ---------------------------------------------------------------------
      1          6           0       -0.014144    0.000012    0.000622
      2          1           0       -0.327399    0.000579    1.039209
      3          1           0       -0.366255   -0.894768   -0.508006
      4          1           0       -0.363608    0.895721   -0.508186
      5          1           0        1.142129   -0.001603   -0.026749
 ---------------------------------------------------------------------

 SCF Done:  E(RM062X) =  -40.4813313009     A.U. after    9 cycles

 The electronic state is 1-A.
 Alpha  occ. eigenvalues --  -10.53159  -0.78198  -0.46024  -0.45975  -0.44094
 Alpha virt. eigenvalues --    0.03930   0.07149   0.07155   0.07351   0.21201
 Alpha virt. eigenvalues --    0.23334   0.23399   0.30731   0.68933   0.69000
 Alpha virt. eigenvalues --    0.70528   0.96532   1.00497   1.00627   1.10789

 Mulliken charges:
               1
     1  C   -0.828305
     2  H    0.212056
     3  H    0.211402
     4  H    0.211402
     5  H    0.193444
 Sum of Mulliken charges =  -0.00000

 Dipole moment (field-independent basis, Debye):
    X=             -0.0270    Y=              0.0001    Z=              0.0025  Tot=              0.0271
 Quadrupole moment (field-independent basis, Debye-Ang):
   XX=             -8.5908   YY=             -8.4713   ZZ=             -8.4731
   XY=              0.0004   XZ=              0.0032   YZ=             -0.0000

 Normal termination of Gaussian 16 at Fri Sep 22 17:09:18 2023.
