 Gaussian 16, Revision A.03,
 Gaussian 16:  ES64L-G16RevA.03 25-Dec-2016

 ------------------------------------------------------------------
 # 6-31+g(d) scrf=(solvent=water,pcm) int=ultrafine m062x scf=tight
 ------------------------------------------------------------------

 -----------------------
 tmpdir/M2_conf_46_4.gjf
 -----------------------
 Symbolic Z-matrix:
 Charge =  0 Multiplicity = 1

                         Standard orientation:
 ---------------------------------------------------------------------
 Center     Atomic      Atomic             Coordinates (Angstroms)
 Number     Number       Type             X           Y           Z
 ---------------------------------------------------------------------
      1          6           0       -0.000000   -1.216372    0.000000
      2         17           0       -0.000000    0.703728    0.000000
      3          1           0       -1.033730   -1.555052    0.000000
      4          1           0        0.516870   -1.555052    0.895240
      5          1           0        0.516870   -1.555052   -0.895240
 ---------------------------------------------------------------------

 SCF Done:  E(RM062X) =  -500.045976608     A.U. after   10 cycles

 The electronic state is 1-A'.
 Alpha  occ. eigenvalues -- -102.66414 -10.61227  -9.80981  -7.53369  -7.52727
 Alpha  occ. eigenvalues --   -7.52727  -0.93059  -0.77773  -0.51292  -0.51292
 Alpha  occ. eigenvalues --   -0.45889  -0.37160  -0.37160
 Alpha virt. eigenvalues --    0.00870   0.03574   0.07002   0.07002   0.08870
 Alpha virt. eigenvalues --    0.10027   0.11028   0.11028   0.17435   0.21957
 Alpha virt. eigenvalues --    0.21957   0.29847   0.61094   0.62735   0.62735

 Mulliken charges:
               1
     1  C   -0.671384
     2  Cl  -0.133275
     3  H    0.268231
     4  H    0.268214
     5  H    0.268214
 Sum of Mulliken charges =  -0.00000

 Dipole moment (field-independent basis, Debye):
    X=             -0.0000    Y=             -3.0642    Z=              0.0000  Tot=              3.0642
 Quadrupole moment (field-independent basis, Debye-Ang):
   XX=            -20.1886   YY=            -17.4184   ZZ=            -20.1887
   XY=              0.0002   XZ=              0.0000   YZ=             -0.0000

 Normal termination of Gaussian 16 at Fri Sep 22 17:13:12 2023.
