 Gaussian 16, Revision A.03,
 Gaussian 16:  ES64L-G16RevA.03 25-Dec-2016

 ------------------------------------------------------------------
 # 6-31+g(d) scrf=(solvent=water,pcm) int=ultrafine m062x scf=tight
 ------------------------------------------------------------------

 -----------------------
 tmpdir/M2_conf_82_5.gjf
 -----------------------
 Symbolic Z-matrix:
 Charge =  0 Multiplicity = 1

                         Standard orientation:
 ---------------------------------------------------------------------
 Center     Atomic      Atomic             Coordinates (Angstroms)
 Number     Number       Type             X           Y           Z
 ---------------------------------------------------------------------
      1          1           0        1.041147   -0.000416   -0.376842
      2          6           0        0.014643   -0.013518   -0.017085
      3          1           0       -0.797662   -0.172337   -0.722957
      4          1           0       -0.113208   -0.766933    0.757075
      5          1           0       -0.218133    1.020792    0.445234
 ---------------------------------------------------------------------

 SCF Done:  E(RM062X) =  -40.4789047812     A.U. after    9 cycles

 The electronic state is 1-A.
 Alpha  occ. eigenvalues --  -10.53208  -0.78223  -0.47428  -0.45205  -0.43349
 Alpha virt. eigenvalues --    0.03922   0.07052   0.07209   0.07385   0.20712
 Alpha virt. eigenvalues --    0.22665   0.24442   0.30576   0.68961   0.69243
 Alpha virt. eigenvalues --    0.70533   0.95326   0.98979   1.02917   1.11162

 Mulliken charges:
               1
     1  H    0.215305
     2  C   -0.831553
     3  H    0.213238
     4  H    0.210611
     5  H    0.192400
 Sum of Mulliken charges =   0.00000

 Dipole moment (field-independent basis, Debye):
    X=             -0.0466    Y=             -0.0202    Z=              0.0330  Tot=              0.0606
 Quadrupole moment (field-independent basis, Debye-Ang):
   XX=             -8.1594   YY=             -8.6002   ZZ=             -8.8068
   XY=              0.0434   XZ=              0.0107   YZ=             -0.0900

 Normal termination of Gaussian 16 at Fri Sep 22 17:17:13 2023.
