 Gaussian 16, Revision A.03,
 Gaussian 16:  ES64L-G16RevA.03 25-Dec-2016

 ------------------------------------------------------------------
 # 6-31+g(d) scrf=(solvent=water,pcm) int=ultrafine m062x scf=tight
 ------------------------------------------------------------------

 ------------------------
 tmpdir/M2_conf_106_4.gjf
 ------------------------
 Symbolic Z-matrix:
 Charge =  0 Multiplicity = 1

                         Standard orientation:
 ---------------------------------------------------------------------
 Center     Atomic      Atomic             Coordinates (Angstroms)
 Number     Number       Type             X           Y           Z
 ---------------------------------------------------------------------
      1          6           0       -0.000000   -1.505306    0.000000
      2         17           0       -0.000000    0.856694    0.000000
      3          1           0       -1.033730   -1.843986    0.000000
      4          1           0        0.516870   -1.843986    0.895240
      5          1           0        0.516870   -1.843986   -0.895240
 ---------------------------------------------------------------------

 SCF Done:  E(RM062X) =  -499.994605005     A.U. after   11 cycles

 The electronic state is 1-A'.
 Alpha  occ. eigenvalues -- -102.66070 -10.65081  -9.80347  -7.52713  -7.52106
 Alpha  occ. eigenvalues --   -7.52106  -0.88302  -0.80953  -0.51882  -0.51882
 Alpha  occ. eigenvalues --   -0.40874  -0.37042  -0.37042
 Alpha virt. eigenvalues --   -0.08347   0.03681   0.06780   0.06963   0.06964
 Alpha virt. eigenvalues --    0.10233   0.10847   0.10847   0.16314   0.21513
 Alpha virt. eigenvalues --    0.21514   0.29856   0.60952   0.60953   0.61913

 Mulliken charges:
               1
     1  C   -0.533090
     2  Cl  -0.316917
     3  H    0.283346
     4  H    0.283330
     5  H    0.283330
 Sum of Mulliken charges =   0.00000

 Dipole moment (field-independent basis, Debye):
    X=              0.0000    Y=             -4.9870    Z=              0.0000  Tot=              4.9870
 Quadrupole moment (field-independent basis, Debye-Ang):
   XX=            -20.5330   YY=            -14.5064   ZZ=            -20.5329
   XY=              0.0002   XZ=              0.0000   YZ=             -0.0000

 Normal termination of Gaussian 16 at Fri Sep 22 17:20:04 2023.
