 Gaussian 16, Revision A.03,
 Gaussian 16:  ES64L-G16RevA.03 25-Dec-2016

 ------------------------------------------------------------------
 # 6-31+g(d) scrf=(solvent=water,pcm) int=ultrafine m062x scf=tight
 ------------------------------------------------------------------

 ------------------------
 tmpdir/M2_conf_110_4.gjf
 ------------------------
 Symbolic Z-matrix:
 Charge =  0 Multiplicity = 1

                         Standard orientation:
 ---------------------------------------------------------------------
 Center     Atomic      Atomic             Coordinates (Angstroms)
 Number     Number       Type             X           Y           Z
 ---------------------------------------------------------------------
      1          6           0       -0.000000   -1.523745    0.000000
      2         17           0       -0.000000    0.866455    0.000000
      3          1           0       -1.033730   -1.862425    0.000000
      4          1           0        0.516870   -1.862425    0.895240
      5          1           0        0.516870   -1.862425   -0.895240
 ---------------------------------------------------------------------

 SCF Done:  E(RM062X) =  -499.991004835     A.U. after   11 cycles

 The electronic state is 1-A'.
 Alpha  occ. eigenvalues -- -102.66009 -10.65300  -9.80277  -7.52642  -7.52038
 Alpha  occ. eigenvalues --   -7.52038  -0.88115  -0.81124  -0.51980  -0.51980
 Alpha  occ. eigenvalues --   -0.40603  -0.36989  -0.36989
 Alpha virt. eigenvalues --   -0.08833   0.03679   0.06737   0.06950   0.06950
 Alpha virt. eigenvalues --    0.10274   0.10839   0.10839   0.16251   0.21469
 Alpha virt. eigenvalues --    0.21470   0.29835   0.60922   0.60923   0.62023

 Mulliken charges:
               1
     1  C   -0.524524
     2  Cl  -0.327914
     3  H    0.284156
     4  H    0.284141
     5  H    0.284141
 Sum of Mulliken charges =   0.00000

 Dipole moment (field-independent basis, Debye):
    X=              0.0000    Y=             -5.1266    Z=              0.0000  Tot=              5.1266
 Quadrupole moment (field-independent basis, Debye-Ang):
   XX=            -20.5482   YY=            -14.3042   ZZ=            -20.5481
   XY=              0.0002   XZ=              0.0000   YZ=             -0.0000

 Normal termination of Gaussian 16 at Fri Sep 22 17:20:32 2023.
