 Gaussian 16, Revision A.03,
 Gaussian 16:  ES64L-G16RevA.03 25-Dec-2016

 ------------------------------------------------------------------
 # 6-31+g(d) scrf=(solvent=water,pcm) int=ultrafine m062x scf=tight
 ------------------------------------------------------------------

 -----------------------
 tmpdir/M2_conf_76_1.gjf
 -----------------------
 Symbolic Z-matrix:
 Charge =  0 Multiplicity = 1

                         Standard orientation:
 ---------------------------------------------------------------------
 Center     Atomic      Atomic             Coordinates (Angstroms)
 Number     Number       Type             X           Y           Z
 ---------------------------------------------------------------------
      1          6           0       -0.014283    0.000012    0.002060
      2          1           0       -0.274550    0.000166    1.047242
      3          1           0       -0.390854   -0.894562   -0.489111
      4          1           0       -0.388167    0.895927   -0.488706
      5          1           0        1.139271   -0.001603   -0.081783
 ---------------------------------------------------------------------

 SCF Done:  E(RM062X) =  -40.4812299671     A.U. after    9 cycles

 The electronic state is 1-A.
 Alpha  occ. eigenvalues --  -10.53077  -0.78267  -0.46143  -0.45966  -0.44098
 Alpha virt. eigenvalues --    0.03934   0.07138   0.07159   0.07353   0.21215
 Alpha virt. eigenvalues --    0.23334   0.23564   0.30813   0.68775   0.69019
 Alpha virt. eigenvalues --    0.70529   0.96555   1.00501   1.00969   1.10920

 Mulliken charges:
               1
     1  C   -0.828816
     2  H    0.213447
     3  H    0.211107
     4  H    0.211107
     5  H    0.193156
 Sum of Mulliken charges =   0.00000

 Dipole moment (field-independent basis, Debye):
    X=             -0.0283    Y=              0.0001    Z=              0.0086  Tot=              0.0296
 Quadrupole moment (field-independent basis, Debye-Ang):
   XX=             -8.5829   YY=             -8.4639   ZZ=             -8.4707
   XY=              0.0004   XZ=              0.0097   YZ=             -0.0000

 Normal termination of Gaussian 16 at Fri Sep 22 17:16:30 2023.
