 Gaussian 16, Revision A.03,
 Gaussian 16:  ES64L-G16RevA.03 25-Dec-2016

 ------------------------------------------------------------------
 # 6-31+g(d) scrf=(solvent=water,pcm) int=ultrafine m062x scf=tight
 ------------------------------------------------------------------

 -----------------------
 tmpdir/M2_conf_87_4.gjf
 -----------------------
 Symbolic Z-matrix:
 Charge =  0 Multiplicity = 1

                         Standard orientation:
 ---------------------------------------------------------------------
 Center     Atomic      Atomic             Coordinates (Angstroms)
 Number     Number       Type             X           Y           Z
 ---------------------------------------------------------------------
      1          6           0       -0.000000   -1.412329    0.000000
      2         17           0       -0.000000    0.807471    0.000000
      3          1           0       -1.033730   -1.751009    0.000000
      4          1           0        0.516870   -1.751009    0.895240
      5          1           0        0.516870   -1.751009   -0.895240
 ---------------------------------------------------------------------

 SCF Done:  E(RM062X) =  -500.012955824     A.U. after   10 cycles

 The electronic state is 1-A'.
 Alpha  occ. eigenvalues -- -102.66314 -10.63925  -9.80648  -7.53023  -7.52401
 Alpha  occ. eigenvalues --   -7.52400  -0.89401  -0.80039  -0.51458  -0.51458
 Alpha  occ. eigenvalues --   -0.42344  -0.37252  -0.37251
 Alpha virt. eigenvalues --   -0.05634   0.03680   0.07016   0.07017   0.07088
 Alpha virt. eigenvalues --    0.10024   0.10894   0.10894   0.16647   0.21715
 Alpha virt. eigenvalues --    0.21715   0.29925   0.61235   0.61236   0.61419

 Mulliken charges:
               1
     1  C   -0.578262
     2  Cl  -0.259280
     3  H    0.279190
     4  H    0.279176
     5  H    0.279176
 Sum of Mulliken charges =   0.00000

 Dipole moment (field-independent basis, Debye):
    X=              0.0001    Y=             -4.3130    Z=              0.0000  Tot=              4.3130
 Quadrupole moment (field-independent basis, Debye-Ang):
   XX=            -20.4463   YY=            -15.4959   ZZ=            -20.4462
   XY=              0.0003   XZ=              0.0000   YZ=             -0.0000

 Normal termination of Gaussian 16 at Fri Sep 22 17:17:50 2023.
