 Gaussian 16, Revision A.03,
 Gaussian 16:  ES64L-G16RevA.03 25-Dec-2016

 ------------------------------------------------------------------
 # 6-31+g(d) scrf=(solvent=water,pcm) int=ultrafine m062x scf=tight
 ------------------------------------------------------------------

 ------------------------
 tmpdir/M2_conf_123_4.gjf
 ------------------------
 Symbolic Z-matrix:
 Charge =  0 Multiplicity = 1

                         Standard orientation:
 ---------------------------------------------------------------------
 Center     Atomic      Atomic             Coordinates (Angstroms)
 Number     Number       Type             X           Y           Z
 ---------------------------------------------------------------------
      1          6           0       -0.000000   -1.583048    0.000000
      2         17           0       -0.000000    0.897852    0.000000
      3          1           0       -1.033730   -1.921728    0.000000
      4          1           0        0.516870   -1.921728    0.895240
      5          1           0        0.516870   -1.921728   -0.895240
 ---------------------------------------------------------------------

 SCF Done:  E(RM062X) =  -499.979670206     A.U. after   11 cycles

 The electronic state is 1-A'.
 Alpha  occ. eigenvalues -- -102.65783 -10.65986  -9.80032  -7.52389  -7.51798
 Alpha  occ. eigenvalues --   -7.51798  -0.87565  -0.81652  -0.52319  -0.52319
 Alpha  occ. eigenvalues --   -0.39773  -0.36802  -0.36802
 Alpha virt. eigenvalues --   -0.10278   0.03664   0.06623   0.06901   0.06901
 Alpha virt. eigenvalues --    0.10404   0.10815   0.10815   0.16059   0.21318
 Alpha virt. eigenvalues --    0.21319   0.29749   0.60879   0.60881   0.62356

 Mulliken charges:
               1
     1  C   -0.498002
     2  Cl  -0.362307
     3  H    0.286781
     4  H    0.286764
     5  H    0.286764
 Sum of Mulliken charges =  -0.00000

 Dipole moment (field-independent basis, Debye):
    X=             -0.0000    Y=             -5.5895    Z=              0.0000  Tot=              5.5895
 Quadrupole moment (field-independent basis, Debye-Ang):
   XX=            -20.5933   YY=            -13.6408   ZZ=            -20.5933
   XY=              0.0002   XZ=              0.0000   YZ=             -0.0000

 Normal termination of Gaussian 16 at Fri Sep 22 17:22:04 2023.
