 Gaussian 16, Revision A.03,
 Gaussian 16:  ES64L-G16RevA.03 25-Dec-2016

 ------------------------------------------------------------------
 # 6-31+g(d) scrf=(solvent=water,pcm) int=ultrafine m062x scf=tight
 ------------------------------------------------------------------

 -----------------------
 tmpdir/M2_conf_64_7.gjf
 -----------------------
 Symbolic Z-matrix:
 Charge =  0 Multiplicity = 1

                         Standard orientation:
 ---------------------------------------------------------------------
 Center     Atomic      Atomic             Coordinates (Angstroms)
 Number     Number       Type             X           Y           Z
 ---------------------------------------------------------------------
      1          1           0        1.065847    1.324753    0.000000
      2          6           0       -0.005558    1.136605    0.000000
      3         17           0       -0.005558   -0.660896   -0.000000
      4          1           0       -0.469004    1.545428    0.895200
      5          1           0       -0.469004    1.545428   -0.895200
 ---------------------------------------------------------------------

 SCF Done:  E(RM062X) =  -500.048226068     A.U. after   10 cycles

 The electronic state is 1-A'.
 Alpha  occ. eigenvalues -- -102.66272 -10.60043  -9.81006  -7.53399  -7.52750
 Alpha  occ. eigenvalues --   -7.52743  -0.95449  -0.76680  -0.52035  -0.51673
 Alpha  occ. eigenvalues --   -0.47248  -0.36910  -0.36522
 Alpha virt. eigenvalues --    0.02758   0.03494   0.06892   0.06941   0.09122
 Alpha virt. eigenvalues --    0.11042   0.11099   0.12125   0.17775   0.21703
 Alpha virt. eigenvalues --    0.22268   0.29575   0.60510   0.63490   0.64206

 Mulliken charges:
               1
     1  H    0.257715
     2  C   -0.698895
     3  Cl  -0.086305
     4  H    0.263743
     5  H    0.263743
 Sum of Mulliken charges =  -0.00000

 Dipole moment (field-independent basis, Debye):
    X=              0.0731    Y=              2.6241    Z=             -0.0000  Tot=              2.6251
 Quadrupole moment (field-independent basis, Debye-Ang):
   XX=            -20.0940   YY=            -18.1203   ZZ=            -20.0375
   XY=             -0.2645   XZ=              0.0000   YZ=             -0.0000

 Normal termination of Gaussian 16 at Fri Sep 22 17:15:12 2023.
