 Gaussian 16, Revision A.03,
 Gaussian 16:  ES64L-G16RevA.03 25-Dec-2016

 ------------------------------------------------------------------
 # 6-31+g(d) scrf=(solvent=water,pcm) int=ultrafine m062x scf=tight
 ------------------------------------------------------------------

 ------------------------
 tmpdir/M2_conf_122_4.gjf
 ------------------------
 Symbolic Z-matrix:
 Charge =  0 Multiplicity = 1

                         Standard orientation:
 ---------------------------------------------------------------------
 Center     Atomic      Atomic             Coordinates (Angstroms)
 Number     Number       Type             X           Y           Z
 ---------------------------------------------------------------------
      1          6           0       -0.000000   -1.578537    0.000000
      2         17           0       -0.000000    0.895463    0.000000
      3          1           0       -1.033730   -1.917217    0.000000
      4          1           0        0.516870   -1.917217    0.895240
      5          1           0        0.516870   -1.917217   -0.895240
 ---------------------------------------------------------------------

 SCF Done:  E(RM062X) =  -499.980517597     A.U. after   11 cycles

 The electronic state is 1-A'.
 Alpha  occ. eigenvalues -- -102.65802 -10.65935  -9.80052  -7.52410  -7.51818
 Alpha  occ. eigenvalues --   -7.51818  -0.87605  -0.81613  -0.52292  -0.52292
 Alpha  occ. eigenvalues --   -0.39835  -0.36817  -0.36817
 Alpha virt. eigenvalues --   -0.10174   0.03665   0.06631   0.06905   0.06905
 Alpha virt. eigenvalues --    0.10394   0.10816   0.10817   0.16073   0.21330
 Alpha virt. eigenvalues --    0.21331   0.29757   0.60879   0.60881   0.62333

 Mulliken charges:
               1
     1  C   -0.499967
     2  Cl  -0.359736
     3  H    0.286579
     4  H    0.286562
     5  H    0.286562
 Sum of Mulliken charges =   0.00000

 Dipole moment (field-independent basis, Debye):
    X=             -0.0000    Y=             -5.5534    Z=              0.0000  Tot=              5.5534
 Quadrupole moment (field-independent basis, Debye-Ang):
   XX=            -20.5901   YY=            -13.6920   ZZ=            -20.5900
   XY=              0.0002   XZ=              0.0000   YZ=             -0.0000

 Normal termination of Gaussian 16 at Fri Sep 22 17:21:57 2023.
