 Gaussian 16, Revision A.03,
 Gaussian 16:  ES64L-G16RevA.03 25-Dec-2016

 ------------------------------------------------------------------
 # 6-31+g(d) scrf=(solvent=water,pcm) int=ultrafine m062x scf=tight
 ------------------------------------------------------------------

 -----------------------
 tmpdir/M2_conf_97_9.gjf
 -----------------------
 Symbolic Z-matrix:
 Charge =  0 Multiplicity = 1

                         Standard orientation:
 ---------------------------------------------------------------------
 Center     Atomic      Atomic             Coordinates (Angstroms)
 Number     Number       Type             X           Y           Z
 ---------------------------------------------------------------------
      1          1           0       -1.074965    1.122192    0.000000
      2          6           0        0.012715    1.138332    0.000000
      3         17           0        0.012715   -0.659166    0.000000
      4          1           0        0.391259    1.626822    0.895200
      5          1           0        0.391259    1.626822   -0.895200
 ---------------------------------------------------------------------

 SCF Done:  E(RM062X) =  -500.036090921     A.U. after   11 cycles

 The electronic state is 1-A'.
 Alpha  occ. eigenvalues -- -102.66348 -10.59978  -9.81100  -7.53498  -7.52841
 Alpha  occ. eigenvalues --   -7.52824  -0.95788  -0.76609  -0.52830  -0.51611
 Alpha  occ. eigenvalues --   -0.46715  -0.37132  -0.35885
 Alpha virt. eigenvalues --    0.02508   0.03517   0.06841   0.06960   0.09092
 Alpha virt. eigenvalues --    0.10761   0.11083   0.11889   0.17694   0.21560
 Alpha virt. eigenvalues --    0.22700   0.28974   0.60134   0.63191   0.64986

 Mulliken charges:
               1
     1  H    0.248983
     2  C   -0.688332
     3  Cl  -0.091509
     4  H    0.265429
     5  H    0.265429
 Sum of Mulliken charges =   0.00000

 Dipole moment (field-independent basis, Debye):
    X=             -0.1764    Y=              2.5814    Z=              0.0000  Tot=              2.5874
 Quadrupole moment (field-independent basis, Debye-Ang):
   XX=            -20.2681   YY=            -18.0700   ZZ=            -20.0183
   XY=              0.5701   XZ=              0.0000   YZ=              0.0000

 Normal termination of Gaussian 16 at Fri Sep 22 17:19:00 2023.
