 Gaussian 16, Revision A.03,
 Gaussian 16:  ES64L-G16RevA.03 25-Dec-2016

 ------------------------------------------------------------------
 # 6-31+g(d) scrf=(solvent=water,pcm) int=ultrafine m062x scf=tight
 ------------------------------------------------------------------

 ------------------------
 tmpdir/M2_conf_107_4.gjf
 ------------------------
 Symbolic Z-matrix:
 Charge =  0 Multiplicity = 1

                         Standard orientation:
 ---------------------------------------------------------------------
 Center     Atomic      Atomic             Coordinates (Angstroms)
 Number     Number       Type             X           Y           Z
 ---------------------------------------------------------------------
      1          6           0       -0.000000   -1.509883    0.000000
      2         17           0       -0.000000    0.859117    0.000000
      3          1           0       -1.033730   -1.848563    0.000000
      4          1           0        0.516870   -1.848563    0.895240
      5          1           0        0.516870   -1.848563   -0.895240
 ---------------------------------------------------------------------

 SCF Done:  E(RM062X) =  -499.993708595     A.U. after   11 cycles

 The electronic state is 1-A'.
 Alpha  occ. eigenvalues -- -102.66055 -10.65135  -9.80330  -7.52696  -7.52090
 Alpha  occ. eigenvalues --   -7.52089  -0.88254  -0.80996  -0.51906  -0.51906
 Alpha  occ. eigenvalues --   -0.40806  -0.37029  -0.37029
 Alpha virt. eigenvalues --   -0.08469   0.03681   0.06769   0.06960   0.06960
 Alpha virt. eigenvalues --    0.10243   0.10845   0.10845   0.16298   0.21503
 Alpha virt. eigenvalues --    0.21503   0.29851   0.60943   0.60945   0.61940

 Mulliken charges:
               1
     1  C   -0.530950
     2  Cl  -0.319659
     3  H    0.283547
     4  H    0.283531
     5  H    0.283531
 Sum of Mulliken charges =   0.00000

 Dipole moment (field-independent basis, Debye):
    X=              0.0000    Y=             -5.0214    Z=             -0.0000  Tot=              5.0214
 Quadrupole moment (field-independent basis, Debye-Ang):
   XX=            -20.5368   YY=            -14.4564   ZZ=            -20.5368
   XY=              0.0002   XZ=             -0.0000   YZ=              0.0000

 Normal termination of Gaussian 16 at Fri Sep 22 17:20:11 2023.
