 Gaussian 16, Revision A.03,
 Gaussian 16:  ES64L-G16RevA.03 25-Dec-2016

 ------------------------------------------------------------------
 # 6-31+g(d) scrf=(solvent=water,pcm) int=ultrafine m062x scf=tight
 ------------------------------------------------------------------

 -----------------------
 tmpdir/M2_conf_16_1.gjf
 -----------------------
 Symbolic Z-matrix:
 Charge =  0 Multiplicity = 1

                         Standard orientation:
 ---------------------------------------------------------------------
 Center     Atomic      Atomic             Coordinates (Angstroms)
 Number     Number       Type             X           Y           Z
 ---------------------------------------------------------------------
      1          6           0       -0.014152    0.000012    0.000682
      2          1           0       -0.325010    0.000527    1.039676
      3          1           0       -0.367393   -0.894742   -0.507206
      4          1           0       -0.364745    0.895747   -0.507302
      5          1           0        1.142058   -0.001603   -0.029261
 ---------------------------------------------------------------------

 SCF Done:  E(RM062X) =  -40.4813288482     A.U. after    9 cycles

 The electronic state is 1-A.
 Alpha  occ. eigenvalues --  -10.53156  -0.78200  -0.46029  -0.45974  -0.44094
 Alpha virt. eigenvalues --    0.03930   0.07149   0.07155   0.07351   0.21201
 Alpha virt. eigenvalues --    0.23334   0.23405   0.30734   0.68927   0.69000
 Alpha virt. eigenvalues --    0.70528   0.96533   1.00497   1.00641   1.10794

 Mulliken charges:
               1
     1  C   -0.828326
     2  H    0.212111
     3  H    0.211391
     4  H    0.211391
     5  H    0.193433
 Sum of Mulliken charges =   0.00000

 Dipole moment (field-independent basis, Debye):
    X=             -0.0270    Y=              0.0001    Z=              0.0027  Tot=              0.0272
 Quadrupole moment (field-independent basis, Debye-Ang):
   XX=             -8.5905   YY=             -8.4710   ZZ=             -8.4730
   XY=              0.0004   XZ=              0.0035   YZ=             -0.0000

 Normal termination of Gaussian 16 at Fri Sep 22 17:09:52 2023.
