 Gaussian 16, Revision A.03,
 Gaussian 16:  ES64L-G16RevA.03 25-Dec-2016

 ------------------------------------------------------------------
 # 6-31+g(d) scrf=(solvent=water,pcm) int=ultrafine m062x scf=tight
 ------------------------------------------------------------------

 -----------------------
 tmpdir/M2_conf_77_4.gjf
 -----------------------
 Symbolic Z-matrix:
 Charge =  0 Multiplicity = 1

                         Standard orientation:
 ---------------------------------------------------------------------
 Center     Atomic      Atomic             Coordinates (Angstroms)
 Number     Number       Type             X           Y           Z
 ---------------------------------------------------------------------
      1          6           0       -0.000000   -1.365514   -0.000000
      2         17           0       -0.000000    0.782686    0.000000
      3          1           0       -1.033730   -1.704194   -0.000000
      4          1           0        0.516870   -1.704194    0.895240
      5          1           0        0.516870   -1.704194   -0.895240
 ---------------------------------------------------------------------

 SCF Done:  E(RM062X) =  -500.022034986     A.U. after   10 cycles

 The electronic state is 1-A'.
 Alpha  occ. eigenvalues -- -102.66393 -10.63312  -9.80767  -7.53146  -7.52518
 Alpha  occ. eigenvalues --   -7.52518  -0.90082  -0.79543  -0.51306  -0.51306
 Alpha  occ. eigenvalues --   -0.43149  -0.37312  -0.37312
 Alpha virt. eigenvalues --   -0.04113   0.03669   0.07030   0.07031   0.07333
 Alpha virt. eigenvalues --    0.09924   0.10921   0.10921   0.16825   0.21799
 Alpha virt. eigenvalues --    0.21799   0.29933   0.61250   0.61471   0.61472

 Mulliken charges:
               1
     1  C   -0.601655
     2  Cl  -0.229149
     3  H    0.276938
     4  H    0.276933
     5  H    0.276933
 Sum of Mulliken charges =  -0.00000

 Dipole moment (field-independent basis, Debye):
    X=              0.0002    Y=             -3.9923    Z=             -0.0000  Tot=              3.9923
 Quadrupole moment (field-independent basis, Debye-Ang):
   XX=            -20.3950   YY=            -15.9756   ZZ=            -20.3949
   XY=              0.0002   XZ=             -0.0000   YZ=              0.0000

 Normal termination of Gaussian 16 at Fri Sep 22 17:16:39 2023.
