 Gaussian 16, Revision A.03,
 Gaussian 16:  ES64L-G16RevA.03 25-Dec-2016

 ------------------------------------------------------------------
 # 6-31+g(d) scrf=(solvent=water,pcm) int=ultrafine m062x scf=tight
 ------------------------------------------------------------------

 -----------------------
 tmpdir/M2_conf_40_5.gjf
 -----------------------
 Symbolic Z-matrix:
 Charge =  0 Multiplicity = 1

                         Standard orientation:
 ---------------------------------------------------------------------
 Center     Atomic      Atomic             Coordinates (Angstroms)
 Number     Number       Type             X           Y           Z
 ---------------------------------------------------------------------
      1          1           0        0.429811    0.931632   -0.384531
      2          6           0        0.015278    0.000270   -0.005010
      3          1           0        0.086672   -0.814330   -0.722387
      4          1           0        0.500237   -0.287002    0.925363
      5          1           0       -1.108390    0.168083    0.211617
 ---------------------------------------------------------------------

 SCF Done:  E(RM062X) =  -40.4811860148     A.U. after    9 cycles

 The electronic state is 1-A.
 Alpha  occ. eigenvalues --  -10.53193  -0.78174  -0.46312  -0.45753  -0.43983
 Alpha virt. eigenvalues --    0.03928   0.07132   0.07169   0.07357   0.21135
 Alpha virt. eigenvalues --    0.23158   0.23574   0.30683   0.68976   0.69021
 Alpha virt. eigenvalues --    0.70527   0.96354   1.00085   1.01070   1.10769

 Mulliken charges:
               1
     1  H    0.212196
     2  C   -0.828367
     3  H    0.211687
     4  H    0.211241
     5  H    0.193243
 Sum of Mulliken charges =   0.00000

 Dipole moment (field-independent basis, Debye):
    X=              0.0185    Y=             -0.0145    Z=              0.0046  Tot=              0.0239
 Quadrupole moment (field-independent basis, Debye-Ang):
   XX=             -8.5956   YY=             -8.4096   ZZ=             -8.5394
   XY=              0.0391   XZ=              0.0443   YZ=             -0.0082

 Normal termination of Gaussian 16 at Fri Sep 22 17:12:31 2023.
