 Gaussian 16, Revision A.03,
 Gaussian 16:  ES64L-G16RevA.03 25-Dec-2016

 ------------------------------------------------------------------
 # 6-31+g(d) scrf=(solvent=water,pcm) int=ultrafine m062x scf=tight
 ------------------------------------------------------------------

 -----------------------
 tmpdir/M2_conf_70_9.gjf
 -----------------------
 Symbolic Z-matrix:
 Charge =  0 Multiplicity = 1

                         Standard orientation:
 ---------------------------------------------------------------------
 Center     Atomic      Atomic             Coordinates (Angstroms)
 Number     Number       Type             X           Y           Z
 ---------------------------------------------------------------------
      1          1           0       -1.070117    1.290262    0.000000
      2          6           0        0.006804    1.136801    0.000000
      3         17           0        0.006804   -0.660695    0.000000
      4          1           0        0.456810    1.560374    0.895200
      5          1           0        0.456810    1.560374   -0.895200
 ---------------------------------------------------------------------

 SCF Done:  E(RM062X) =  -500.046866035     A.U. after   10 cycles

 The electronic state is 1-A'.
 Alpha  occ. eigenvalues -- -102.66279 -10.60037  -9.81015  -7.53409  -7.52759
 Alpha  occ. eigenvalues --   -7.52750  -0.95484  -0.76673  -0.52141  -0.51659
 Alpha  occ. eigenvalues --   -0.47174  -0.36945  -0.36441
 Alpha virt. eigenvalues --    0.02729   0.03497   0.06885   0.06945   0.09119
 Alpha virt. eigenvalues --    0.11013   0.11097   0.12086   0.17767   0.21670
 Alpha virt. eigenvalues --    0.22343   0.29494   0.60455   0.63436   0.64345

 Mulliken charges:
               1
     1  H    0.256420
     2  C   -0.697432
     3  Cl  -0.087090
     4  H    0.264051
     5  H    0.264051
 Sum of Mulliken charges =  -0.00000

 Dipole moment (field-independent basis, Debye):
    X=             -0.0903    Y=              2.6201    Z=              0.0000  Tot=              2.6216
 Quadrupole moment (field-independent basis, Debye-Ang):
   XX=            -20.1150   YY=            -18.1138   ZZ=            -20.0348
   XY=              0.3215   XZ=              0.0000   YZ=              0.0000

 Normal termination of Gaussian 16 at Fri Sep 22 17:15:52 2023.
