 Gaussian 16, Revision A.03,
 Gaussian 16:  ES64L-G16RevA.03 25-Dec-2016

 ------------------------------------------------------------------
 # 6-31+g(d) scrf=(solvent=water,pcm) int=ultrafine m062x scf=tight
 ------------------------------------------------------------------

 -----------------------
 tmpdir/M2_conf_51_4.gjf
 -----------------------
 Symbolic Z-matrix:
 Charge =  0 Multiplicity = 1

                         Standard orientation:
 ---------------------------------------------------------------------
 Center     Atomic      Atomic             Coordinates (Angstroms)
 Number     Number       Type             X           Y           Z
 ---------------------------------------------------------------------
      1          6           0       -0.000000   -1.243702    0.000000
      2         17           0       -0.000000    0.718198    0.000000
      3          1           0       -1.033730   -1.582382    0.000000
      4          1           0        0.516870   -1.582382    0.895240
      5          1           0        0.516870   -1.582382   -0.895240
 ---------------------------------------------------------------------

 SCF Done:  E(RM062X) =  -500.042589755     A.U. after   10 cycles

 The electronic state is 1-A'.
 Alpha  occ. eigenvalues -- -102.66439 -10.61621  -9.80962  -7.53349  -7.52708
 Alpha  occ. eigenvalues --   -7.52708  -0.92400  -0.78120  -0.51223  -0.51223
 Alpha  occ. eigenvalues --   -0.45374  -0.37238  -0.37238
 Alpha virt. eigenvalues --    0.00022   0.03599   0.07017   0.07018   0.08535
 Alpha virt. eigenvalues --    0.09839   0.11006   0.11006   0.17319   0.21944
 Alpha virt. eigenvalues --    0.21944   0.29875   0.61114   0.62442   0.62442

 Mulliken charges:
               1
     1  C   -0.659629
     2  Cl  -0.150466
     3  H    0.270033
     4  H    0.270031
     5  H    0.270031
 Sum of Mulliken charges =  -0.00000

 Dipole moment (field-independent basis, Debye):
    X=              0.0001    Y=             -3.2226    Z=              0.0000  Tot=              3.2226
 Quadrupole moment (field-independent basis, Debye-Ang):
   XX=            -20.2318   YY=            -17.1646   ZZ=            -20.2318
   XY=              0.0001   XZ=              0.0000   YZ=             -0.0000

 Normal termination of Gaussian 16 at Fri Sep 22 17:13:45 2023.
