 Gaussian 16, Revision A.03,
 Gaussian 16:  ES64L-G16RevA.03 25-Dec-2016

 ------------------------------------------------------------------
 # 6-31+g(d) scrf=(solvent=water,pcm) int=ultrafine m062x scf=tight
 ------------------------------------------------------------------

 -----------------------
 tmpdir/M2_conf_38_5.gjf
 -----------------------
 Symbolic Z-matrix:
 Charge =  0 Multiplicity = 1

                         Standard orientation:
 ---------------------------------------------------------------------
 Center     Atomic      Atomic             Coordinates (Angstroms)
 Number     Number       Type             X           Y           Z
 ---------------------------------------------------------------------
      1          1           0        0.393782    0.948038   -0.381501
      2          6           0        0.015115    0.000598   -0.004305
      3          1           0        0.143199   -0.810688   -0.717549
      4          1           0        0.492100   -0.257528    0.938648
      5          1           0       -1.119769    0.116591    0.186233
 ---------------------------------------------------------------------

 SCF Done:  E(RM062X) =  -40.4812255349     A.U. after    9 cycles

 The electronic state is 1-A.
 Alpha  occ. eigenvalues --  -10.53193  -0.78173  -0.46260  -0.45786  -0.44002
 Alpha virt. eigenvalues --    0.03928   0.07135   0.07166   0.07356   0.21145
 Alpha virt. eigenvalues --    0.23185   0.23537   0.30686   0.68978   0.69016
 Alpha virt. eigenvalues --    0.70527   0.96383   1.00146   1.00982   1.10762

 Mulliken charges:
               1
     1  H    0.212087
     2  C   -0.828298
     3  H    0.211649
     4  H    0.211279
     5  H    0.193283
 Sum of Mulliken charges =   0.00000

 Dipole moment (field-independent basis, Debye):
    X=              0.0201    Y=             -0.0119    Z=              0.0037  Tot=              0.0236
 Quadrupole moment (field-independent basis, Debye-Ang):
   XX=             -8.5991   YY=             -8.4170   ZZ=             -8.5281
   XY=              0.0276   XZ=              0.0394   YZ=             -0.0053

 Normal termination of Gaussian 16 at Fri Sep 22 17:12:18 2023.
