 Gaussian 16, Revision A.03,
 Gaussian 16:  ES64L-G16RevA.03 25-Dec-2016

 ------------------------------------------------------------------
 # 6-31+g(d) scrf=(solvent=water,pcm) int=ultrafine m062x scf=tight
 ------------------------------------------------------------------

 ------------------------
 tmpdir/M2_conf_124_4.gjf
 ------------------------
 Symbolic Z-matrix:
 Charge =  0 Multiplicity = 1

                         Standard orientation:
 ---------------------------------------------------------------------
 Center     Atomic      Atomic             Coordinates (Angstroms)
 Number     Number       Type             X           Y           Z
 ---------------------------------------------------------------------
      1          6           0       -0.000000   -1.587560    0.000000
      2         17           0       -0.000000    0.900240    0.000000
      3          1           0       -1.033730   -1.926240    0.000000
      4          1           0        0.516870   -1.926240    0.895240
      5          1           0        0.516870   -1.926240   -0.895240
 ---------------------------------------------------------------------

 SCF Done:  E(RM062X) =  -499.978825573     A.U. after   11 cycles

 The electronic state is 1-A'.
 Alpha  occ. eigenvalues -- -102.65764 -10.66037  -9.80012  -7.52369  -7.51778
 Alpha  occ. eigenvalues --   -7.51778  -0.87526  -0.81691  -0.52346  -0.52346
 Alpha  occ. eigenvalues --   -0.39713  -0.36786  -0.36786
 Alpha virt. eigenvalues --   -0.10381   0.03662   0.06616   0.06897   0.06897
 Alpha virt. eigenvalues --    0.10414   0.10813   0.10813   0.16045   0.21307
 Alpha virt. eigenvalues --    0.21307   0.29742   0.60878   0.60880   0.62378

 Mulliken charges:
               1
     1  C   -0.496045
     2  Cl  -0.364872
     3  H    0.286983
     4  H    0.286967
     5  H    0.286967
 Sum of Mulliken charges =  -0.00000

 Dipole moment (field-independent basis, Debye):
    X=             -0.0000    Y=             -5.6257    Z=              0.0000  Tot=              5.6257
 Quadrupole moment (field-independent basis, Debye-Ang):
   XX=            -20.5966   YY=            -13.5895   ZZ=            -20.5965
   XY=              0.0002   XZ=              0.0000   YZ=             -0.0000

 Normal termination of Gaussian 16 at Fri Sep 22 17:22:11 2023.
