 Gaussian 16, Revision A.03,
 Gaussian 16:  ES64L-G16RevA.03 25-Dec-2016

 ------------------------------------------------------------------
 # 6-31+g(d) scrf=(solvent=water,pcm) int=ultrafine m062x scf=tight
 ------------------------------------------------------------------

 -----------------------
 tmpdir/M2_conf_50_4.gjf
 -----------------------
 Symbolic Z-matrix:
 Charge =  0 Multiplicity = 1

                         Standard orientation:
 ---------------------------------------------------------------------
 Center     Atomic      Atomic             Coordinates (Angstroms)
 Number     Number       Type             X           Y           Z
 ---------------------------------------------------------------------
      1          6           0       -0.000000   -1.239125    0.000000
      2         17           0       -0.000000    0.715775    0.000000
      3          1           0       -1.033730   -1.577805    0.000000
      4          1           0        0.516870   -1.577805    0.895240
      5          1           0        0.516870   -1.577805   -0.895240
 ---------------------------------------------------------------------

 SCF Done:  E(RM062X) =  -500.043201915     A.U. after   10 cycles

 The electronic state is 1-A'.
 Alpha  occ. eigenvalues -- -102.66436 -10.61556  -9.80966  -7.53353  -7.52712
 Alpha  occ. eigenvalues --   -7.52712  -0.92506  -0.78063  -0.51232  -0.51232
 Alpha  occ. eigenvalues --   -0.45460  -0.37227  -0.37227
 Alpha virt. eigenvalues --    0.00169   0.03595   0.07015   0.07015   0.08595
 Alpha virt. eigenvalues --    0.09856   0.11010   0.11010   0.17338   0.21947
 Alpha virt. eigenvalues --    0.21947   0.29871   0.61113   0.62489   0.62489

 Mulliken charges:
               1
     1  C   -0.661643
     2  Cl  -0.147563
     3  H    0.269738
     4  H    0.269734
     5  H    0.269734
 Sum of Mulliken charges =  -0.00000

 Dipole moment (field-independent basis, Debye):
    X=              0.0001    Y=             -3.1956    Z=             -0.0000  Tot=              3.1956
 Quadrupole moment (field-independent basis, Debye-Ang):
   XX=            -20.2247   YY=            -17.2075   ZZ=            -20.2247
   XY=              0.0001   XZ=             -0.0000   YZ=              0.0000

 Normal termination of Gaussian 16 at Fri Sep 22 17:13:39 2023.
