 Gaussian 16, Revision A.03,
 Gaussian 16:  ES64L-G16RevA.03 25-Dec-2016

 ------------------------------------------------------------------
 # 6-31+g(d) scrf=(solvent=water,pcm) int=ultrafine m062x scf=tight
 ------------------------------------------------------------------

 -----------------------
 tmpdir/M2_conf_58_7.gjf
 -----------------------
 Symbolic Z-matrix:
 Charge =  0 Multiplicity = 1

                         Standard orientation:
 ---------------------------------------------------------------------
 Center     Atomic      Atomic             Coordinates (Angstroms)
 Number     Number       Type             X           Y           Z
 ---------------------------------------------------------------------
      1          1           0        1.060912    1.356489    0.000000
      2          6           0       -0.004401    1.136453    0.000000
      3         17           0       -0.004401   -0.661043   -0.000000
      4          1           0       -0.479840    1.531265    0.895200
      5          1           0       -0.479840    1.531265   -0.895200
 ---------------------------------------------------------------------

 SCF Done:  E(RM062X) =  -500.049230624     A.U. after   10 cycles

 The electronic state is 1-A'.
 Alpha  occ. eigenvalues -- -102.66267 -10.60047  -9.81000  -7.53393  -7.52744
 Alpha  occ. eigenvalues --   -7.52738  -0.95424  -0.76686  -0.51949  -0.51687
 Alpha  occ. eigenvalues --   -0.47307  -0.36878  -0.36587
 Alpha virt. eigenvalues --    0.02781   0.03492   0.06899   0.06937   0.09125
 Alpha virt. eigenvalues --    0.11064   0.11100   0.12158   0.17782   0.21739
 Alpha virt. eigenvalues --    0.22199   0.29636   0.60553   0.63541   0.64086

 Mulliken charges:
               1
     1  H    0.258818
     2  C   -0.700023
     3  Cl  -0.085688
     4  H    0.263446
     5  H    0.263446
 Sum of Mulliken charges =   0.00000

 Dipole moment (field-independent basis, Debye):
    X=              0.0575    Y=              2.6269    Z=             -0.0000  Tot=              2.6275
 Quadrupole moment (field-independent basis, Debye-Ang):
   XX=            -20.0780   YY=            -18.1252   ZZ=            -20.0399
   XY=             -0.2105   XZ=              0.0000   YZ=             -0.0000

 Normal termination of Gaussian 16 at Fri Sep 22 17:14:32 2023.
