 Gaussian 16, Revision A.03,
 Gaussian 16:  ES64L-G16RevA.03 25-Dec-2016

 ------------------------------------------------------------------
 # 6-31+g(d) scrf=(solvent=water,pcm) int=ultrafine m062x scf=tight
 ------------------------------------------------------------------

 -----------------------
 tmpdir/M2_conf_99_6.gjf
 -----------------------
 Symbolic Z-matrix:
 Charge =  0 Multiplicity = 1

                         Standard orientation:
 ---------------------------------------------------------------------
 Center     Atomic      Atomic             Coordinates (Angstroms)
 Number     Number       Type             X           Y           Z
 ---------------------------------------------------------------------
      1          1           0       -1.042812   -0.002023   -0.374421
      2          6           0       -0.015205   -0.013519   -0.017769
      3          1           0        0.801258   -0.163999   -0.720663
      4          1           0        0.117826   -0.771494    0.751049
      5          1           0        0.214961    1.018629    0.450648
 ---------------------------------------------------------------------

 SCF Done:  E(RM062X) =  -40.4786583885     A.U. after    9 cycles

 The electronic state is 1-A.
 Alpha  occ. eigenvalues --  -10.53209  -0.78229  -0.47500  -0.45182  -0.43292
 Alpha virt. eigenvalues --    0.03921   0.07047   0.07211   0.07387   0.20670
 Alpha virt. eigenvalues --    0.22641   0.24501   0.30567   0.68962   0.69266
 Alpha virt. eigenvalues --    0.70534   0.95231   0.98927   1.03027   1.11208

 Mulliken charges:
               1
     1  H    0.215561
     2  C   -0.831905
     3  H    0.213403
     4  H    0.210584
     5  H    0.192358
 Sum of Mulliken charges =  -0.00000

 Dipole moment (field-independent basis, Debye):
    X=              0.0492    Y=             -0.0201    Z=              0.0350  Tot=              0.0636
 Quadrupole moment (field-independent basis, Debye-Ang):
   XX=             -8.1430   YY=             -8.6010   ZZ=             -8.8245
   XY=             -0.0426   XZ=             -0.0102   YZ=             -0.0911

 Normal termination of Gaussian 16 at Fri Sep 22 17:19:13 2023.
