 Gaussian 16, Revision A.03,
 Gaussian 16:  ES64L-G16RevA.03 25-Dec-2016

 ------------------------------------------------------------------
 # 6-31+g(d) scrf=(solvent=water,pcm) int=ultrafine m062x scf=tight
 ------------------------------------------------------------------

 -----------------------
 tmpdir/M2_conf_24_8.gjf
 -----------------------
 Symbolic Z-matrix:
 Charge =  0 Multiplicity = 1

                         Standard orientation:
 ---------------------------------------------------------------------
 Center     Atomic      Atomic             Coordinates (Angstroms)
 Number     Number       Type             X           Y           Z
 ---------------------------------------------------------------------
      1          1           0        0.350472    0.971796   -0.355914
      2          6           0        0.014241    0.000190   -0.000611
      3          1           0        0.328749   -0.792052   -0.676449
      4          1           0        0.377288   -0.188763    1.007257
      5          1           0       -1.141958    0.007880    0.028770
 ---------------------------------------------------------------------

 SCF Done:  E(RM062X) =  -40.4813420868     A.U. after    9 cycles

 The electronic state is 1-A.
 Alpha  occ. eigenvalues --  -10.53191  -0.78171  -0.46016  -0.45951  -0.44081
 Alpha virt. eigenvalues --    0.03928   0.07151   0.07156   0.07351   0.21189
 Alpha virt. eigenvalues --    0.23314   0.23361   0.30698   0.68991   0.68995
 Alpha virt. eigenvalues --    0.70529   0.96506   1.00448   1.00561   1.10742

 Mulliken charges:
               1
     1  H    0.211593
     2  C   -0.828096
     3  H    0.211514
     4  H    0.211476
     5  H    0.193513
 Sum of Mulliken charges =  -0.00000

 Dipole moment (field-independent basis, Debye):
    X=              0.0254    Y=             -0.0014    Z=              0.0003  Tot=              0.0255
 Quadrupole moment (field-independent basis, Debye-Ang):
   XX=             -8.5961   YY=             -8.4660   ZZ=             -8.4802
   XY=              0.0020   XZ=              0.0062   YZ=             -0.0002

 Normal termination of Gaussian 16 at Fri Sep 22 17:10:45 2023.
