 Gaussian 16, Revision A.03,
 Gaussian 16:  ES64L-G16RevA.03 25-Dec-2016

 ------------------------------------------------------------------
 # 6-31+g(d) scrf=(solvent=water,pcm) int=ultrafine m062x scf=tight
 ------------------------------------------------------------------

 -----------------------
 tmpdir/M2_conf_37_5.gjf
 -----------------------
 Symbolic Z-matrix:
 Charge =  0 Multiplicity = 1

                         Standard orientation:
 ---------------------------------------------------------------------
 Center     Atomic      Atomic             Coordinates (Angstroms)
 Number     Number       Type             X           Y           Z
 ---------------------------------------------------------------------
      1          1           0        0.381232    0.953576   -0.379687
      2          6           0        0.015032    0.000673   -0.003944
      3          1           0        0.167331   -0.808548   -0.714770
      4          1           0        0.485190   -0.245994    0.945483
      5          1           0       -1.123947    0.096931    0.172635
 ---------------------------------------------------------------------

 SCF Done:  E(RM062X) =  -40.4812433542     A.U. after    9 cycles

 The electronic state is 1-A.
 Alpha  occ. eigenvalues --  -10.53192  -0.78173  -0.46235  -0.45803  -0.44011
 Alpha virt. eigenvalues --    0.03928   0.07137   0.07165   0.07356   0.21150
 Alpha virt. eigenvalues --    0.23198   0.23518   0.30687   0.68979   0.69013
 Alpha virt. eigenvalues --    0.70528   0.96398   1.00177   1.00938   1.10759

 Mulliken charges:
               1
     1  H    0.212033
     2  C   -0.828270
     3  H    0.211634
     4  H    0.211299
     5  H    0.193304
 Sum of Mulliken charges =   0.00000

 Dipole moment (field-independent basis, Debye):
    X=              0.0208    Y=             -0.0107    Z=              0.0033  Tot=              0.0236
 Quadrupole moment (field-independent basis, Debye-Ang):
   XX=             -8.6000   YY=             -8.4214   ZZ=             -8.5225
   XY=              0.0231   XZ=              0.0367   YZ=             -0.0043

 Normal termination of Gaussian 16 at Fri Sep 22 17:12:11 2023.
