 Gaussian 16, Revision A.03,
 Gaussian 16:  ES64L-G16RevA.03 25-Dec-2016

 ------------------------------------------------------------------
 # 6-31+g(d) scrf=(solvent=water,pcm) int=ultrafine m062x scf=tight
 ------------------------------------------------------------------

 ------------------------
 tmpdir/M2_conf_107_3.gjf
 ------------------------
 Symbolic Z-matrix:
 Charge =  0 Multiplicity = 1

                         Standard orientation:
 ---------------------------------------------------------------------
 Center     Atomic      Atomic             Coordinates (Angstroms)
 Number     Number       Type             X           Y           Z
 ---------------------------------------------------------------------
      1          6           0       -0.014278    0.000012    0.001990
      2          1           0       -0.276911    0.000172    1.046992
      3          1           0       -0.389781   -0.894565   -0.489991
      4          1           0       -0.387096    0.895924   -0.489592
      5          1           0        1.139455   -0.001603   -0.079349
 ---------------------------------------------------------------------

 SCF Done:  E(RM062X) =  -40.4812372289     A.U. after    9 cycles

 The electronic state is 1-A.
 Alpha  occ. eigenvalues --  -10.53081  -0.78264  -0.46137  -0.45966  -0.44098
 Alpha virt. eigenvalues --    0.03933   0.07139   0.07159   0.07353   0.21215
 Alpha virt. eigenvalues --    0.23334   0.23556   0.30809   0.68783   0.69018
 Alpha virt. eigenvalues --    0.70529   0.96554   1.00501   1.00951   1.10913

 Mulliken charges:
               1
     1  C   -0.828791
     2  H    0.213375
     3  H    0.211122
     4  H    0.211122
     5  H    0.193171
 Sum of Mulliken charges =  -0.00000

 Dipole moment (field-independent basis, Debye):
    X=             -0.0283    Y=              0.0001    Z=              0.0083  Tot=              0.0295
 Quadrupole moment (field-independent basis, Debye-Ang):
   XX=             -8.5833   YY=             -8.4642   ZZ=             -8.4708
   XY=              0.0004   XZ=              0.0095   YZ=             -0.0000

 Normal termination of Gaussian 16 at Fri Sep 22 17:20:09 2023.
