 Gaussian 16, Revision A.03,
 Gaussian 16:  ES64L-G16RevA.03 25-Dec-2016

 ------------------------------------------------------------------
 # 6-31+g(d) scrf=(solvent=water,pcm) int=ultrafine m062x scf=tight
 ------------------------------------------------------------------

 -----------------------
 tmpdir/M2_conf_48_0.gjf
 -----------------------
 Symbolic Z-matrix:
 Charge = -1 Multiplicity = 1

                         Standard orientation:
 ---------------------------------------------------------------------
 Center     Atomic      Atomic             Coordinates (Angstroms)
 Number     Number       Type             X           Y           Z
 ---------------------------------------------------------------------
      1          7           0        0.000000    0.000000    0.540877
      2          6           0        0.000000    0.000000   -0.631023
 ---------------------------------------------------------------------

 SCF Done:  E(RM062X) =  -92.9322486254     A.U. after   10 cycles

 The electronic state is 1-SG.
 Alpha  occ. eigenvalues --  -14.69704 -10.49521  -0.93431  -0.43908  -0.34330
 Alpha  occ. eigenvalues --   -0.34330  -0.30669
 Alpha virt. eigenvalues --    0.04905   0.06850   0.06850   0.08738   0.14136
 Alpha virt. eigenvalues --    0.14136   0.16516   0.22801   0.22801   0.27857
 Alpha virt. eigenvalues --    0.52484   0.77421   0.77421   0.84303   1.00421

 Mulliken charges:
               1
     1  N   -0.668989
     2  C   -0.331011
 Sum of Mulliken charges =  -1.00000

 Dipole moment (field-independent basis, Debye):
    X=              0.0000    Y=              0.0000    Z=              0.4223  Tot=              0.4223
 Quadrupole moment (field-independent basis, Debye-Ang):
   XX=            -14.6303   YY=            -14.6303   ZZ=            -19.4889
   XY=              0.0000   XZ=              0.0000   YZ=              0.0000

 Normal termination of Gaussian 16 at Fri Sep 22 17:13:21 2023.
