 Gaussian 16, Revision A.03,
 Gaussian 16:  ES64L-G16RevA.03 25-Dec-2016

 ------------------------------------------------------------------
 # 6-31+g(d) scrf=(solvent=water,pcm) int=ultrafine m062x scf=tight
 ------------------------------------------------------------------

 ------------------------
 tmpdir/M2_conf_110_7.gjf
 ------------------------
 Symbolic Z-matrix:
 Charge =  0 Multiplicity = 1

                         Standard orientation:
 ---------------------------------------------------------------------
 Center     Atomic      Atomic             Coordinates (Angstroms)
 Number     Number       Type             X           Y           Z
 ---------------------------------------------------------------------
      1          1           0        1.067074    1.034847    0.000000
      2          6           0       -0.015682    1.139488    0.000000
      3         17           0       -0.015682   -0.658008   -0.000000
      4          1           0       -0.353198    1.657176    0.895200
      5          1           0       -0.353198    1.657176   -0.895200
 ---------------------------------------------------------------------

 SCF Done:  E(RM062X) =  -500.027567705     A.U. after   11 cycles

 The electronic state is 1-A'.
 Alpha  occ. eigenvalues -- -102.66416 -10.59913  -9.81183  -7.53583  -7.52919
 Alpha  occ. eigenvalues --   -7.52899  -0.96052  -0.76553  -0.53275  -0.51590
 Alpha  occ. eigenvalues --   -0.46464  -0.37248  -0.35469
 Alpha virt. eigenvalues --    0.02347   0.03531   0.06814   0.06966   0.09069
 Alpha virt. eigenvalues --    0.10573   0.11070   0.11813   0.17639   0.21513
 Alpha virt. eigenvalues --    0.22878   0.28683   0.59968   0.63075   0.65196

 Mulliken charges:
               1
     1  H    0.244807
     2  C   -0.683961
     3  Cl  -0.093050
     4  H    0.266102
     5  H    0.266102
 Sum of Mulliken charges =  -0.00000

 Dipole moment (field-independent basis, Debye):
    X=              0.2243    Y=              2.5432    Z=             -0.0000  Tot=              2.5531
 Quadrupole moment (field-independent basis, Debye-Ang):
   XX=            -20.3786   YY=            -18.0444   ZZ=            -20.0071
   XY=             -0.6734   XZ=              0.0000   YZ=             -0.0000

 Normal termination of Gaussian 16 at Fri Sep 22 17:20:32 2023.
