 Gaussian 16, Revision A.03,
 Gaussian 16:  ES64L-G16RevA.03 25-Dec-2016

 ------------------------------------------------------------------
 # 6-31+g(d) scrf=(solvent=water,pcm) int=ultrafine m062x scf=tight
 ------------------------------------------------------------------

 -----------------------
 tmpdir/M2_conf_93_9.gjf
 -----------------------
 Symbolic Z-matrix:
 Charge =  0 Multiplicity = 1

                         Standard orientation:
 ---------------------------------------------------------------------
 Center     Atomic      Atomic             Coordinates (Angstroms)
 Number     Number       Type             X           Y           Z
 ---------------------------------------------------------------------
      1          1           0       -1.075923    1.147725    0.000000
      2          6           0        0.011834    1.138042    0.000000
      3         17           0        0.011834   -0.659459   -0.000000
      4          1           0        0.401867    1.617410    0.895200
      5          1           0        0.401867    1.617410   -0.895200
 ---------------------------------------------------------------------

 SCF Done:  E(RM062X) =  -500.038187619     A.U. after   11 cycles

 The electronic state is 1-A'.
 Alpha  occ. eigenvalues -- -102.66333 -10.59991  -9.81082  -7.53479  -7.52824
 Alpha  occ. eigenvalues --   -7.52808  -0.95726  -0.76622  -0.52710  -0.51617
 Alpha  occ. eigenvalues --   -0.46790  -0.37101  -0.35989
 Alpha virt. eigenvalues --    0.02550   0.03513   0.06848   0.06958   0.09097
 Alpha virt. eigenvalues --    0.10810   0.11086   0.11916   0.17708   0.21574
 Alpha virt. eigenvalues --    0.22647   0.29061   0.60185   0.63226   0.64903

 Mulliken charges:
               1
     1  H    0.250195
     2  C   -0.689771
     3  Cl  -0.090882
     4  H    0.265229
     5  H    0.265229
 Sum of Mulliken charges =  -0.00000

 Dipole moment (field-independent basis, Debye):
    X=             -0.1629    Y=              2.5898    Z=             -0.0000  Tot=              2.5949
 Quadrupole moment (field-independent basis, Debye-Ang):
   XX=            -20.2396   YY=            -18.0775   ZZ=            -20.0212
   XY=              0.5361   XZ=             -0.0000   YZ=             -0.0000

 Normal termination of Gaussian 16 at Fri Sep 22 17:18:32 2023.
