 Gaussian 16, Revision A.03,
 Gaussian 16:  ES64L-G16RevA.03 25-Dec-2016

 ------------------------------------------------------------------
 # 6-31+g(d) scrf=(solvent=water,pcm) int=ultrafine m062x scf=tight
 ------------------------------------------------------------------

 ------------------------
 tmpdir/M2_conf_44_10.gjf
 ------------------------
 Symbolic Z-matrix:
 Charge =  0 Multiplicity = 1

                         Standard orientation:
 ---------------------------------------------------------------------
 Center     Atomic      Atomic             Coordinates (Angstroms)
 Number     Number       Type             X           Y           Z
 ---------------------------------------------------------------------
      1          1           0        1.047570    1.422203    0.000000
      2          6           0       -0.001975    1.136259    0.000000
      3         17           0       -0.001975   -0.661244   -0.000000
      4          1           0       -0.501075    1.500699    0.895200
      5          1           0       -0.501075    1.500699   -0.895200
 ---------------------------------------------------------------------

 SCF Done:  E(RM062X) =  -500.050562101     A.U. after   10 cycles

 The electronic state is 1-A'.
 Alpha  occ. eigenvalues -- -102.66260 -10.60050  -9.80991  -7.53384  -7.52735
 Alpha  occ. eigenvalues --   -7.52732  -0.95390  -0.76692  -0.51816  -0.51720
 Alpha  occ. eigenvalues --   -0.47388  -0.36812  -0.36697
 Alpha virt. eigenvalues --    0.02810   0.03489   0.06912   0.06929   0.09129
 Alpha virt. eigenvalues --    0.11092   0.11100   0.12207   0.17790   0.21836
 Alpha virt. eigenvalues --    0.22054   0.29722   0.60616   0.63654   0.63872

 Mulliken charges:
               1
     1  H    0.260845
     2  C   -0.701579
     3  Cl  -0.084830
     4  H    0.262782
     5  H    0.262782
 Sum of Mulliken charges =  -0.00000

 Dipole moment (field-independent basis, Debye):
    X=              0.0254    Y=              2.6304    Z=              0.0000  Tot=              2.6305
 Quadrupole moment (field-independent basis, Debye-Ang):
   XX=            -20.0552   YY=            -18.1321   ZZ=            -20.0444
   XY=             -0.0952   XZ=             -0.0000   YZ=             -0.0000

 Normal termination of Gaussian 16 at Fri Sep 22 17:12:59 2023.
