 Gaussian 16, Revision A.03,
 Gaussian 16:  ES64L-G16RevA.03 25-Dec-2016

 ------------------------------------------------------------------
 # 6-31+g(d) scrf=(solvent=water,pcm) int=ultrafine m062x scf=tight
 ------------------------------------------------------------------

 -------------------------
 tmpdir/M2_conf_108_10.gjf
 -------------------------
 Symbolic Z-matrix:
 Charge =  0 Multiplicity = 1

                         Standard orientation:
 ---------------------------------------------------------------------
 Center     Atomic      Atomic             Coordinates (Angstroms)
 Number     Number       Type             X           Y           Z
 ---------------------------------------------------------------------
      1          1           0        1.068621    1.047153    0.000000
      2          6           0       -0.015268    1.139315    0.000000
      3         17           0       -0.015268   -0.658188   -0.000000
      4          1           0       -0.358725    1.653081    0.895200
      5          1           0       -0.358725    1.653081   -0.895200
 ---------------------------------------------------------------------

 SCF Done:  E(RM062X) =  -500.028899019     A.U. after   11 cycles

 The electronic state is 1-A'.
 Alpha  occ. eigenvalues -- -102.66404 -10.59924  -9.81169  -7.53568  -7.52906
 Alpha  occ. eigenvalues --   -7.52886  -0.96009  -0.76562  -0.53209  -0.51593
 Alpha  occ. eigenvalues --   -0.46499  -0.37230  -0.35534
 Alpha virt. eigenvalues --    0.02371   0.03529   0.06818   0.06965   0.09073
 Alpha virt. eigenvalues --    0.10600   0.11072   0.11822   0.17648   0.21520
 Alpha virt. eigenvalues --    0.22853   0.28723   0.59990   0.63091   0.65174

 Mulliken charges:
               1
     1  H    0.245391
     2  C   -0.684496
     3  Cl  -0.092912
     4  H    0.266009
     5  H    0.266009
 Sum of Mulliken charges =  -0.00000

 Dipole moment (field-independent basis, Debye):
    X=              0.2174    Y=              2.5497    Z=             -0.0000  Tot=              2.5589
 Quadrupole moment (field-independent basis, Debye-Ang):
   XX=            -20.3619   YY=            -18.0479   ZZ=            -20.0088
   XY=             -0.6601   XZ=              0.0000   YZ=             -0.0000

 Normal termination of Gaussian 16 at Fri Sep 22 17:20:18 2023.
