 Gaussian 16, Revision A.03,
 Gaussian 16:  ES64L-G16RevA.03 25-Dec-2016

 ------------------------------------------------------------------
 # 6-31+g(d) scrf=(solvent=water,pcm) int=ultrafine m062x scf=tight
 ------------------------------------------------------------------

 ------------------------
 tmpdir/M2_conf_111_7.gjf
 ------------------------
 Symbolic Z-matrix:
 Charge =  0 Multiplicity = 1

                         Standard orientation:
 ---------------------------------------------------------------------
 Center     Atomic      Atomic             Coordinates (Angstroms)
 Number     Number       Type             X           Y           Z
 ---------------------------------------------------------------------
      1          1           0        1.066273    1.028892    0.000000
      2          6           0       -0.015881    1.139579    0.000000
      3         17           0       -0.015881   -0.657921   -0.000000
      4          1           0       -0.350501    1.659144    0.895200
      5          1           0       -0.350501    1.659144   -0.895200
 ---------------------------------------------------------------------

 SCF Done:  E(RM062X) =  -500.026907167     A.U. after   11 cycles

 The electronic state is 1-A'.
 Alpha  occ. eigenvalues -- -102.66421 -10.59908  -9.81190  -7.53590  -7.52925
 Alpha  occ. eigenvalues --   -7.52905  -0.96073  -0.76549  -0.53307  -0.51589
 Alpha  occ. eigenvalues --   -0.46448  -0.37257  -0.35437
 Alpha virt. eigenvalues --    0.02335   0.03532   0.06812   0.06967   0.09068
 Alpha virt. eigenvalues --    0.10559   0.11069   0.11808   0.17635   0.21510
 Alpha virt. eigenvalues --    0.22890   0.28664   0.59957   0.63067   0.65206

 Mulliken charges:
               1
     1  H    0.244526
     2  C   -0.683711
     3  Cl  -0.093109
     4  H    0.266147
     5  H    0.266147
 Sum of Mulliken charges =  -0.00000

 Dipole moment (field-independent basis, Debye):
    X=              0.2277    Y=              2.5400    Z=              0.0000  Tot=              2.5502
 Quadrupole moment (field-independent basis, Debye-Ang):
   XX=            -20.3869   YY=            -18.0428   ZZ=            -20.0062
   XY=             -0.6796   XZ=             -0.0000   YZ=              0.0000

 Normal termination of Gaussian 16 at Fri Sep 22 17:20:40 2023.
