 Gaussian 16, Revision A.03,
 Gaussian 16:  ES64L-G16RevA.03 25-Dec-2016

 ------------------------------------------------------------------
 # 6-31+g(d) scrf=(solvent=water,pcm) int=ultrafine m062x scf=tight
 ------------------------------------------------------------------

 -----------------------
 tmpdir/M2_conf_58_5.gjf
 -----------------------
 Symbolic Z-matrix:
 Charge =  0 Multiplicity = 1

                         Standard orientation:
 ---------------------------------------------------------------------
 Center     Atomic      Atomic             Coordinates (Angstroms)
 Number     Number       Type             X           Y           Z
 ---------------------------------------------------------------------
      1          1           0        1.027916    0.060371   -0.391031
      2          6           0        0.011109   -0.013075   -0.011534
      3          1           0       -0.749201   -0.297130   -0.735789
      4          1           0       -0.041148   -0.714262    0.818471
      5          1           0       -0.304220    1.029469    0.377554
 ---------------------------------------------------------------------

 SCF Done:  E(RM062X) =  -40.4803988163     A.U. after    9 cycles

 The electronic state is 1-A.
 Alpha  occ. eigenvalues --  -10.53199  -0.78190  -0.46868  -0.45435  -0.43725
 Alpha virt. eigenvalues --    0.03926   0.07093   0.07190   0.07370   0.20974
 Alpha virt. eigenvalues --    0.22888   0.23994   0.30637   0.68961   0.69105
 Alpha virt. eigenvalues --    0.70529   0.95942   0.99467   1.02015   1.10897

 Mulliken charges:
               1
     1  H    0.213566
     2  C   -0.829461
     3  H    0.212251
     4  H    0.210873
     5  H    0.192771
 Sum of Mulliken charges =   0.00000

 Dipole moment (field-independent basis, Debye):
    X=             -0.0252    Y=             -0.0226    Z=              0.0177  Tot=              0.0382
 Quadrupole moment (field-independent basis, Debye-Ang):
   XX=             -8.2923   YY=             -8.5899   ZZ=             -8.6706
   XY=              0.0627   XZ=              0.0175   YZ=             -0.0759

 Normal termination of Gaussian 16 at Fri Sep 22 17:14:31 2023.
