 Gaussian 16, Revision A.03,
 Gaussian 16:  ES64L-G16RevA.03 25-Dec-2016

 ------------------------------------------------------------------
 # 6-31+g(d) scrf=(solvent=water,pcm) int=ultrafine m062x scf=tight
 ------------------------------------------------------------------

 -----------------------
 tmpdir/M2_conf_27_4.gjf
 -----------------------
 Symbolic Z-matrix:
 Charge =  0 Multiplicity = 1

                         Standard orientation:
 ---------------------------------------------------------------------
 Center     Atomic      Atomic             Coordinates (Angstroms)
 Number     Number       Type             X           Y           Z
 ---------------------------------------------------------------------
      1          6           0       -0.000000   -1.145887    0.000000
      2         17           0       -0.000000    0.666413    0.000000
      3          1           0       -1.033730   -1.484567    0.000000
      4          1           0        0.516870   -1.484567    0.895240
      5          1           0        0.516870   -1.484567   -0.895240
 ---------------------------------------------------------------------

 SCF Done:  E(RM062X) =  -500.050809970     A.U. after   10 cycles

 The electronic state is 1-A'.
 Alpha  occ. eigenvalues -- -102.66284 -10.60193  -9.80991  -7.53384  -7.52734
 Alpha  occ. eigenvalues --   -7.52734  -0.95066  -0.76828  -0.51675  -0.51675
 Alpha  occ. eigenvalues --   -0.47225  -0.36823  -0.36822
 Alpha virt. eigenvalues --    0.02634   0.03498   0.06934   0.06934   0.09134
 Alpha virt. eigenvalues --    0.11090   0.11090   0.11845   0.17747   0.21946
 Alpha virt. eigenvalues --    0.21946   0.29758   0.60746   0.63617   0.63618

 Mulliken charges:
               1
     1  C   -0.698661
     2  Cl  -0.090289
     3  H    0.262997
     4  H    0.262976
     5  H    0.262976
 Sum of Mulliken charges =  -0.00000

 Dipole moment (field-independent basis, Debye):
    X=              0.0000    Y=             -2.6808    Z=              0.0000  Tot=              2.6808
 Quadrupole moment (field-independent basis, Debye-Ang):
   XX=            -20.0657   YY=            -18.0503   ZZ=            -20.0657
   XY=              0.0002   XZ=             -0.0000   YZ=              0.0000

 Normal termination of Gaussian 16 at Fri Sep 22 17:11:06 2023.
