 Gaussian 16, Revision A.03,
 Gaussian 16:  ES64L-G16RevA.03 25-Dec-2016

 ------------------------------------------------------------------
 # 6-31+g(d) scrf=(solvent=water,pcm) int=ultrafine m062x scf=tight
 ------------------------------------------------------------------

 -----------------------
 tmpdir/M2_conf_38_9.gjf
 -----------------------
 Symbolic Z-matrix:
 Charge =  0 Multiplicity = 1

                         Standard orientation:
 ---------------------------------------------------------------------
 Center     Atomic      Atomic             Coordinates (Angstroms)
 Number     Number       Type             X           Y           Z
 ---------------------------------------------------------------------
      1          1           0       -1.042777    1.441718    0.000000
      2          6           0        0.001246    1.136226    0.000000
      3         17           0        0.001246   -0.661273   -0.000000
      4          1           0        0.507064    1.491283    0.895200
      5          1           0        0.507064    1.491283   -0.895200
 ---------------------------------------------------------------------

 SCF Done:  E(RM062X) =  -500.050762520     A.U. after   10 cycles

 The electronic state is 1-A'.
 Alpha  occ. eigenvalues -- -102.66259 -10.60051  -9.80990  -7.53382  -7.52733
 Alpha  occ. eigenvalues --   -7.52731  -0.95385  -0.76693  -0.51788  -0.51732
 Alpha  occ. eigenvalues --   -0.47401  -0.36792  -0.36722
 Alpha virt. eigenvalues --    0.02815   0.03489   0.06915   0.06926   0.09129
 Alpha virt. eigenvalues --    0.11096   0.11100   0.12216   0.17791   0.21871
 Alpha virt. eigenvalues --    0.22011   0.29736   0.60626   0.63689   0.63821

 Mulliken charges:
               1
     1  H    0.261377
     2  C   -0.701820
     3  Cl  -0.084695
     4  H    0.262569
     5  H    0.262569
 Sum of Mulliken charges =  -0.00000

 Dipole moment (field-independent basis, Debye):
    X=             -0.0159    Y=              2.6309    Z=              0.0000  Tot=              2.6309
 Quadrupole moment (field-independent basis, Debye-Ang):
   XX=            -20.0512   YY=            -18.1333   ZZ=            -20.0457
   XY=              0.0601   XZ=              0.0000   YZ=              0.0000

 Normal termination of Gaussian 16 at Fri Sep 22 17:12:19 2023.
