 Gaussian 16, Revision A.03,
 Gaussian 16:  ES64L-G16RevA.03 25-Dec-2016

 ------------------------------------------------------------------
 # 6-31+g(d) scrf=(solvent=water,pcm) int=ultrafine m062x scf=tight
 ------------------------------------------------------------------

 -----------------------
 tmpdir/M2_conf_72_5.gjf
 -----------------------
 Symbolic Z-matrix:
 Charge =  0 Multiplicity = 1

                         Standard orientation:
 ---------------------------------------------------------------------
 Center     Atomic      Atomic             Coordinates (Angstroms)
 Number     Number       Type             X           Y           Z
 ---------------------------------------------------------------------
      1          1           0        1.037061    0.006480   -0.382463
      2          6           0        0.013280   -0.013489   -0.015334
      3          1           0       -0.787276   -0.198138   -0.728294
      4          1           0       -0.099149   -0.753650    0.773859
      5          1           0       -0.230315    1.026241    0.428899
 ---------------------------------------------------------------------

 SCF Done:  E(RM062X) =  -40.4794719002     A.U. after    9 cycles

 The electronic state is 1-A.
 Alpha  occ. eigenvalues --  -10.53204  -0.78211  -0.47246  -0.45270  -0.43484
 Alpha virt. eigenvalues --    0.03923   0.07066   0.07203   0.07380   0.20810
 Alpha virt. eigenvalues --    0.22731   0.24293   0.30597   0.68959   0.69192
 Alpha virt. eigenvalues --    0.70531   0.95549   0.99121   1.02632   1.11059

 Mulliken charges:
               1
     1  H    0.214692
     2  C   -0.830754
     3  H    0.212864
     4  H    0.210687
     5  H    0.192511
 Sum of Mulliken charges =  -0.00000

 Dipole moment (field-independent basis, Debye):
    X=             -0.0400    Y=             -0.0207    Z=              0.0279  Tot=              0.0530
 Quadrupole moment (field-independent basis, Debye-Ang):
   XX=             -8.2012   YY=             -8.5980   ZZ=             -8.7622
   XY=              0.0464   XZ=              0.0122   YZ=             -0.0867

 Normal termination of Gaussian 16 at Fri Sep 22 17:16:04 2023.
