 Gaussian 16, Revision A.03,
 Gaussian 16:  ES64L-G16RevA.03 25-Dec-2016

 ------------------------------------------------------------------
 # 6-31+g(d) scrf=(solvent=water,pcm) int=ultrafine m062x scf=tight
 ------------------------------------------------------------------

 ------------------------
 tmpdir/M2_conf_54_10.gjf
 ------------------------
 Symbolic Z-matrix:
 Charge =  0 Multiplicity = 1

                         Standard orientation:
 ---------------------------------------------------------------------
 Center     Atomic      Atomic             Coordinates (Angstroms)
 Number     Number       Type             X           Y           Z
 ---------------------------------------------------------------------
      1          1           0        1.057413    1.375906    0.000000
      2          6           0       -0.003689    1.136385    0.000000
      3         17           0       -0.003689   -0.661121   -0.000000
      4          1           0       -0.486283    1.522418    0.895200
      5          1           0       -0.486283    1.522418   -0.895200
 ---------------------------------------------------------------------

 SCF Done:  E(RM062X) =  -500.049729005     A.U. after   10 cycles

 The electronic state is 1-A'.
 Alpha  occ. eigenvalues -- -102.66265 -10.60048  -9.80997  -7.53390  -7.52741
 Alpha  occ. eigenvalues --   -7.52736  -0.95411  -0.76688  -0.51904  -0.51696
 Alpha  occ. eigenvalues --   -0.47336  -0.36859  -0.36623
 Alpha virt. eigenvalues --    0.02791   0.03490   0.06903   0.06935   0.09126
 Alpha virt. eigenvalues --    0.11074   0.11100   0.12175   0.17785   0.21764
 Alpha virt. eigenvalues --    0.22156   0.29668   0.60576   0.63574   0.64017

 Mulliken charges:
               1
     1  H    0.259454
     2  C   -0.700595
     3  Cl  -0.085375
     4  H    0.263258
     5  H    0.263258
 Sum of Mulliken charges =  -0.00000

 Dipole moment (field-independent basis, Debye):
    X=              0.0479    Y=              2.6282    Z=              0.0000  Tot=              2.6287
 Quadrupole moment (field-independent basis, Debye-Ang):
   XX=            -20.0698   YY=            -18.1277   ZZ=            -20.0413
   XY=             -0.1769   XZ=             -0.0000   YZ=             -0.0000

 Normal termination of Gaussian 16 at Fri Sep 22 17:14:06 2023.
