 Gaussian 16, Revision A.03,
 Gaussian 16:  ES64L-G16RevA.03 25-Dec-2016

 ------------------------------------------------------------------
 # 6-31+g(d) scrf=(solvent=water,pcm) int=ultrafine m062x scf=tight
 ------------------------------------------------------------------

 -----------------------
 tmpdir/M2_conf_75_7.gjf
 -----------------------
 Symbolic Z-matrix:
 Charge =  0 Multiplicity = 1

                         Standard orientation:
 ---------------------------------------------------------------------
 Center     Atomic      Atomic             Coordinates (Angstroms)
 Number     Number       Type             X           Y           Z
 ---------------------------------------------------------------------
      1          1           0        1.072880    1.260716   -0.000000
      2          6           0       -0.007863    1.137007   -0.000000
      3         17           0       -0.007863   -0.660495    0.000000
      4          1           0       -0.446019    1.572825    0.895200
      5          1           0       -0.446019    1.572825   -0.895200
 ---------------------------------------------------------------------

 SCF Done:  E(RM062X) =  -500.045476002     A.U. after   10 cycles

 The electronic state is 1-A'.
 Alpha  occ. eigenvalues -- -102.66286 -10.60031  -9.81024  -7.53419  -7.52769
 Alpha  occ. eigenvalues --   -7.52758  -0.95521  -0.76665  -0.52244  -0.51649
 Alpha  occ. eigenvalues --   -0.47103  -0.36975  -0.36363
 Alpha virt. eigenvalues --    0.02699   0.03499   0.06878   0.06948   0.09115
 Alpha virt. eigenvalues --    0.10981   0.11096   0.12050   0.17757   0.21646
 Alpha virt. eigenvalues --    0.22407   0.29416   0.60404   0.63390   0.64466

 Mulliken charges:
               1
     1  H    0.255235
     2  C   -0.696006
     3  Cl  -0.087840
     4  H    0.264306
     5  H    0.264306
 Sum of Mulliken charges =   0.00000

 Dipole moment (field-independent basis, Debye):
    X=              0.1051    Y=              2.6158    Z=             -0.0000  Tot=              2.6179
 Quadrupole moment (field-independent basis, Debye-Ang):
   XX=            -20.1359   YY=            -18.1074   ZZ=            -20.0323
   XY=             -0.3690   XZ=              0.0000   YZ=              0.0000

 Normal termination of Gaussian 16 at Fri Sep 22 17:16:25 2023.
