 Gaussian 16, Revision A.03,
 Gaussian 16:  ES64L-G16RevA.03 25-Dec-2016

 ------------------------------------------------------------------
 # 6-31+g(d) scrf=(solvent=water,pcm) int=ultrafine m062x scf=tight
 ------------------------------------------------------------------

 ------------------------
 tmpdir/M2_conf_103_9.gjf
 ------------------------
 Symbolic Z-matrix:
 Charge =  0 Multiplicity = 1

                         Standard orientation:
 ---------------------------------------------------------------------
 Center     Atomic      Atomic             Coordinates (Angstroms)
 Number     Number       Type             X           Y           Z
 ---------------------------------------------------------------------
      1          1           0       -1.071867    1.077977    0.000000
      2          6           0        0.014226    1.138888   -0.000000
      3         17           0        0.014226   -0.658612    0.000000
      4          1           0        0.372335    1.642550    0.895200
      5          1           0        0.372335    1.642550   -0.895200
 ---------------------------------------------------------------------

 SCF Done:  E(RM062X) =  -500.032043648     A.U. after   11 cycles

 The electronic state is 1-A'.
 Alpha  occ. eigenvalues -- -102.66378 -10.59949  -9.81138  -7.53536  -7.52876
 Alpha  occ. eigenvalues --   -7.52858  -0.95911  -0.76583  -0.53049  -0.51600
 Alpha  occ. eigenvalues --   -0.46586  -0.37188  -0.35687
 Alpha virt. eigenvalues --    0.02430   0.03524   0.06827   0.06963   0.09081
 Alpha virt. eigenvalues --    0.10669   0.11077   0.11848   0.17668   0.21536
 Alpha virt. eigenvalues --    0.22791   0.28825   0.60048   0.63132   0.65108

 Mulliken charges:
               1
     1  H    0.246864
     2  C   -0.685970
     3  Cl  -0.092440
     4  H    0.265773
     5  H    0.265773
 Sum of Mulliken charges =  -0.00000

 Dipole moment (field-independent basis, Debye):
    X=             -0.2003    Y=              2.5641    Z=              0.0000  Tot=              2.5719
 Quadrupole moment (field-independent basis, Debye-Ang):
   XX=            -20.3216   YY=            -18.0568   ZZ=            -20.0129
   XY=              0.6250   XZ=              0.0000   YZ=              0.0000

 Normal termination of Gaussian 16 at Fri Sep 22 17:19:43 2023.
