 Gaussian 16, Revision A.03,
 Gaussian 16:  ES64L-G16RevA.03 25-Dec-2016

 ------------------------------------------------------------------
 # 6-31+g(d) scrf=(solvent=water,pcm) int=ultrafine m062x scf=tight
 ------------------------------------------------------------------

 ------------------------
 tmpdir/M2_conf_121_7.gjf
 ------------------------
 Symbolic Z-matrix:
 Charge =  0 Multiplicity = 1

                         Standard orientation:
 ---------------------------------------------------------------------
 Center     Atomic      Atomic             Coordinates (Angstroms)
 Number     Number       Type             X           Y           Z
 ---------------------------------------------------------------------
      1          1           0        1.056653    0.970710    0.000000
      2          6           0       -0.017813    1.140504    0.000000
      3         17           0       -0.017813   -0.656998   -0.000000
      4          1           0       -0.323472    1.677617    0.895200
      5          1           0       -0.323472    1.677617   -0.895200
 ---------------------------------------------------------------------

 SCF Done:  E(RM062X) =  -500.019882190     A.U. after   11 cycles

 The electronic state is 1-A'.
 Alpha  occ. eigenvalues -- -102.66486 -10.59843  -9.81268  -7.53669  -7.52999
 Alpha  occ. eigenvalues --   -7.52978  -0.96309  -0.76500  -0.53635  -0.51574
 Alpha  occ. eigenvalues --   -0.46298  -0.37347  -0.35094
 Alpha virt. eigenvalues --    0.02209   0.03543   0.06792   0.06970   0.09047
 Alpha virt. eigenvalues --    0.10425   0.11059   0.11769   0.17592   0.21477
 Alpha virt. eigenvalues --    0.23004   0.28489   0.59859   0.62993   0.65270

 Mulliken charges:
               1
     1  H    0.241844
     2  C   -0.681754
     3  Cl  -0.093252
     4  H    0.266581
     5  H    0.266581
 Sum of Mulliken charges =  -0.00000

 Dipole moment (field-independent basis, Debye):
    X=              0.2616    Y=              2.5034    Z=              0.0000  Tot=              2.5170
 Quadrupole moment (field-independent basis, Debye-Ang):
   XX=            -20.4722   YY=            -18.0280   ZZ=            -19.9972
   XY=             -0.7342   XZ=             -0.0000   YZ=              0.0000

 Normal termination of Gaussian 16 at Fri Sep 22 17:21:50 2023.
