 Gaussian 16, Revision A.03,
 Gaussian 16:  ES64L-G16RevA.03 25-Dec-2016

 ------------------------------------------------------------------
 # 6-31+g(d) scrf=(solvent=water,pcm) int=ultrafine m062x scf=tight
 ------------------------------------------------------------------

 -----------------------
 tmpdir/M2_conf_57_4.gjf
 -----------------------
 Symbolic Z-matrix:
 Charge =  0 Multiplicity = 1

                         Standard orientation:
 ---------------------------------------------------------------------
 Center     Atomic      Atomic             Coordinates (Angstroms)
 Number     Number       Type             X           Y           Z
 ---------------------------------------------------------------------
      1          6           0       -0.000000   -1.271622   -0.000000
      2         17           0       -0.000000    0.732978   -0.000000
      3          1           0       -1.033730   -1.610302   -0.000000
      4          1           0        0.516870   -1.610302    0.895240
      5          1           0        0.516870   -1.610302   -0.895240
 ---------------------------------------------------------------------

 SCF Done:  E(RM062X) =  -500.038529617     A.U. after   10 cycles

 The electronic state is 1-A'.
 Alpha  occ. eigenvalues -- -102.66450 -10.62020  -9.80932  -7.53317  -7.52679
 Alpha  occ. eigenvalues --   -7.52679  -0.91785  -0.78464  -0.51191  -0.51191
 Alpha  occ. eigenvalues --   -0.44853  -0.37291  -0.37291
 Alpha virt. eigenvalues --   -0.00902   0.03621   0.07028   0.07028   0.08174
 Alpha virt. eigenvalues --    0.09797   0.10985   0.10985   0.17202   0.21922
 Alpha virt. eigenvalues --    0.21923   0.29899   0.61121   0.62171   0.62172

 Mulliken charges:
               1
     1  C   -0.647011
     2  Cl  -0.168319
     3  H    0.271771
     4  H    0.271779
     5  H    0.271779
 Sum of Mulliken charges =   0.00000

 Dipole moment (field-independent basis, Debye):
    X=              0.0002    Y=             -3.3902    Z=              0.0000  Tot=              3.3902
 Quadrupole moment (field-independent basis, Debye-Ang):
   XX=            -20.2733   YY=            -16.9001   ZZ=            -20.2733
   XY=              0.0001   XZ=             -0.0000   YZ=             -0.0000

 Normal termination of Gaussian 16 at Fri Sep 22 17:14:26 2023.
