 Gaussian 16, Revision A.03,
 Gaussian 16:  ES64L-G16RevA.03 25-Dec-2016

 ------------------------------------------------------------------
 # 6-31+g(d) scrf=(solvent=water,pcm) int=ultrafine m062x scf=tight
 ------------------------------------------------------------------

 ------------------------
 tmpdir/M2_conf_46_10.gjf
 ------------------------
 Symbolic Z-matrix:
 Charge =  0 Multiplicity = 1

                         Standard orientation:
 ---------------------------------------------------------------------
 Center     Atomic      Atomic             Coordinates (Angstroms)
 Number     Number       Type             X           Y           Z
 ---------------------------------------------------------------------
      1          1           0        1.049352    1.414511    0.000000
      2          6           0       -0.002261    1.136269    0.000000
      3         17           0       -0.002261   -0.661226   -0.000000
      4          1           0       -0.498676    1.504359    0.895200
      5          1           0       -0.498676    1.504359   -0.895200
 ---------------------------------------------------------------------

 SCF Done:  E(RM062X) =  -500.050458542     A.U. after   10 cycles

 The electronic state is 1-A'.
 Alpha  occ. eigenvalues -- -102.66261 -10.60050  -9.80992  -7.53385  -7.52736
 Alpha  occ. eigenvalues --   -7.52733  -0.95393  -0.76692  -0.51828  -0.51716
 Alpha  occ. eigenvalues --   -0.47382  -0.36820  -0.36686
 Alpha virt. eigenvalues --    0.02808   0.03489   0.06910   0.06930   0.09128
 Alpha virt. eigenvalues --    0.11089   0.11100   0.12203   0.17789   0.21822
 Alpha virt. eigenvalues --    0.22071   0.29716   0.60610   0.63641   0.63894

 Mulliken charges:
               1
     1  H    0.260626
     2  C   -0.701457
     3  Cl  -0.084896
     4  H    0.262863
     5  H    0.262863
 Sum of Mulliken charges =  -0.00000

 Dipole moment (field-independent basis, Debye):
    X=              0.0291    Y=              2.6301    Z=              0.0000  Tot=              2.6303
 Quadrupole moment (field-independent basis, Debye-Ang):
   XX=            -20.0571   YY=            -18.1316   ZZ=            -20.0439
   XY=             -0.1089   XZ=              0.0000   YZ=             -0.0000

 Normal termination of Gaussian 16 at Fri Sep 22 17:13:12 2023.
