 Gaussian 16, Revision A.03,
 Gaussian 16:  ES64L-G16RevA.03 25-Dec-2016

 ------------------------------------------------------------------
 # 6-31+g(d) scrf=(solvent=water,pcm) int=ultrafine m062x scf=tight
 ------------------------------------------------------------------

 -----------------------
 tmpdir/M2_conf_22_8.gjf
 -----------------------
 Symbolic Z-matrix:
 Charge =  0 Multiplicity = 1

                         Standard orientation:
 ---------------------------------------------------------------------
 Center     Atomic      Atomic             Coordinates (Angstroms)
 Number     Number       Type             X           Y           Z
 ---------------------------------------------------------------------
      1          1           0        0.351172    0.972535   -0.352807
      2          6           0        0.014186    0.000131   -0.000414
      3          1           0        0.336726   -0.790411   -0.674442
      4          1           0        0.369218   -0.188105    1.010439
      5          1           0       -1.142233    0.005196    0.019295
 ---------------------------------------------------------------------

 SCF Done:  E(RM062X) =  -40.4813446943     A.U. after    9 cycles

 The electronic state is 1-A.
 Alpha  occ. eigenvalues --  -10.53191  -0.78171  -0.46004  -0.45959  -0.44085
 Alpha virt. eigenvalues --    0.03928   0.07152   0.07155   0.07351   0.21191
 Alpha virt. eigenvalues --    0.23320   0.23352   0.30699   0.68991   0.68994
 Alpha virt. eigenvalues --    0.70529   0.96511   1.00463   1.00541   1.10741

 Mulliken charges:
               1
     1  H    0.211568
     2  C   -0.828087
     3  H    0.211509
     4  H    0.211485
     5  H    0.193525
 Sum of Mulliken charges =  -0.00000

 Dipole moment (field-independent basis, Debye):
    X=              0.0257    Y=             -0.0009    Z=              0.0002  Tot=              0.0257
 Quadrupole moment (field-independent basis, Debye-Ang):
   XX=             -8.5954   YY=             -8.4686   ZZ=             -8.4783
   XY=              0.0013   XZ=              0.0042   YZ=             -0.0001

 Normal termination of Gaussian 16 at Fri Sep 22 17:10:31 2023.
