 Gaussian 16, Revision A.03,
 Gaussian 16:  ES64L-G16RevA.03 25-Dec-2016

 ------------------------------------------------------------------
 # 6-31+g(d) scrf=(solvent=water,pcm) int=ultrafine m062x scf=tight
 ------------------------------------------------------------------

 -----------------------
 tmpdir/M2_conf_26_4.gjf
 -----------------------
 Symbolic Z-matrix:
 Charge =  0 Multiplicity = 1

                         Standard orientation:
 ---------------------------------------------------------------------
 Center     Atomic      Atomic             Coordinates (Angstroms)
 Number     Number       Type             X           Y           Z
 ---------------------------------------------------------------------
      1          6           0       -0.000000   -1.144841    0.000000
      2         17           0       -0.000000    0.665859    0.000000
      3          1           0       -1.033730   -1.483521    0.000000
      4          1           0        0.516870   -1.483521    0.895240
      5          1           0        0.516870   -1.483521   -0.895240
 ---------------------------------------------------------------------

 SCF Done:  E(RM062X) =  -500.050827307     A.U. after   10 cycles

 The electronic state is 1-A'.
 Alpha  occ. eigenvalues -- -102.66281 -10.60178  -9.80991  -7.53383  -7.52734
 Alpha  occ. eigenvalues --   -7.52734  -0.95100  -0.76814  -0.51683  -0.51683
 Alpha  occ. eigenvalues --   -0.47245  -0.36816  -0.36816
 Alpha virt. eigenvalues --    0.02655   0.03497   0.06932   0.06933   0.09134
 Alpha virt. eigenvalues --    0.11091   0.11091   0.11885   0.17752   0.21945
 Alpha virt. eigenvalues --    0.21946   0.29757   0.60734   0.63631   0.63632

 Mulliken charges:
               1
     1  C   -0.699024
     2  Cl  -0.089673
     3  H    0.262912
     4  H    0.262892
     5  H    0.262892
 Sum of Mulliken charges =  -0.00000

 Dipole moment (field-independent basis, Debye):
    X=              0.0000    Y=             -2.6754    Z=              0.0000  Tot=              2.6754
 Quadrupole moment (field-independent basis, Debye-Ang):
   XX=            -20.0637   YY=            -18.0594   ZZ=            -20.0637
   XY=              0.0002   XZ=              0.0000   YZ=             -0.0000

 Normal termination of Gaussian 16 at Fri Sep 22 17:10:59 2023.
