 Gaussian 16, Revision A.03,
 Gaussian 16:  ES64L-G16RevA.03 25-Dec-2016

 ------------------------------------------------------------------
 # 6-31+g(d) scrf=(solvent=water,pcm) int=ultrafine m062x scf=tight
 ------------------------------------------------------------------

 ------------------------
 tmpdir/M2_conf_117_4.gjf
 ------------------------
 Symbolic Z-matrix:
 Charge =  0 Multiplicity = 1

                         Standard orientation:
 ---------------------------------------------------------------------
 Center     Atomic      Atomic             Coordinates (Angstroms)
 Number     Number       Type             X           Y           Z
 ---------------------------------------------------------------------
      1          6           0       -0.000000   -1.555783    0.000000
      2         17           0       -0.000000    0.883417    0.000000
      3          1           0       -1.033730   -1.894463    0.000000
      4          1           0        0.516870   -1.894463    0.895240
      5          1           0        0.516870   -1.894463   -0.895240
 ---------------------------------------------------------------------

 SCF Done:  E(RM062X) =  -499.984830812     A.U. after   11 cycles

 The electronic state is 1-A'.
 Alpha  occ. eigenvalues -- -102.65892 -10.65675  -9.80149  -7.52510  -7.51913
 Alpha  occ. eigenvalues --   -7.51913  -0.87809  -0.81414  -0.52159  -0.52159
 Alpha  occ. eigenvalues --   -0.40148  -0.36891  -0.36891
 Alpha virt. eigenvalues --   -0.09635   0.03672   0.06671   0.06924   0.06924
 Alpha virt. eigenvalues --    0.10344   0.10825   0.10826   0.16146   0.21389
 Alpha virt. eigenvalues --    0.21390   0.29791   0.60889   0.60891   0.62209

 Mulliken charges:
               1
     1  C   -0.510000
     2  Cl  -0.346673
     3  H    0.285568
     4  H    0.285553
     5  H    0.285553
 Sum of Mulliken charges =   0.00000

 Dipole moment (field-independent basis, Debye):
    X=              0.0000    Y=             -5.3739    Z=              0.0000  Tot=              5.3739
 Quadrupole moment (field-independent basis, Debye-Ang):
   XX=            -20.5732   YY=            -13.9482   ZZ=            -20.5731
   XY=              0.0002   XZ=              0.0000   YZ=             -0.0000

 Normal termination of Gaussian 16 at Fri Sep 22 17:21:22 2023.
