 Gaussian 16, Revision A.03,
 Gaussian 16:  ES64L-G16RevA.03 25-Dec-2016

 ------------------------------------------------------------------
 # 6-31+g(d) scrf=(solvent=water,pcm) int=ultrafine m062x scf=tight
 ------------------------------------------------------------------

 ------------------------
 tmpdir/M2_conf_120_4.gjf
 ------------------------
 Symbolic Z-matrix:
 Charge =  0 Multiplicity = 1

                         Standard orientation:
 ---------------------------------------------------------------------
 Center     Atomic      Atomic             Coordinates (Angstroms)
 Number     Number       Type             X           Y           Z
 ---------------------------------------------------------------------
      1          6           0       -0.000000   -1.569448    0.000000
      2         17           0       -0.000000    0.890652    0.000000
      3          1           0       -1.033730   -1.908128    0.000000
      4          1           0        0.516870   -1.908128    0.895240
      5          1           0        0.516870   -1.908128   -0.895240
 ---------------------------------------------------------------------

 SCF Done:  E(RM062X) =  -499.982232728     A.U. after   11 cycles

 The electronic state is 1-A'.
 Alpha  occ. eigenvalues -- -102.65839 -10.65831  -9.80091  -7.52450  -7.51856
 Alpha  occ. eigenvalues --   -7.51856  -0.87685  -0.81534  -0.52238  -0.52238
 Alpha  occ. eigenvalues --   -0.39959  -0.36847  -0.36847
 Alpha virt. eigenvalues --   -0.09962   0.03668   0.06646   0.06912   0.06913
 Alpha virt. eigenvalues --    0.10374   0.10820   0.10820   0.16102   0.21354
 Alpha virt. eigenvalues --    0.21355   0.29771   0.60882   0.60884   0.62285

 Mulliken charges:
               1
     1  C   -0.503949
     2  Cl  -0.354540
     3  H    0.286173
     4  H    0.286157
     5  H    0.286157
 Sum of Mulliken charges =  -0.00000

 Dipole moment (field-independent basis, Debye):
    X=             -0.0000    Y=             -5.4813    Z=             -0.0000  Tot=              5.4813
 Quadrupole moment (field-independent basis, Debye-Ang):
   XX=            -20.5834   YY=            -13.7947   ZZ=            -20.5833
   XY=              0.0002   XZ=              0.0000   YZ=             -0.0000

 Normal termination of Gaussian 16 at Fri Sep 22 17:21:43 2023.
