 Gaussian 16, Revision A.03,
 Gaussian 16:  ES64L-G16RevA.03 25-Dec-2016

 ------------------------------------------------------------------
 # 6-31+g(d) scrf=(solvent=water,pcm) int=ultrafine m062x scf=tight
 ------------------------------------------------------------------

 -----------------------
 tmpdir/M2_conf_22_6.gjf
 -----------------------
 Symbolic Z-matrix:
 Charge =  0 Multiplicity = 1

                         Standard orientation:
 ---------------------------------------------------------------------
 Center     Atomic      Atomic             Coordinates (Angstroms)
 Number     Number       Type             X           Y           Z
 ---------------------------------------------------------------------
      1          1           0       -0.351254    0.972274   -0.353391
      2          6           0       -0.014178    0.000123   -0.000386
      3          1           0       -0.337873   -0.790890   -0.673314
      4          1           0       -0.368067   -0.186938    1.011085
      5          1           0        1.142265    0.004814    0.017938
 ---------------------------------------------------------------------

 SCF Done:  E(RM062X) =  -40.4813450519     A.U. after    9 cycles

 The electronic state is 1-A.
 Alpha  occ. eigenvalues --  -10.53191  -0.78171  -0.46002  -0.45961  -0.44085
 Alpha virt. eigenvalues --    0.03928   0.07152   0.07155   0.07351   0.21191
 Alpha virt. eigenvalues --    0.23321   0.23351   0.30699   0.68991   0.68994
 Alpha virt. eigenvalues --    0.70529   0.96512   1.00465   1.00538   1.10741

 Mulliken charges:
               1
     1  H    0.211565
     2  C   -0.828086
     3  H    0.211508
     4  H    0.211486
     5  H    0.193527
 Sum of Mulliken charges =  -0.00000

 Dipole moment (field-independent basis, Debye):
    X=             -0.0257    Y=             -0.0008    Z=              0.0002  Tot=              0.0257
 Quadrupole moment (field-independent basis, Debye-Ang):
   XX=             -8.5953   YY=             -8.4690   ZZ=             -8.4780
   XY=             -0.0012   XZ=             -0.0039   YZ=             -0.0001

 Normal termination of Gaussian 16 at Fri Sep 22 17:10:31 2023.
