 Gaussian 16, Revision A.03,
 Gaussian 16:  ES64L-G16RevA.03 25-Dec-2016

 ------------------------------------------------------------------
 # 6-31+g(d) scrf=(solvent=water,pcm) int=ultrafine m062x scf=tight
 ------------------------------------------------------------------

 -----------------------
 tmpdir/M2_conf_69_7.gjf
 -----------------------
 Symbolic Z-matrix:
 Charge =  0 Multiplicity = 1

                         Standard orientation:
 ---------------------------------------------------------------------
 Center     Atomic      Atomic             Coordinates (Angstroms)
 Number     Number       Type             X           Y           Z
 ---------------------------------------------------------------------
      1          1           0        1.069436    1.296427    0.000000
      2          6           0       -0.006582    1.136763    0.000000
      3         17           0       -0.006582   -0.660734   -0.000000
      4          1           0       -0.459021    1.557735    0.895200
      5          1           0       -0.459021    1.557735   -0.895200
 ---------------------------------------------------------------------

 SCF Done:  E(RM062X) =  -500.047129765     A.U. after   10 cycles

 The electronic state is 1-A'.
 Alpha  occ. eigenvalues -- -102.66277 -10.60038  -9.81013  -7.53407  -7.52757
 Alpha  occ. eigenvalues --   -7.52748  -0.95477  -0.76674  -0.52121  -0.51661
 Alpha  occ. eigenvalues --   -0.47188  -0.36938  -0.36456
 Alpha virt. eigenvalues --    0.02735   0.03496   0.06886   0.06944   0.09119
 Alpha virt. eigenvalues --    0.11019   0.11098   0.12093   0.17768   0.21676
 Alpha virt. eigenvalues --    0.22330   0.29509   0.60466   0.63445   0.64320

 Mulliken charges:
               1
     1  H    0.256659
     2  C   -0.697710
     3  Cl  -0.086942
     4  H    0.263997
     5  H    0.263997
 Sum of Mulliken charges =   0.00000

 Dipole moment (field-independent basis, Debye):
    X=              0.0872    Y=              2.6209    Z=             -0.0000  Tot=              2.6223
 Quadrupole moment (field-independent basis, Debye-Ang):
   XX=            -20.1110   YY=            -18.1151   ZZ=            -20.0353
   XY=             -0.3115   XZ=              0.0000   YZ=             -0.0000

 Normal termination of Gaussian 16 at Fri Sep 22 17:15:45 2023.
