 Gaussian 16, Revision A.03,
 Gaussian 16:  ES64L-G16RevA.03 25-Dec-2016

 ------------------------------------------------------------------
 # 6-31+g(d) scrf=(solvent=water,pcm) int=ultrafine m062x scf=tight
 ------------------------------------------------------------------

 -----------------------
 tmpdir/M2_conf_60_4.gjf
 -----------------------
 Symbolic Z-matrix:
 Charge =  0 Multiplicity = 1

                         Standard orientation:
 ---------------------------------------------------------------------
 Center     Atomic      Atomic             Coordinates (Angstroms)
 Number     Number       Type             X           Y           Z
 ---------------------------------------------------------------------
      1          6           0       -0.000000   -1.285614    0.000000
      2         17           0       -0.000000    0.740386    0.000000
      3          1           0       -1.033730   -1.624294    0.000000
      4          1           0        0.516870   -1.624294    0.895240
      5          1           0        0.516870   -1.624294   -0.895240
 ---------------------------------------------------------------------

 SCF Done:  E(RM062X) =  -500.036310376     A.U. after   10 cycles

 The electronic state is 1-A'.
 Alpha  occ. eigenvalues -- -102.66451 -10.62217  -9.80914  -7.53299  -7.52662
 Alpha  occ. eigenvalues --   -7.52662  -0.91498  -0.78632  -0.51188  -0.51187
 Alpha  occ. eigenvalues --   -0.44593  -0.37309  -0.37308
 Alpha virt. eigenvalues --   -0.01379   0.03630   0.07031   0.07032   0.08010
 Alpha virt. eigenvalues --    0.09801   0.10975   0.10975   0.17144   0.21909
 Alpha virt. eigenvalues --    0.21909   0.29908   0.61126   0.62047   0.62047

 Mulliken charges:
               1
     1  C   -0.640520
     2  Cl  -0.177312
     3  H    0.272603
     4  H    0.272614
     5  H    0.272614
 Sum of Mulliken charges =  -0.00000

 Dipole moment (field-independent basis, Debye):
    X=              0.0003    Y=             -3.4762    Z=              0.0000  Tot=              3.4762
 Quadrupole moment (field-independent basis, Debye-Ang):
   XX=            -20.2932   YY=            -16.7658   ZZ=            -20.2931
   XY=              0.0001   XZ=              0.0000   YZ=             -0.0000

 Normal termination of Gaussian 16 at Fri Sep 22 17:14:46 2023.
