 Gaussian 16, Revision A.03,
 Gaussian 16:  ES64L-G16RevA.03 25-Dec-2016

 ------------------------------------------------------------------
 # 6-31+g(d) scrf=(solvent=water,pcm) int=ultrafine m062x scf=tight
 ------------------------------------------------------------------

 -----------------------
 tmpdir/M2_conf_84_4.gjf
 -----------------------
 Symbolic Z-matrix:
 Charge =  0 Multiplicity = 1

                         Standard orientation:
 ---------------------------------------------------------------------
 Center     Atomic      Atomic             Coordinates (Angstroms)
 Number     Number       Type             X           Y           Z
 ---------------------------------------------------------------------
      1          6           0       -0.000000   -1.398337    0.000000
      2         17           0       -0.000000    0.800063    0.000000
      3          1           0       -1.033730   -1.737017    0.000000
      4          1           0        0.516870   -1.737017    0.895240
      5          1           0        0.516870   -1.737017   -0.895240
 ---------------------------------------------------------------------

 SCF Done:  E(RM062X) =  -500.015699122     A.U. after   10 cycles

 The electronic state is 1-A'.
 Alpha  occ. eigenvalues -- -102.66341 -10.63744  -9.80686  -7.53063  -7.52438
 Alpha  occ. eigenvalues --   -7.52438  -0.89595  -0.79893  -0.51407  -0.51407
 Alpha  occ. eigenvalues --   -0.42581  -0.37274  -0.37273
 Alpha virt. eigenvalues --   -0.05189   0.03678   0.07021   0.07022   0.07153
 Alpha virt. eigenvalues --    0.09993   0.10902   0.10902   0.16700   0.21741
 Alpha virt. eigenvalues --    0.21742   0.29929   0.61298   0.61299   0.61361

 Mulliken charges:
               1
     1  C   -0.585256
     2  Cl  -0.250321
     3  H    0.278534
     4  H    0.278521
     5  H    0.278521
 Sum of Mulliken charges =  -0.00000

 Dipole moment (field-independent basis, Debye):
    X=              0.0002    Y=             -4.2158    Z=              0.0000  Tot=              4.2158
 Quadrupole moment (field-independent basis, Debye-Ang):
   XX=            -20.4316   YY=            -15.6406   ZZ=            -20.4315
   XY=              0.0003   XZ=              0.0000   YZ=             -0.0000

 Normal termination of Gaussian 16 at Fri Sep 22 17:17:28 2023.
