 Gaussian 16, Revision A.03,
 Gaussian 16:  ES64L-G16RevA.03 25-Dec-2016

 ------------------------------------------------------------------
 # 6-31+g(d) scrf=(solvent=water,pcm) int=ultrafine m062x scf=tight
 ------------------------------------------------------------------

 -----------------------
 tmpdir/M2_conf_87_9.gjf
 -----------------------
 Symbolic Z-matrix:
 Charge =  0 Multiplicity = 1

                         Standard orientation:
 ---------------------------------------------------------------------
 Center     Atomic      Atomic             Coordinates (Angstroms)
 Number     Number       Type             X           Y           Z
 ---------------------------------------------------------------------
      1          1           0       -1.076226    1.185670    0.000000
      2          6           0        0.010514    1.137649    0.000000
      3         17           0        0.010514   -0.659853    0.000000
      4          1           0        0.417202    1.602970    0.895200
      5          1           0        0.417202    1.602970   -0.895200
 ---------------------------------------------------------------------

 SCF Done:  E(RM062X) =  -500.040991052     A.U. after   11 cycles

 The electronic state is 1-A'.
 Alpha  occ. eigenvalues -- -102.66314 -10.60008  -9.81059  -7.53455  -7.52801
 Alpha  occ. eigenvalues --   -7.52787  -0.95645  -0.76639  -0.52541  -0.51626
 Alpha  occ. eigenvalues --   -0.46900  -0.37057  -0.36129
 Alpha virt. eigenvalues --    0.02606   0.03508   0.06858   0.06954   0.09104
 Alpha virt. eigenvalues --    0.10876   0.11090   0.11959   0.17727   0.21595
 Alpha virt. eigenvalues --    0.22568   0.29187   0.60260   0.63280   0.64766

 Mulliken charges:
               1
     1  H    0.251958
     2  C   -0.691933
     3  Cl  -0.089879
     4  H    0.264927
     5  H    0.264927
 Sum of Mulliken charges =  -0.00000

 Dipole moment (field-independent basis, Debye):
    X=             -0.1432    Y=              2.6004    Z=             -0.0000  Tot=              2.6043
 Quadrupole moment (field-independent basis, Debye-Ang):
   XX=            -20.2007   YY=            -18.0883   ZZ=            -20.0252
   XY=              0.4829   XZ=             -0.0000   YZ=             -0.0000

 Normal termination of Gaussian 16 at Fri Sep 22 17:17:50 2023.
