 Gaussian 16, Revision A.03,
 Gaussian 16:  ES64L-G16RevA.03 25-Dec-2016

 ------------------------------------------------------------------
 # 6-31+g(d) scrf=(solvent=water,pcm) int=ultrafine m062x scf=tight
 ------------------------------------------------------------------

 -----------------------
 tmpdir/M2_conf_29_6.gjf
 -----------------------
 Symbolic Z-matrix:
 Charge =  0 Multiplicity = 1

                         Standard orientation:
 ---------------------------------------------------------------------
 Center     Atomic      Atomic             Coordinates (Angstroms)
 Number     Number       Type             X           Y           Z
 ---------------------------------------------------------------------
      1          1           0       -0.349551    0.970808   -0.360679
      2          6           0       -0.014403    0.000357   -0.001221
      3          1           0       -0.303287   -0.794120   -0.685804
      4          1           0       -0.401317   -0.196190    0.996261
      5          1           0        1.140575    0.017358    0.057550
 ---------------------------------------------------------------------

 SCF Done:  E(RM062X) =  -40.4813319169     A.U. after    9 cycles

 The electronic state is 1-A.
 Alpha  occ. eigenvalues --  -10.53191  -0.78171  -0.46054  -0.45925  -0.44070
 Alpha virt. eigenvalues --    0.03928   0.07149   0.07157   0.07352   0.21183
 Alpha virt. eigenvalues --    0.23293   0.23388   0.30696   0.68988   0.68998
 Alpha virt. eigenvalues --    0.70528   0.96488   1.00400   1.00627   1.10744

 Mulliken charges:
               1
     1  H    0.211670
     2  C   -0.828128
     3  H    0.211537
     4  H    0.211447
     5  H    0.193474
 Sum of Mulliken charges =   0.00000

 Dipole moment (field-independent basis, Debye):
    X=             -0.0247    Y=             -0.0029    Z=              0.0007  Tot=              0.0249
 Quadrupole moment (field-independent basis, Debye-Ang):
   XX=             -8.5980   YY=             -8.4579   ZZ=             -8.4867
   XY=             -0.0043   XZ=             -0.0124   YZ=             -0.0005

 Normal termination of Gaussian 16 at Fri Sep 22 17:11:18 2023.
