 Gaussian 16, Revision A.03,
 Gaussian 16:  ES64L-G16RevA.03 25-Dec-2016

 ------------------------------------------------------------------
 # 6-31+g(d) scrf=(solvent=water,pcm) int=ultrafine m062x scf=tight
 ------------------------------------------------------------------

 -----------------------
 tmpdir/M2_conf_91_9.gjf
 -----------------------
 Symbolic Z-matrix:
 Charge =  0 Multiplicity = 1

                         Standard orientation:
 ---------------------------------------------------------------------
 Center     Atomic      Atomic             Coordinates (Angstroms)
 Number     Number       Type             X           Y           Z
 ---------------------------------------------------------------------
      1          1           0       -1.076171    1.160310    0.000000
      2          6           0        0.011398    1.137907    0.000000
      3         17           0        0.011398   -0.659595    0.000000
      4          1           0        0.407010    1.612680    0.895200
      5          1           0        0.407010    1.612680   -0.895200
 ---------------------------------------------------------------------

 SCF Done:  E(RM062X) =  -500.039158308     A.U. after   11 cycles

 The electronic state is 1-A'.
 Alpha  occ. eigenvalues -- -102.66326 -10.59997  -9.81074  -7.53470  -7.52816
 Alpha  occ. eigenvalues --   -7.52800  -0.95697  -0.76628  -0.52653  -0.51620
 Alpha  occ. eigenvalues --   -0.46827  -0.37086  -0.36037
 Alpha virt. eigenvalues --    0.02569   0.03511   0.06851   0.06957   0.09099
 Alpha virt. eigenvalues --    0.10833   0.11087   0.11930   0.17715   0.21581
 Alpha virt. eigenvalues --    0.22621   0.29103   0.60210   0.63244   0.64859

 Mulliken charges:
               1
     1  H    0.250786
     2  C   -0.690488
     3  Cl  -0.090556
     4  H    0.265130
     5  H    0.265130
 Sum of Mulliken charges =  -0.00000

 Dipole moment (field-independent basis, Debye):
    X=             -0.1563    Y=              2.5935    Z=             -0.0000  Tot=              2.5982
 Quadrupole moment (field-independent basis, Debye-Ang):
   XX=            -20.2263   YY=            -18.0811   ZZ=            -20.0226
   XY=              0.5188   XZ=             -0.0000   YZ=             -0.0000

 Normal termination of Gaussian 16 at Fri Sep 22 17:18:18 2023.
