 Gaussian 16, Revision A.03,
 Gaussian 16:  ES64L-G16RevA.03 25-Dec-2016

 ------------------------------------------------------------------
 # 6-31+g(d) scrf=(solvent=water,pcm) int=ultrafine m062x scf=tight
 ------------------------------------------------------------------

 ------------------------
 tmpdir/M2_conf_111_4.gjf
 ------------------------
 Symbolic Z-matrix:
 Charge =  0 Multiplicity = 1

                         Standard orientation:
 ---------------------------------------------------------------------
 Center     Atomic      Atomic             Coordinates (Angstroms)
 Number     Number       Type             X           Y           Z
 ---------------------------------------------------------------------
      1          6           0       -0.000000   -1.528322    0.000000
      2         17           0       -0.000000    0.868878    0.000000
      3          1           0       -1.033730   -1.867002    0.000000
      4          1           0        0.516870   -1.867002    0.895240
      5          1           0        0.516870   -1.867002   -0.895240
 ---------------------------------------------------------------------

 SCF Done:  E(RM062X) =  -499.990116131     A.U. after   11 cycles

 The electronic state is 1-A'.
 Alpha  occ. eigenvalues -- -102.65993 -10.65355  -9.80260  -7.52623  -7.52021
 Alpha  occ. eigenvalues --   -7.52021  -0.88070  -0.81166  -0.52005  -0.52005
 Alpha  occ. eigenvalues --   -0.40537  -0.36976  -0.36976
 Alpha virt. eigenvalues --   -0.08950   0.03678   0.06727   0.06946   0.06947
 Alpha virt. eigenvalues --    0.10284   0.10837   0.10837   0.16236   0.21458
 Alpha virt. eigenvalues --    0.21458   0.29829   0.60916   0.60917   0.62050

 Mulliken charges:
               1
     1  C   -0.522420
     2  Cl  -0.330622
     3  H    0.284358
     4  H    0.284342
     5  H    0.284342
 Sum of Mulliken charges =   0.00000

 Dipole moment (field-independent basis, Debye):
    X=              0.0000    Y=             -5.1615    Z=              0.0000  Tot=              5.1615
 Quadrupole moment (field-independent basis, Debye-Ang):
   XX=            -20.5518   YY=            -14.2537   ZZ=            -20.5518
   XY=              0.0002   XZ=              0.0000   YZ=             -0.0000

 Normal termination of Gaussian 16 at Fri Sep 22 17:20:40 2023.
