 Gaussian 16, Revision A.03,
 Gaussian 16:  ES64L-G16RevA.03 25-Dec-2016

 ------------------------------------------------------------------
 # 6-31+g(d) scrf=(solvent=water,pcm) int=ultrafine m062x scf=tight
 ------------------------------------------------------------------

 -----------------------
 tmpdir/M2_conf_95_6.gjf
 -----------------------
 Symbolic Z-matrix:
 Charge =  0 Multiplicity = 1

                         Standard orientation:
 ---------------------------------------------------------------------
 Center     Atomic      Atomic             Coordinates (Angstroms)
 Number     Number       Type             X           Y           Z
 ---------------------------------------------------------------------
      1          1           0       -1.043188   -0.002312   -0.373862
      2          6           0       -0.015332   -0.013518   -0.017920
      3          1           0        0.802015   -0.162268   -0.720150
      4          1           0        0.118799   -0.772461    0.749752
      5          1           0        0.214363    1.018152    0.451778
 ---------------------------------------------------------------------

 SCF Done:  E(RM062X) =  -40.4786021042     A.U. after    9 cycles

 The electronic state is 1-A.
 Alpha  occ. eigenvalues --  -10.53209  -0.78230  -0.47516  -0.45177  -0.43279
 Alpha virt. eigenvalues --    0.03921   0.07046   0.07211   0.07388   0.20660
 Alpha virt. eigenvalues --    0.22636   0.24514   0.30565   0.68963   0.69271
 Alpha virt. eigenvalues --    0.70535   0.95210   0.98916   1.03051   1.11219

 Mulliken charges:
               1
     1  H    0.215618
     2  C   -0.831986
     3  H    0.213442
     4  H    0.210578
     5  H    0.192348
 Sum of Mulliken charges =  -0.00000

 Dipole moment (field-independent basis, Debye):
    X=              0.0497    Y=             -0.0201    Z=              0.0355  Tot=              0.0643
 Quadrupole moment (field-independent basis, Debye-Ang):
   XX=             -8.1394   YY=             -8.6012   ZZ=             -8.8284
   XY=             -0.0425   XZ=             -0.0101   YZ=             -0.0913

 Normal termination of Gaussian 16 at Fri Sep 22 17:18:45 2023.
