 Gaussian 16, Revision A.03,
 Gaussian 16:  ES64L-G16RevA.03 25-Dec-2016

 ------------------------------------------------------------------
 # 6-31+g(d) scrf=(solvent=water,pcm) int=ultrafine m062x scf=tight
 ------------------------------------------------------------------

 -----------------------
 tmpdir/M2_conf_72_4.gjf
 -----------------------
 Symbolic Z-matrix:
 Charge =  0 Multiplicity = 1

                         Standard orientation:
 ---------------------------------------------------------------------
 Center     Atomic      Atomic             Coordinates (Angstroms)
 Number     Number       Type             X           Y           Z
 ---------------------------------------------------------------------
      1          6           0       -0.000000   -1.342106    0.000000
      2         17           0       -0.000000    0.770294    0.000000
      3          1           0       -1.033730   -1.680786    0.000000
      4          1           0        0.516870   -1.680786    0.895240
      5          1           0        0.516870   -1.680786   -0.895240
 ---------------------------------------------------------------------

 SCF Done:  E(RM062X) =  -500.026425850     A.U. after   10 cycles

 The electronic state is 1-A'.
 Alpha  occ. eigenvalues -- -102.66421 -10.62997  -9.80818  -7.53199  -7.52568
 Alpha  occ. eigenvalues --   -7.52568  -0.90460  -0.79284  -0.51251  -0.51250
 Alpha  occ. eigenvalues --   -0.43564  -0.37327  -0.37326
 Alpha virt. eigenvalues --   -0.03322   0.03660   0.07034   0.07035   0.07490
 Alpha virt. eigenvalues --    0.09879   0.10936   0.10936   0.16917   0.21836
 Alpha virt. eigenvalues --    0.21836   0.29931   0.61194   0.61616   0.61617

 Mulliken charges:
               1
     1  C   -0.613287
     2  Cl  -0.213930
     3  H    0.275737
     4  H    0.275739
     5  H    0.275739
 Sum of Mulliken charges =   0.00000

 Dipole moment (field-independent basis, Debye):
    X=              0.0003    Y=             -3.8366    Z=              0.0000  Tot=              3.8366
 Quadrupole moment (field-independent basis, Debye-Ang):
   XX=            -20.3671   YY=            -16.2110   ZZ=            -20.3670
   XY=              0.0002   XZ=              0.0000   YZ=             -0.0000

 Normal termination of Gaussian 16 at Fri Sep 22 17:16:05 2023.
