 Gaussian 16, Revision A.03,
 Gaussian 16:  ES64L-G16RevA.03 25-Dec-2016

 ------------------------------------------------------------------
 # 6-31+g(d) scrf=(solvent=water,pcm) int=ultrafine m062x scf=tight
 ------------------------------------------------------------------

 -----------------------
 tmpdir/M2_conf_33_6.gjf
 -----------------------
 Symbolic Z-matrix:
 Charge =  0 Multiplicity = 1

                         Standard orientation:
 ---------------------------------------------------------------------
 Center     Atomic      Atomic             Coordinates (Angstroms)
 Number     Number       Type             X           Y           Z
 ---------------------------------------------------------------------
      1          1           0       -0.353911    0.966508   -0.370215
      2          6           0       -0.014687    0.000615   -0.002402
      3          1           0       -0.250591   -0.799911   -0.700124
      4          1           0       -0.443053   -0.212227    0.974586
      5          1           0        1.135678    0.041943    0.110166
 ---------------------------------------------------------------------

 SCF Done:  E(RM062X) =  -40.4813027409     A.U. after    9 cycles

 The electronic state is 1-A.
 Alpha  occ. eigenvalues --  -10.53192  -0.78172  -0.46130  -0.45873  -0.44046
 Alpha virt. eigenvalues --    0.03928   0.07144   0.07161   0.07354   0.21170
 Alpha virt. eigenvalues --    0.23253   0.23442   0.30693   0.68984   0.69004
 Alpha virt. eigenvalues --    0.70528   0.96452   1.00306   1.00758   1.10749

 Mulliken charges:
               1
     1  H    0.211820
     2  C   -0.828181
     3  H    0.211578
     4  H    0.211384
     5  H    0.193399
 Sum of Mulliken charges =   0.00000

 Dipole moment (field-independent basis, Debye):
    X=             -0.0232    Y=             -0.0061    Z=              0.0016  Tot=              0.0240
 Quadrupole moment (field-independent basis, Debye-Ang):
   XX=             -8.6003   YY=             -8.4419   ZZ=             -8.5008
   XY=             -0.0103   XZ=             -0.0236   YZ=             -0.0015

 Normal termination of Gaussian 16 at Fri Sep 22 17:11:45 2023.
