 Gaussian 16, Revision A.03,
 Gaussian 16:  ES64L-G16RevA.03 25-Dec-2016

 ------------------------------------------------------------------
 # 6-31+g(d) scrf=(solvent=water,pcm) int=ultrafine m062x scf=tight
 ------------------------------------------------------------------

 -----------------------
 tmpdir/M2_conf_30_2.gjf
 -----------------------
 Symbolic Z-matrix:
 Charge =  0 Multiplicity = 1

                         Standard orientation:
 ---------------------------------------------------------------------
 Center     Atomic      Atomic             Coordinates (Angstroms)
 Number     Number       Type             X           Y           Z
 ---------------------------------------------------------------------
      1          6           0        0.014176    0.000012    0.000900
      2          1           0        0.316503    0.000397    1.041262
      3          1           0        0.371427   -0.894677   -0.504293
      4          1           0        0.368771    0.895812   -0.504183
      5          1           0       -1.141760   -0.001603   -0.038184
 ---------------------------------------------------------------------

 SCF Done:  E(RM062X) =  -40.4813188353     A.U. after    9 cycles

 The electronic state is 1-A.
 Alpha  occ. eigenvalues --  -10.53144  -0.78210  -0.46046  -0.45973  -0.44095
 Alpha virt. eigenvalues --    0.03930   0.07147   0.07156   0.07351   0.21204
 Alpha virt. eigenvalues --    0.23334   0.23429   0.30745   0.68904   0.69003
 Alpha virt. eigenvalues --    0.70528   0.96537   1.00498   1.00689   1.10813

 Mulliken charges:
               1
     1  C   -0.828401
     2  H    0.212311
     3  H    0.211349
     4  H    0.211349
     5  H    0.193392
 Sum of Mulliken charges =   0.00000

 Dipole moment (field-independent basis, Debye):
    X=              0.0272    Y=              0.0001    Z=              0.0036  Tot=              0.0275
 Quadrupole moment (field-independent basis, Debye-Ang):
   XX=             -8.5894   YY=             -8.4700   ZZ=             -8.4726
   XY=             -0.0004   XZ=             -0.0046   YZ=             -0.0000

 Normal termination of Gaussian 16 at Fri Sep 22 17:11:24 2023.
