 Gaussian 16, Revision A.03,
 Gaussian 16:  ES64L-G16RevA.03 25-Dec-2016

 ------------------------------------------------------------------
 # 6-31+g(d) scrf=(solvent=water,pcm) int=ultrafine m062x scf=tight
 ------------------------------------------------------------------

 -----------------------
 tmpdir/M2_conf_48_9.gjf
 -----------------------
 Symbolic Z-matrix:
 Charge =  0 Multiplicity = 1

                         Standard orientation:
 ---------------------------------------------------------------------
 Center     Atomic      Atomic             Coordinates (Angstroms)
 Number     Number       Type             X           Y           Z
 ---------------------------------------------------------------------
      1          1           0       -1.052196    1.401677   -0.000000
      2          6           0        0.002737    1.136302   -0.000000
      3         17           0        0.002737   -0.661197    0.000000
      4          1           0        0.494619    1.510428    0.895200
      5          1           0        0.494619    1.510428   -0.895200
 ---------------------------------------------------------------------

 SCF Done:  E(RM062X) =  -500.050254723     A.U. after   10 cycles

 The electronic state is 1-A'.
 Alpha  occ. eigenvalues -- -102.66262 -10.60050  -9.80993  -7.53386  -7.52737
 Alpha  occ. eigenvalues --   -7.52733  -0.95398  -0.76691  -0.51851  -0.51709
 Alpha  occ. eigenvalues --   -0.47369  -0.36833  -0.36666
 Alpha virt. eigenvalues --    0.02803   0.03489   0.06908   0.06932   0.09128
 Alpha virt. eigenvalues --    0.11085   0.11100   0.12195   0.17788   0.21802
 Alpha virt. eigenvalues --    0.22099   0.29702   0.60600   0.63618   0.63933

 Mulliken charges:
               1
     1  H    0.260250
     2  C   -0.701214
     3  Cl  -0.085031
     4  H    0.262997
     5  H    0.262997
 Sum of Mulliken charges =   0.00000

 Dipole moment (field-independent basis, Debye):
    X=             -0.0354    Y=              2.6296    Z=              0.0000  Tot=              2.6298
 Quadrupole moment (field-independent basis, Debye-Ang):
   XX=            -20.0608   YY=            -18.1304   ZZ=            -20.0430
   XY=              0.1317   XZ=             -0.0000   YZ=              0.0000

 Normal termination of Gaussian 16 at Fri Sep 22 17:13:25 2023.
