 Gaussian 16, Revision A.03,
 Gaussian 16:  ES64L-G16RevA.03 25-Dec-2016

 ------------------------------------------------------------------
 # 6-31+g(d) scrf=(solvent=water,pcm) int=ultrafine m062x scf=tight
 ------------------------------------------------------------------

 ------------------------
 tmpdir/M2_conf_35_10.gjf
 ------------------------
 Symbolic Z-matrix:
 Charge =  0 Multiplicity = 1

                         Standard orientation:
 ---------------------------------------------------------------------
 Center     Atomic      Atomic             Coordinates (Angstroms)
 Number     Number       Type             X           Y           Z
 ---------------------------------------------------------------------
      1          1           0        1.040364    1.450993    0.000000
      2          6           0       -0.000898    1.136218    0.000000
      3         17           0       -0.000898   -0.661283   -0.000000
      4          1           0       -0.509857    1.486758    0.895200
      5          1           0       -0.509857    1.486758   -0.895200
 ---------------------------------------------------------------------

 SCF Done:  E(RM062X) =  -500.050826179     A.U. after   10 cycles

 The electronic state is 1-A'.
 Alpha  occ. eigenvalues -- -102.66259 -10.60051  -9.80989  -7.53382  -7.52732
 Alpha  occ. eigenvalues --   -7.52731  -0.95383  -0.76693  -0.51777  -0.51737
 Alpha  occ. eigenvalues --   -0.47405  -0.36783  -0.36734
 Alpha virt. eigenvalues --    0.02817   0.03489   0.06917   0.06925   0.09130
 Alpha virt. eigenvalues --    0.11097   0.11100   0.12219   0.17792   0.21889
 Alpha virt. eigenvalues --    0.21991   0.29740   0.60629   0.63706   0.63800

 Mulliken charges:
               1
     1  H    0.261618
     2  C   -0.701895
     3  Cl  -0.084654
     4  H    0.262465
     5  H    0.262465
 Sum of Mulliken charges =   0.00000

 Dipole moment (field-independent basis, Debye):
    X=              0.0114    Y=              2.6310    Z=              0.0000  Tot=              2.6310
 Quadrupole moment (field-independent basis, Debye-Ang):
   XX=            -20.0498   YY=            -18.1337   ZZ=            -20.0463
   XY=             -0.0434   XZ=              0.0000   YZ=             -0.0000

 Normal termination of Gaussian 16 at Fri Sep 22 17:11:59 2023.
