 Gaussian 16, Revision A.03,
 Gaussian 16:  ES64L-G16RevA.03 25-Dec-2016

 ------------------------------------------------------------------
 # 6-31+g(d) scrf=(solvent=water,pcm) int=ultrafine m062x scf=tight
 ------------------------------------------------------------------

 -----------------------
 tmpdir/M2_conf_45_5.gjf
 -----------------------
 Symbolic Z-matrix:
 Charge =  0 Multiplicity = 1

                         Standard orientation:
 ---------------------------------------------------------------------
 Center     Atomic      Atomic             Coordinates (Angstroms)
 Number     Number       Type             X           Y           Z
 ---------------------------------------------------------------------
      1          1           0        0.664180    0.781285   -0.390061
      2          6           0        0.015359   -0.003230   -0.006817
      3          1           0       -0.191540   -0.788080   -0.731047
      4          1           0        0.436718   -0.447321    0.892374
      5          1           0       -1.001512    0.473496    0.269634
 ---------------------------------------------------------------------

 SCF Done:  E(RM062X) =  -40.4810502922     A.U. after    9 cycles

 The electronic state is 1-A.
 Alpha  occ. eigenvalues --  -10.53195  -0.78177  -0.46451  -0.45666  -0.43929
 Alpha virt. eigenvalues --    0.03927   0.07122   0.07174   0.07360   0.21102
 Alpha virt. eigenvalues --    0.23087   0.23677   0.30673   0.68970   0.69037
 Alpha virt. eigenvalues --    0.70527   0.96267   0.99919   1.01309   1.10790

 Mulliken charges:
               1
     1  H    0.212506
     2  C   -0.828567
     3  H    0.211799
     4  H    0.211144
     5  H    0.193118
 Sum of Mulliken charges =  -0.00000

 Dipole moment (field-independent basis, Debye):
    X=              0.0099    Y=             -0.0228    Z=              0.0075  Tot=              0.0260
 Quadrupole moment (field-independent basis, Debye-Ang):
   XX=             -8.5497   YY=             -8.4252   ZZ=             -8.5713
   XY=              0.0981   XZ=              0.0504   YZ=             -0.0263

 Normal termination of Gaussian 16 at Fri Sep 22 17:13:04 2023.
