 Gaussian 16, Revision A.03,
 Gaussian 16:  ES64L-G16RevA.03 25-Dec-2016

 ------------------------------------------------------------------
 # 6-31+g(d) scrf=(solvent=water,pcm) int=ultrafine m062x scf=tight
 ------------------------------------------------------------------

 ------------------------
 tmpdir/M2_conf_107_9.gjf
 ------------------------
 Symbolic Z-matrix:
 Charge =  0 Multiplicity = 1

                         Standard orientation:
 ---------------------------------------------------------------------
 Center     Atomic      Atomic             Coordinates (Angstroms)
 Number     Number       Type             X           Y           Z
 ---------------------------------------------------------------------
      1          1           0       -1.069320    1.053124   -0.000000
      2          6           0        0.015067    1.139228   -0.000000
      3         17           0        0.015067   -0.658272    0.000000
      4          1           0        0.361389    1.651067    0.895200
      5          1           0        0.361389    1.651067   -0.895200
 ---------------------------------------------------------------------

 SCF Done:  E(RM062X) =  -500.029529436     A.U. after   11 cycles

 The electronic state is 1-A'.
 Alpha  occ. eigenvalues -- -102.66399 -10.59930  -9.81163  -7.53562  -7.52900
 Alpha  occ. eigenvalues --   -7.52880  -0.95989  -0.76566  -0.53178  -0.51594
 Alpha  occ. eigenvalues --   -0.46515  -0.37222  -0.35564
 Alpha virt. eigenvalues --    0.02383   0.03528   0.06820   0.06965   0.09075
 Alpha virt. eigenvalues --    0.10614   0.11073   0.11827   0.17652   0.21523
 Alpha virt. eigenvalues --    0.22841   0.28742   0.60001   0.63099   0.65163

 Mulliken charges:
               1
     1  H    0.245675
     2  C   -0.684769
     3  Cl  -0.092833
     4  H    0.265963
     5  H    0.265963
 Sum of Mulliken charges =  -0.00000

 Dipole moment (field-independent basis, Debye):
    X=             -0.2141    Y=              2.5526    Z=              0.0000  Tot=              2.5616
 Quadrupole moment (field-independent basis, Debye-Ang):
   XX=            -20.3539   YY=            -18.0496   ZZ=            -20.0096
   XY=              0.6536   XZ=              0.0000   YZ=              0.0000

 Normal termination of Gaussian 16 at Fri Sep 22 17:20:11 2023.
