 Gaussian 16, Revision A.03,
 Gaussian 16:  ES64L-G16RevA.03 25-Dec-2016

 ------------------------------------------------------------------
 # 6-31+g(d) scrf=(solvent=water,pcm) int=ultrafine m062x scf=tight
 ------------------------------------------------------------------

 -----------------------
 tmpdir/M2_conf_43_4.gjf
 -----------------------
 Symbolic Z-matrix:
 Charge =  0 Multiplicity = 1

                         Standard orientation:
 ---------------------------------------------------------------------
 Center     Atomic      Atomic             Coordinates (Angstroms)
 Number     Number       Type             X           Y           Z
 ---------------------------------------------------------------------
      1          6           0       -0.000000   -1.203164    0.000000
      2         17           0       -0.000000    0.696736    0.000000
      3          1           0       -1.033730   -1.541844    0.000000
      4          1           0        0.516870   -1.541844    0.895240
      5          1           0        0.516870   -1.541844   -0.895240
 ---------------------------------------------------------------------

 SCF Done:  E(RM062X) =  -500.047354336     A.U. after   10 cycles

 The electronic state is 1-A'.
 Alpha  occ. eigenvalues -- -102.66396 -10.61035  -9.80986  -7.53375  -7.52732
 Alpha  occ. eigenvalues --   -7.52732  -0.93401  -0.77602  -0.51341  -0.51340
 Alpha  occ. eigenvalues --   -0.46139  -0.37112  -0.37112
 Alpha virt. eigenvalues --    0.01252   0.03561   0.06992   0.06992   0.08987
 Alpha virt. eigenvalues --    0.10215   0.11039   0.11039   0.17491   0.21960
 Alpha virt. eigenvalues --    0.21960   0.29832   0.61071   0.62887   0.62887

 Mulliken charges:
               1
     1  C   -0.676842
     2  Cl  -0.125070
     3  H    0.267319
     4  H    0.267296
     5  H    0.267296
 Sum of Mulliken charges =  -0.00000

 Dipole moment (field-independent basis, Debye):
    X=             -0.0001    Y=             -2.9897    Z=             -0.0000  Tot=              2.9897
 Quadrupole moment (field-independent basis, Debye-Ang):
   XX=            -20.1668   YY=            -17.5392   ZZ=            -20.1669
   XY=              0.0002   XZ=             -0.0000   YZ=              0.0000

 Normal termination of Gaussian 16 at Fri Sep 22 17:12:52 2023.
