 Gaussian 16, Revision A.03,
 Gaussian 16:  ES64L-G16RevA.03 25-Dec-2016

 ------------------------------------------------------------------
 # 6-31+g(d) scrf=(solvent=water,pcm) int=ultrafine m062x scf=tight
 ------------------------------------------------------------------

 ------------------------
 tmpdir/M2_conf_121_4.gjf
 ------------------------
 Symbolic Z-matrix:
 Charge =  0 Multiplicity = 1

                         Standard orientation:
 ---------------------------------------------------------------------
 Center     Atomic      Atomic             Coordinates (Angstroms)
 Number     Number       Type             X           Y           Z
 ---------------------------------------------------------------------
      1          6           0       -0.000000   -1.574025    0.000000
      2         17           0       -0.000000    0.893075    0.000000
      3          1           0       -1.033730   -1.912705    0.000000
      4          1           0        0.516870   -1.912705    0.895240
      5          1           0        0.516870   -1.912705   -0.895240
 ---------------------------------------------------------------------

 SCF Done:  E(RM062X) =  -499.981367670     A.U. after   11 cycles

 The electronic state is 1-A'.
 Alpha  occ. eigenvalues -- -102.65820 -10.65883  -9.80072  -7.52430  -7.51837
 Alpha  occ. eigenvalues --   -7.51837  -0.87645  -0.81574  -0.52265  -0.52265
 Alpha  occ. eigenvalues --   -0.39896  -0.36832  -0.36832
 Alpha virt. eigenvalues --   -0.10069   0.03667   0.06638   0.06908   0.06909
 Alpha virt. eigenvalues --    0.10384   0.10818   0.10819   0.16087   0.21342
 Alpha virt. eigenvalues --    0.21343   0.29764   0.60880   0.60882   0.62309

 Mulliken charges:
               1
     1  C   -0.501939
     2  Cl  -0.357160
     3  H    0.286377
     4  H    0.286361
     5  H    0.286361
 Sum of Mulliken charges =  -0.00000

 Dipole moment (field-independent basis, Debye):
    X=             -0.0000    Y=             -5.5176    Z=             -0.0000  Tot=              5.5176
 Quadrupole moment (field-independent basis, Debye-Ang):
   XX=            -20.5868   YY=            -13.7430   ZZ=            -20.5867
   XY=              0.0002   XZ=             -0.0000   YZ=              0.0000

 Normal termination of Gaussian 16 at Fri Sep 22 17:21:50 2023.
