 Gaussian 16, Revision A.03,
 Gaussian 16:  ES64L-G16RevA.03 25-Dec-2016

 ------------------------------------------------------------------
 # 6-31+g(d) scrf=(solvent=water,pcm) int=ultrafine m062x scf=tight
 ------------------------------------------------------------------

 ------------------------
 tmpdir/M2_conf_118_6.gjf
 ------------------------
 Symbolic Z-matrix:
 Charge =  0 Multiplicity = 1

                         Standard orientation:
 ---------------------------------------------------------------------
 Center     Atomic      Atomic             Coordinates (Angstroms)
 Number     Number       Type             X           Y           Z
 ---------------------------------------------------------------------
      1          1           0       -1.036160    0.008806   -0.383640
      2          6           0       -0.012993   -0.013475   -0.014938
      3          1           0        0.784648   -0.205068   -0.729344
      4          1           0        0.095358   -0.750282    0.777956
      5          1           0        0.234111    1.027397    0.424657
 ---------------------------------------------------------------------

 SCF Done:  E(RM062X) =  -40.4795873624     A.U. after    9 cycles

 The electronic state is 1-A.
 Alpha  occ. eigenvalues --  -10.53204  -0.78208  -0.47205  -0.45285  -0.43513
 Alpha virt. eigenvalues --    0.03924   0.07068   0.07202   0.07379   0.20830
 Alpha virt. eigenvalues --    0.22746   0.24260   0.30602   0.68959   0.69181
 Alpha virt. eigenvalues --    0.70531   0.95596   0.99154   1.02567   1.11038

 Mulliken charges:
               1
     1  H    0.214562
     2  C   -0.830592
     3  H    0.212787
     4  H    0.210706
     5  H    0.192538
 Sum of Mulliken charges =  -0.00000

 Dipole moment (field-independent basis, Debye):
    X=              0.0385    Y=             -0.0209    Z=              0.0268  Tot=              0.0513
 Quadrupole moment (field-independent basis, Debye-Ang):
   XX=             -8.2106   YY=             -8.5975   ZZ=             -8.7523
   XY=             -0.0473   XZ=             -0.0125   YZ=             -0.0858

 Normal termination of Gaussian 16 at Fri Sep 22 17:21:27 2023.
