 Gaussian 16, Revision A.03,
 Gaussian 16:  ES64L-G16RevA.03 25-Dec-2016

 ------------------------------------------------------------------
 # 6-31+g(d) scrf=(solvent=water,pcm) int=ultrafine m062x scf=tight
 ------------------------------------------------------------------

 -----------------------
 tmpdir/M2_conf_72_7.gjf
 -----------------------
 Symbolic Z-matrix:
 Charge =  0 Multiplicity = 1

                         Standard orientation:
 ---------------------------------------------------------------------
 Center     Atomic      Atomic             Coordinates (Angstroms)
 Number     Number       Type             X           Y           Z
 ---------------------------------------------------------------------
      1          1           0        1.071298    1.278676    0.000000
      2          6           0       -0.007220    1.136878    0.000000
      3         17           0       -0.007220   -0.660619   -0.000000
      4          1           0       -0.452616    1.565294    0.895200
      5          1           0       -0.452616    1.565294   -0.895200
 ---------------------------------------------------------------------

 SCF Done:  E(RM062X) =  -500.046345900     A.U. after   10 cycles

 The electronic state is 1-A'.
 Alpha  occ. eigenvalues -- -102.66282 -10.60035  -9.81018  -7.53412  -7.52763
 Alpha  occ. eigenvalues --   -7.52753  -0.95498  -0.76670  -0.52180  -0.51655
 Alpha  occ. eigenvalues --   -0.47147  -0.36957  -0.36411
 Alpha virt. eigenvalues --    0.02718   0.03498   0.06882   0.06946   0.09117
 Alpha virt. eigenvalues --    0.11001   0.11097   0.12072   0.17763   0.21660
 Alpha virt. eigenvalues --    0.22368   0.29464   0.60436   0.63418   0.64392

 Mulliken charges:
               1
     1  H    0.255963
     2  C   -0.696890
     3  Cl  -0.087376
     4  H    0.264151
     5  H    0.264151
 Sum of Mulliken charges =  -0.00000

 Dipole moment (field-independent basis, Debye):
    X=              0.0961    Y=              2.6185    Z=             -0.0000  Tot=              2.6202
 Quadrupole moment (field-independent basis, Debye-Ang):
   XX=            -20.1229   YY=            -18.1114   ZZ=            -20.0338
   XY=             -0.3403   XZ=             -0.0000   YZ=              0.0000

 Normal termination of Gaussian 16 at Fri Sep 22 17:16:05 2023.
