 Gaussian 16, Revision A.03,
 Gaussian 16:  ES64L-G16RevA.03 25-Dec-2016

 ------------------------------------------------------------------
 # 6-31+g(d) scrf=(solvent=water,pcm) int=ultrafine m062x scf=tight
 ------------------------------------------------------------------

 -----------------------
 tmpdir/M2_conf_92_9.gjf
 -----------------------
 Symbolic Z-matrix:
 Charge =  0 Multiplicity = 1

                         Standard orientation:
 ---------------------------------------------------------------------
 Center     Atomic      Atomic             Coordinates (Angstroms)
 Number     Number       Type             X           Y           Z
 ---------------------------------------------------------------------
      1          1           0       -1.076063    1.153922    0.000000
      2          6           0        0.011620    1.137976    0.000000
      3         17           0        0.011620   -0.659527   -0.000000
      4          1           0        0.404406    1.615089    0.895200
      5          1           0        0.404406    1.615089   -0.895200
 ---------------------------------------------------------------------

 SCF Done:  E(RM062X) =  -500.038670676     A.U. after   11 cycles

 The electronic state is 1-A'.
 Alpha  occ. eigenvalues -- -102.66330 -10.59995  -9.81078  -7.53475  -7.52820
 Alpha  occ. eigenvalues --   -7.52804  -0.95711  -0.76625  -0.52682  -0.51618
 Alpha  occ. eigenvalues --   -0.46808  -0.37094  -0.36013
 Alpha virt. eigenvalues --    0.02559   0.03512   0.06850   0.06957   0.09098
 Alpha virt. eigenvalues --    0.10821   0.11086   0.11923   0.17712   0.21577
 Alpha virt. eigenvalues --    0.22634   0.29082   0.60197   0.63235   0.64882

 Mulliken charges:
               1
     1  H    0.250486
     2  C   -0.690123
     3  Cl  -0.090724
     4  H    0.265180
     5  H    0.265180
 Sum of Mulliken charges =  -0.00000

 Dipole moment (field-independent basis, Debye):
    X=             -0.1597    Y=              2.5917    Z=             -0.0000  Tot=              2.5966
 Quadrupole moment (field-independent basis, Debye-Ang):
   XX=            -20.2330   YY=            -18.0793   ZZ=            -20.0219
   XY=              0.5276   XZ=             -0.0000   YZ=             -0.0000

 Normal termination of Gaussian 16 at Fri Sep 22 17:18:25 2023.
