 Gaussian 16, Revision A.03,
 Gaussian 16:  ES64L-G16RevA.03 25-Dec-2016

 ------------------------------------------------------------------
 # 6-31+g(d) scrf=(solvent=water,pcm) int=ultrafine m062x scf=tight
 ------------------------------------------------------------------

 -----------------------
 tmpdir/M2_conf_80_9.gjf
 -----------------------
 Symbolic Z-matrix:
 Charge =  0 Multiplicity = 1

                         Standard orientation:
 ---------------------------------------------------------------------
 Center     Atomic      Atomic             Coordinates (Angstroms)
 Number     Number       Type             X           Y           Z
 ---------------------------------------------------------------------
      1          1           0       -1.074904    1.229599   -0.000000
      2          6           0        0.008968    1.137249   -0.000000
      3         17           0        0.008968   -0.660250    0.000000
      4          1           0        0.434315    1.585578    0.895200
      5          1           0        0.434315    1.585578   -0.895200
 ---------------------------------------------------------------------

 SCF Done:  E(RM062X) =  -500.043784402     A.U. after   11 cycles

 The electronic state is 1-A'.
 Alpha  occ. eigenvalues -- -102.66296 -10.60023  -9.81037  -7.53432  -7.52781
 Alpha  occ. eigenvalues --   -7.52768  -0.95567  -0.76655  -0.52361  -0.51639
 Alpha  occ. eigenvalues --   -0.47022  -0.37008  -0.36273
 Alpha virt. eigenvalues --    0.02664   0.03503   0.06870   0.06951   0.09111
 Alpha virt. eigenvalues --    0.10942   0.11093   0.12011   0.17746   0.21623
 Alpha virt. eigenvalues --    0.22474   0.29325   0.60346   0.63344   0.64594

 Mulliken charges:
               1
     1  H    0.253917
     2  C   -0.694378
     3  Cl  -0.088674
     4  H    0.264567
     5  H    0.264567
 Sum of Mulliken charges =   0.00000

 Dipole moment (field-independent basis, Debye):
    X=             -0.1208    Y=              2.6102    Z=              0.0000  Tot=              2.6130
 Quadrupole moment (field-independent basis, Debye-Ang):
   XX=            -20.1608   YY=            -18.0999   ZZ=            -20.0295
   XY=              0.4175   XZ=             -0.0000   YZ=             -0.0000

 Normal termination of Gaussian 16 at Fri Sep 22 17:17:01 2023.
