 Gaussian 16, Revision A.03,
 Gaussian 16:  ES64L-G16RevA.03 25-Dec-2016

 ------------------------------------------------------------------
 # 6-31+g(d) scrf=(solvent=water,pcm) int=ultrafine m062x scf=tight
 ------------------------------------------------------------------

 ------------------------
 tmpdir/M2_conf_107_6.gjf
 ------------------------
 Symbolic Z-matrix:
 Charge =  0 Multiplicity = 1

                         Standard orientation:
 ---------------------------------------------------------------------
 Center     Atomic      Atomic             Coordinates (Angstroms)
 Number     Number       Type             X           Y           Z
 ---------------------------------------------------------------------
      1          1           0       -1.040894   -0.000112   -0.377199
      2          6           0       -0.014556   -0.013517   -0.016978
      3          1           0        0.797068   -0.173723   -0.723314
      4          1           0        0.112451   -0.766193    0.758040
      5          1           0        0.218710    1.021128    0.444341
 ---------------------------------------------------------------------

 SCF Done:  E(RM062X) =  -40.4789420668     A.U. after    9 cycles

 The electronic state is 1-A.
 Alpha  occ. eigenvalues --  -10.53207  -0.78222  -0.47417  -0.45209  -0.43358
 Alpha virt. eigenvalues --    0.03922   0.07053   0.07209   0.07385   0.20718
 Alpha virt. eigenvalues --    0.22669   0.24432   0.30577   0.68961   0.69240
 Alpha virt. eigenvalues --    0.70533   0.95340   0.98987   1.02900   1.11155

 Mulliken charges:
               1
     1  H    0.215265
     2  C   -0.831500
     3  H    0.213214
     4  H    0.210615
     5  H    0.192406
 Sum of Mulliken charges =   0.00000

 Dipole moment (field-independent basis, Debye):
    X=              0.0462    Y=             -0.0203    Z=              0.0327  Tot=              0.0601
 Quadrupole moment (field-independent basis, Debye-Ang):
   XX=             -8.1620   YY=             -8.6000   ZZ=             -8.8040
   XY=             -0.0436   XZ=             -0.0108   YZ=             -0.0898

 Normal termination of Gaussian 16 at Fri Sep 22 17:20:09 2023.
