 Gaussian 16, Revision A.03,
 Gaussian 16:  ES64L-G16RevA.03 25-Dec-2016

 ------------------------------------------------------------------
 # 6-31+g(d) scrf=(solvent=water,pcm) int=ultrafine m062x scf=tight
 ------------------------------------------------------------------

 -----------------------
 tmpdir/M2_conf_86_8.gjf
 -----------------------
 Symbolic Z-matrix:
 Charge =  0 Multiplicity = 1

                         Standard orientation:
 ---------------------------------------------------------------------
 Center     Atomic      Atomic             Coordinates (Angstroms)
 Number     Number       Type             X           Y           Z
 ---------------------------------------------------------------------
      1          1           0        1.042221   -0.001496   -0.375282
      2          6           0        0.015004   -0.013519   -0.017526
      3          1           0       -0.799993   -0.166868   -0.721497
      4          1           0       -0.116234   -0.769915    0.753153
      5          1           0       -0.216019    1.019391    0.448783
 ---------------------------------------------------------------------

 SCF Done:  E(RM062X) =  -40.4787474531     A.U. after    9 cycles

 The electronic state is 1-A.
 Alpha  occ. eigenvalues --  -10.53208  -0.78227  -0.47474  -0.45190  -0.43313
 Alpha virt. eigenvalues --    0.03922   0.07049   0.07210   0.07387   0.20685
 Alpha virt. eigenvalues --    0.22649   0.24480   0.30570   0.68962   0.69258
 Alpha virt. eigenvalues --    0.70534   0.95265   0.98945   1.02988   1.11192

 Mulliken charges:
               1
     1  H    0.215469
     2  C   -0.831778
     3  H    0.213344
     4  H    0.210593
     5  H    0.192372
 Sum of Mulliken charges =  -0.00000

 Dipole moment (field-independent basis, Debye):
    X=             -0.0483    Y=             -0.0201    Z=              0.0343  Tot=              0.0625
 Quadrupole moment (field-independent basis, Debye-Ang):
   XX=             -8.1489   YY=             -8.6007   ZZ=             -8.8182
   XY=              0.0429   XZ=              0.0104   YZ=             -0.0907

 Normal termination of Gaussian 16 at Fri Sep 22 17:17:41 2023.
