 Gaussian 16, Revision A.03,
 Gaussian 16:  ES64L-G16RevA.03 25-Dec-2016

 ------------------------------------------------------------------
 # 6-31+g(d) scrf=(solvent=water,pcm) int=ultrafine m062x scf=tight
 ------------------------------------------------------------------

 ------------------------
 tmpdir/M2_conf_114_4.gjf
 ------------------------
 Symbolic Z-matrix:
 Charge =  0 Multiplicity = 1

                         Standard orientation:
 ---------------------------------------------------------------------
 Center     Atomic      Atomic             Coordinates (Angstroms)
 Number     Number       Type             X           Y           Z
 ---------------------------------------------------------------------
      1          6           0       -0.000000   -1.542052    0.000000
      2         17           0       -0.000000    0.876148    0.000000
      3          1           0       -1.033730   -1.880732    0.000000
      4          1           0        0.516870   -1.880732    0.895240
      5          1           0        0.516870   -1.880732   -0.895240
 ---------------------------------------------------------------------

 SCF Done:  E(RM062X) =  -499.987463144     A.U. after   11 cycles

 The electronic state is 1-A'.
 Alpha  occ. eigenvalues -- -102.65944 -10.65516  -9.80205  -7.52567  -7.51967
 Alpha  occ. eigenvalues --   -7.51967  -0.87938  -0.81291  -0.52082  -0.52081
 Alpha  occ. eigenvalues --   -0.40341  -0.36934  -0.36934
 Alpha virt. eigenvalues --   -0.09298   0.03675   0.06698   0.06935   0.06936
 Alpha virt. eigenvalues --    0.10314   0.10831   0.10831   0.16191   0.21424
 Alpha virt. eigenvalues --    0.21424   0.29811   0.60900   0.60902   0.62131

 Mulliken charges:
               1
     1  C   -0.516166
     2  Cl  -0.338690
     3  H    0.284962
     4  H    0.284947
     5  H    0.284947
 Sum of Mulliken charges =  -0.00000

 Dipole moment (field-independent basis, Debye):
    X=              0.0000    Y=             -5.2672    Z=             -0.0000  Tot=              5.2672
 Quadrupole moment (field-independent basis, Debye-Ang):
   XX=            -20.5627   YY=            -14.1015   ZZ=            -20.5626
   XY=              0.0002   XZ=             -0.0000   YZ=              0.0000

 Normal termination of Gaussian 16 at Fri Sep 22 17:21:01 2023.
