 Gaussian 16, Revision A.03,
 Gaussian 16:  ES64L-G16RevA.03 25-Dec-2016

 ------------------------------------------------------------------
 # 6-31+g(d) scrf=(solvent=water,pcm) int=ultrafine m062x scf=tight
 ------------------------------------------------------------------

 -------------------------
 tmpdir/M2_conf_103_10.gjf
 -------------------------
 Symbolic Z-matrix:
 Charge =  0 Multiplicity = 1

                         Standard orientation:
 ---------------------------------------------------------------------
 Center     Atomic      Atomic             Coordinates (Angstroms)
 Number     Number       Type             X           Y           Z
 ---------------------------------------------------------------------
      1          1           0        1.071901    1.078344    0.000000
      2          6           0       -0.014213    1.138880    0.000000
      3         17           0       -0.014213   -0.658615   -0.000000
      4          1           0       -0.372497    1.642419    0.895200
      5          1           0       -0.372497    1.642419   -0.895200
 ---------------------------------------------------------------------

 SCF Done:  E(RM062X) =  -500.032079662     A.U. after   11 cycles

 The electronic state is 1-A'.
 Alpha  occ. eigenvalues -- -102.66378 -10.59950  -9.81137  -7.53536  -7.52876
 Alpha  occ. eigenvalues --   -7.52857  -0.95910  -0.76583  -0.53047  -0.51600
 Alpha  occ. eigenvalues --   -0.46587  -0.37188  -0.35689
 Alpha virt. eigenvalues --    0.02431   0.03524   0.06827   0.06963   0.09082
 Alpha virt. eigenvalues --    0.10669   0.11077   0.11848   0.17668   0.21536
 Alpha virt. eigenvalues --    0.22790   0.28826   0.60048   0.63132   0.65107

 Mulliken charges:
               1
     1  H    0.246881
     2  C   -0.685990
     3  Cl  -0.092431
     4  H    0.265770
     5  H    0.265770
 Sum of Mulliken charges =  -0.00000

 Dipole moment (field-independent basis, Debye):
    X=              0.2001    Y=              2.5643    Z=              0.0000  Tot=              2.5721
 Quadrupole moment (field-independent basis, Debye-Ang):
   XX=            -20.3211   YY=            -18.0569   ZZ=            -20.0130
   XY=             -0.6246   XZ=             -0.0000   YZ=              0.0000

 Normal termination of Gaussian 16 at Fri Sep 22 17:19:43 2023.
