 Gaussian 16, Revision A.03,
 Gaussian 16:  ES64L-G16RevA.03 25-Dec-2016

 ------------------------------------------------------------------
 # 6-31+g(d) scrf=(solvent=water,pcm) int=ultrafine m062x scf=tight
 ------------------------------------------------------------------

 -----------------------
 tmpdir/M2_conf_84_9.gjf
 -----------------------
 Symbolic Z-matrix:
 Charge =  0 Multiplicity = 1

                         Standard orientation:
 ---------------------------------------------------------------------
 Center     Atomic      Atomic             Coordinates (Angstroms)
 Number     Number       Type             X           Y           Z
 ---------------------------------------------------------------------
      1          1           0       -1.075875    1.204636    0.000000
      2          6           0        0.009849    1.137468    0.000000
      3         17           0        0.009849   -0.660032   -0.000000
      4          1           0        0.424675    1.595548    0.895200
      5          1           0        0.424675    1.595548   -0.895200
 ---------------------------------------------------------------------

 SCF Done:  E(RM062X) =  -500.042255911     A.U. after   11 cycles

 The electronic state is 1-A'.
 Alpha  occ. eigenvalues -- -102.66306 -10.60015  -9.81048  -7.53444  -7.52792
 Alpha  occ. eigenvalues --   -7.52778  -0.95609  -0.76646  -0.52461  -0.51632
 Alpha  occ. eigenvalues --   -0.46953  -0.37036  -0.36194
 Alpha virt. eigenvalues --    0.02632   0.03506   0.06863   0.06953   0.09107
 Alpha virt. eigenvalues --    0.10906   0.11091   0.11981   0.17736   0.21607
 Alpha virt. eigenvalues --    0.22527   0.29248   0.60298   0.63307   0.64693

 Mulliken charges:
               1
     1  H    0.252816
     2  C   -0.693003
     3  Cl  -0.089359
     4  H    0.264773
     5  H    0.264773
 Sum of Mulliken charges =  -0.00000

 Dipole moment (field-independent basis, Debye):
    X=             -0.1335    Y=              2.6049    Z=              0.0000  Tot=              2.6084
 Quadrupole moment (field-independent basis, Debye-Ang):
   XX=            -20.1828   YY=            -18.0935   ZZ=            -20.0271
   XY=              0.4551   XZ=              0.0000   YZ=              0.0000

 Normal termination of Gaussian 16 at Fri Sep 22 17:17:29 2023.
