 Gaussian 16, Revision A.03,
 Gaussian 16:  ES64L-G16RevA.03 25-Dec-2016

 ------------------------------------------------------------------
 # 6-31+g(d) scrf=(solvent=water,pcm) int=ultrafine m062x scf=tight
 ------------------------------------------------------------------

 ------------------------
 tmpdir/M2_conf_120_7.gjf
 ------------------------
 Symbolic Z-matrix:
 Charge =  0 Multiplicity = 1

                         Standard orientation:
 ---------------------------------------------------------------------
 Center     Atomic      Atomic             Coordinates (Angstroms)
 Number     Number       Type             X           Y           Z
 ---------------------------------------------------------------------
      1          1           0        1.057710    0.976242    0.000000
      2          6           0       -0.017631    1.140408   -0.000000
      3         17           0       -0.017631   -0.657089    0.000000
      4          1           0       -0.326098    1.675914    0.895200
      5          1           0       -0.326098    1.675914   -0.895200
 ---------------------------------------------------------------------

 SCF Done:  E(RM062X) =  -500.020596487     A.U. after   11 cycles

 The electronic state is 1-A'.
 Alpha  occ. eigenvalues -- -102.66479 -10.59850  -9.81259  -7.53661  -7.52991
 Alpha  occ. eigenvalues --   -7.52970  -0.96284  -0.76505  -0.53603  -0.51575
 Alpha  occ. eigenvalues --   -0.46311  -0.37338  -0.35129
 Alpha virt. eigenvalues --    0.02221   0.03542   0.06794   0.06970   0.09049
 Alpha virt. eigenvalues --    0.10438   0.11060   0.11772   0.17596   0.21480
 Alpha virt. eigenvalues --    0.22993   0.28505   0.59868   0.63000   0.65266

 Mulliken charges:
               1
     1  H    0.242093
     2  C   -0.681898
     3  Cl  -0.093274
     4  H    0.266540
     5  H    0.266540
 Sum of Mulliken charges =  -0.00000

 Dipole moment (field-independent basis, Debye):
    X=              0.2583    Y=              2.5073    Z=             -0.0000  Tot=              2.5205
 Quadrupole moment (field-independent basis, Debye-Ang):
   XX=            -20.4637   YY=            -18.0293   ZZ=            -19.9981
   XY=             -0.7295   XZ=              0.0000   YZ=             -0.0000

 Normal termination of Gaussian 16 at Fri Sep 22 17:21:43 2023.
