 Gaussian 16, Revision A.03,
 Gaussian 16:  ES64L-G16RevA.03 25-Dec-2016

 ------------------------------------------------------------------
 # 6-31+g(d) scrf=(solvent=water,pcm) int=ultrafine m062x scf=tight
 ------------------------------------------------------------------

 -----------------------
 tmpdir/M2_conf_57_5.gjf
 -----------------------
 Symbolic Z-matrix:
 Charge =  0 Multiplicity = 1

                         Standard orientation:
 ---------------------------------------------------------------------
 Center     Atomic      Atomic             Coordinates (Angstroms)
 Number     Number       Type             X           Y           Z
 ---------------------------------------------------------------------
      1          1           0        1.026741    0.070947   -0.391473
      2          6           0        0.011028   -0.012984   -0.011220
      3          1           0       -0.743501   -0.310710   -0.736040
      4          1           0       -0.032285   -0.710072    0.822744
      5          1           0       -0.317126    1.027740    0.372090
 ---------------------------------------------------------------------

 SCF Done:  E(RM062X) =  -40.4804579548     A.U. after    9 cycles

 The electronic state is 1-A.
 Alpha  occ. eigenvalues --  -10.53198  -0.78189  -0.46838  -0.45450  -0.43742
 Alpha virt. eigenvalues --    0.03926   0.07095   0.07189   0.07370   0.20985
 Alpha virt. eigenvalues --    0.22901   0.23970   0.30640   0.68961   0.69099
 Alpha virt. eigenvalues --    0.70528   0.95969   0.99497   1.01965   1.10887

 Mulliken charges:
               1
     1  H    0.213484
     2  C   -0.829374
     3  H    0.212207
     4  H    0.210889
     5  H    0.192794
 Sum of Mulliken charges =  -0.00000

 Dipole moment (field-independent basis, Debye):
    X=             -0.0239    Y=             -0.0228    Z=              0.0169  Tot=              0.0371
 Quadrupole moment (field-independent basis, Debye-Ang):
   XX=             -8.3004   YY=             -8.5885   ZZ=             -8.6635
   XY=              0.0654   XZ=              0.0183   YZ=             -0.0747

 Normal termination of Gaussian 16 at Fri Sep 22 17:14:24 2023.
