 Gaussian 16, Revision A.03,
 Gaussian 16:  ES64L-G16RevA.03 25-Dec-2016

 ------------------------------------------------------------------
 # 6-31+g(d) scrf=(solvent=water,pcm) int=ultrafine m062x scf=tight
 ------------------------------------------------------------------

 ------------------------
 tmpdir/M2_conf_77_10.gjf
 ------------------------
 Symbolic Z-matrix:
 Charge =  0 Multiplicity = 1

                         Standard orientation:
 ---------------------------------------------------------------------
 Center     Atomic      Atomic             Coordinates (Angstroms)
 Number     Number       Type             X           Y           Z
 ---------------------------------------------------------------------
      1          1           0        1.073793    1.248345   -0.000000
      2          6           0       -0.008303    1.137096   -0.000000
      3         17           0       -0.008303   -0.660399    0.000000
      4          1           0       -0.441409    1.577933    0.895200
      5          1           0       -0.441409    1.577933   -0.895200
 ---------------------------------------------------------------------

 SCF Done:  E(RM062X) =  -500.044831818     A.U. after   11 cycles

 The electronic state is 1-A'.
 Alpha  occ. eigenvalues -- -102.66290 -10.60028  -9.81029  -7.53424  -7.52773
 Alpha  occ. eigenvalues --   -7.52761  -0.95539  -0.76661  -0.52289  -0.51645
 Alpha  occ. eigenvalues --   -0.47071  -0.36988  -0.36328
 Alpha virt. eigenvalues --    0.02686   0.03501   0.06875   0.06949   0.09114
 Alpha virt. eigenvalues --    0.10967   0.11095   0.12035   0.17753   0.21637
 Alpha virt. eigenvalues --    0.22434   0.29381   0.60381   0.63372   0.64517

 Mulliken charges:
               1
     1  H    0.254718
     2  C   -0.695374
     3  Cl  -0.088165
     4  H    0.264410
     5  H    0.264410
 Sum of Mulliken charges =  -0.00000

 Dipole moment (field-independent basis, Debye):
    X=              0.1113    Y=              2.6137    Z=              0.0000  Tot=              2.6160
 Quadrupole moment (field-independent basis, Debye-Ang):
   XX=            -20.1454   YY=            -18.1046   ZZ=            -20.0312
   XY=             -0.3885   XZ=             -0.0000   YZ=             -0.0000

 Normal termination of Gaussian 16 at Fri Sep 22 17:16:39 2023.
