 Gaussian 16, Revision A.03,
 Gaussian 16:  ES64L-G16RevA.03 25-Dec-2016

 ------------------------------------------------------------------
 # 6-31+g(d) scrf=(solvent=water,pcm) int=ultrafine m062x scf=tight
 ------------------------------------------------------------------

 ------------------------
 tmpdir/M2_conf_82_10.gjf
 ------------------------
 Symbolic Z-matrix:
 Charge =  0 Multiplicity = 1

                         Standard orientation:
 ---------------------------------------------------------------------
 Center     Atomic      Atomic             Coordinates (Angstroms)
 Number     Number       Type             X           Y           Z
 ---------------------------------------------------------------------
      1          1           0        1.075451    1.217402   -0.000000
      2          6           0       -0.009399    1.137356   -0.000000
      3         17           0       -0.009399   -0.660147    0.000000
      4          1           0       -0.429632    1.590481    0.895200
      5          1           0       -0.429632    1.590481   -0.895200
 ---------------------------------------------------------------------

 SCF Done:  E(RM062X) =  -500.043056690     A.U. after   11 cycles

 The electronic state is 1-A'.
 Alpha  occ. eigenvalues -- -102.66301 -10.60019  -9.81042  -7.53438  -7.52786
 Alpha  occ. eigenvalues --   -7.52773  -0.95587  -0.76651  -0.52409  -0.51635
 Alpha  occ. eigenvalues --   -0.46989  -0.37022  -0.36235
 Alpha virt. eigenvalues --    0.02649   0.03504   0.06867   0.06952   0.09109
 Alpha virt. eigenvalues --    0.10925   0.11093   0.11996   0.17741   0.21615
 Alpha virt. eigenvalues --    0.22500   0.29288   0.60323   0.63326   0.64643

 Mulliken charges:
               1
     1  H    0.253384
     2  C   -0.693711
     3  Cl  -0.089010
     4  H    0.264668
     5  H    0.264668
 Sum of Mulliken charges =   0.00000

 Dipole moment (field-independent basis, Debye):
    X=              0.1269    Y=              2.6077    Z=             -0.0000  Tot=              2.6108
 Quadrupole moment (field-independent basis, Debye-Ang):
   XX=            -20.1713   YY=            -18.0968   ZZ=            -20.0284
   XY=             -0.4360   XZ=              0.0000   YZ=             -0.0000

 Normal termination of Gaussian 16 at Fri Sep 22 17:17:15 2023.
