 Gaussian 16, Revision A.03,
 Gaussian 16:  ES64L-G16RevA.03 25-Dec-2016

 ------------------------------------------------------------------
 # 6-31+g(d) scrf=(solvent=water,pcm) int=ultrafine m062x scf=tight
 ------------------------------------------------------------------

 -----------------------
 tmpdir/M2_conf_74_9.gjf
 -----------------------
 Symbolic Z-matrix:
 Charge =  0 Multiplicity = 1

                         Standard orientation:
 ---------------------------------------------------------------------
 Center     Atomic      Atomic             Coordinates (Angstroms)
 Number     Number       Type             X           Y           Z
 ---------------------------------------------------------------------
      1          1           0       -1.072402    1.266522   -0.000000
      2          6           0        0.007655    1.136966   -0.000000
      3         17           0        0.007655   -0.660537    0.000000
      4          1           0        0.448163    1.570408    0.895200
      5          1           0        0.448163    1.570408   -0.895200
 ---------------------------------------------------------------------

 SCF Done:  E(RM062X) =  -500.045765572     A.U. after   10 cycles

 The electronic state is 1-A'.
 Alpha  occ. eigenvalues -- -102.66285 -10.60032  -9.81022  -7.53417  -7.52767
 Alpha  occ. eigenvalues --   -7.52756  -0.95513  -0.76666  -0.52223  -0.51651
 Alpha  occ. eigenvalues --   -0.47117  -0.36969  -0.36379
 Alpha virt. eigenvalues --    0.02706   0.03499   0.06879   0.06947   0.09116
 Alpha virt. eigenvalues --    0.10988   0.11096   0.12057   0.17759   0.21651
 Alpha virt. eigenvalues --    0.22395   0.29432   0.60414   0.63399   0.64442

 Mulliken charges:
               1
     1  H    0.255473
     2  C   -0.696296
     3  Cl  -0.087689
     4  H    0.264256
     5  H    0.264256
 Sum of Mulliken charges =  -0.00000

 Dipole moment (field-independent basis, Debye):
    X=             -0.1022    Y=              2.6167    Z=              0.0000  Tot=              2.6187
 Quadrupole moment (field-independent basis, Debye-Ang):
   XX=            -20.1316   YY=            -18.1087   ZZ=            -20.0328
   XY=              0.3598   XZ=              0.0000   YZ=              0.0000

 Normal termination of Gaussian 16 at Fri Sep 22 17:16:18 2023.
