 Gaussian 16, Revision A.03,
 Gaussian 16:  ES64L-G16RevA.03 25-Dec-2016

 ------------------------------------------------------------------
 # 6-31+g(d) scrf=(solvent=water,pcm) int=ultrafine m062x scf=tight
 ------------------------------------------------------------------

 -----------------------
 tmpdir/M2_conf_67_9.gjf
 -----------------------
 Symbolic Z-matrix:
 Charge =  0 Multiplicity = 1

                         Standard orientation:
 ---------------------------------------------------------------------
 Center     Atomic      Atomic             Coordinates (Angstroms)
 Number     Number       Type             X           Y           Z
 ---------------------------------------------------------------------
      1          1           0       -1.068110    1.307616    0.000000
      2          6           0        0.006179    1.136696    0.000000
      3         17           0        0.006179   -0.660801   -0.000000
      4          1           0        0.463000    1.552909    0.895200
      5          1           0        0.463000    1.552909   -0.895200
 ---------------------------------------------------------------------

 SCF Done:  E(RM062X) =  -500.047585472     A.U. after   10 cycles

 The electronic state is 1-A'.
 Alpha  occ. eigenvalues -- -102.66275 -10.60040  -9.81010  -7.53404  -7.52754
 Alpha  occ. eigenvalues --   -7.52746  -0.95466  -0.76677  -0.52086  -0.51666
 Alpha  occ. eigenvalues --   -0.47213  -0.36927  -0.36483
 Alpha virt. eigenvalues --    0.02745   0.03495   0.06889   0.06943   0.09121
 Alpha virt. eigenvalues --    0.11029   0.11098   0.12106   0.17771   0.21686
 Alpha virt. eigenvalues --    0.22306   0.29536   0.60484   0.63463   0.64275

 Mulliken charges:
               1
     1  H    0.257084
     2  C   -0.698198
     3  Cl  -0.086681
     4  H    0.263897
     5  H    0.263897
 Sum of Mulliken charges =  -0.00000

 Dipole moment (field-independent basis, Debye):
    X=             -0.0817    Y=              2.6222    Z=             -0.0000  Tot=              2.6235
 Quadrupole moment (field-independent basis, Debye-Ang):
   XX=            -20.1040   YY=            -18.1172   ZZ=            -20.0362
   XY=              0.2930   XZ=             -0.0000   YZ=             -0.0000

 Normal termination of Gaussian 16 at Fri Sep 22 17:15:32 2023.
