 Gaussian 16, Revision A.03,
 Gaussian 16:  ES64L-G16RevA.03 25-Dec-2016

 ------------------------------------------------------------------
 # 6-31+g(d) scrf=(solvent=water,pcm) int=ultrafine m062x scf=tight
 ------------------------------------------------------------------

 -----------------------
 tmpdir/M2_conf_78_5.gjf
 -----------------------
 Symbolic Z-matrix:
 Charge =  0 Multiplicity = 1

                         Standard orientation:
 ---------------------------------------------------------------------
 Center     Atomic      Atomic             Coordinates (Angstroms)
 Number     Number       Type             X           Y           Z
 ---------------------------------------------------------------------
      1          1           0        1.039766    0.001382   -0.378785
      2          6           0        0.014175   -0.013512   -0.016502
      3          1           0       -0.794391   -0.180153   -0.724844
      4          1           0       -0.108939   -0.762787    0.762430
      5          1           0       -0.221485    1.022633    0.440211
 ---------------------------------------------------------------------

 SCF Done:  E(RM062X) =  -40.4791037747     A.U. after    9 cycles

 The electronic state is 1-A.
 Alpha  occ. eigenvalues --  -10.53206  -0.78219  -0.47367  -0.45226  -0.43396
 Alpha virt. eigenvalues --    0.03923   0.07057   0.07207   0.07384   0.20746
 Alpha virt. eigenvalues --    0.22686   0.24392   0.30583   0.68960   0.69225
 Alpha virt. eigenvalues --    0.70533   0.95403   0.99025   1.02823   1.11126

 Mulliken charges:
               1
     1  H    0.215093
     2  C   -0.831271
     3  H    0.213107
     4  H    0.210635
     5  H    0.192436
 Sum of Mulliken charges =   0.00000

 Dipole moment (field-independent basis, Debye):
    X=             -0.0444    Y=             -0.0204    Z=              0.0313  Tot=              0.0580
 Quadrupole moment (field-independent basis, Debye-Ang):
   XX=             -8.1734   YY=             -8.5994   ZZ=             -8.7918
   XY=              0.0443   XZ=              0.0112   YZ=             -0.0890

 Normal termination of Gaussian 16 at Fri Sep 22 17:16:45 2023.
