 Gaussian 16, Revision A.03,
 Gaussian 16:  ES64L-G16RevA.03 25-Dec-2016

 ------------------------------------------------------------------
 # 6-31+g(d) scrf=(solvent=water,pcm) int=ultrafine m062x scf=tight
 ------------------------------------------------------------------

 -----------------------
 tmpdir/M2_conf_58_6.gjf
 -----------------------
 Symbolic Z-matrix:
 Charge =  0 Multiplicity = 1

                         Standard orientation:
 ---------------------------------------------------------------------
 Center     Atomic      Atomic             Coordinates (Angstroms)
 Number     Number       Type             X           Y           Z
 ---------------------------------------------------------------------
      1          1           0       -1.027970    0.059815   -0.391021
      2          6           0       -0.011114   -0.013079   -0.011551
      3          1           0        0.749511   -0.296415   -0.735762
      4          1           0        0.041605   -0.714478    0.818247
      5          1           0        0.303537    1.029555    0.377844
 ---------------------------------------------------------------------

 SCF Done:  E(RM062X) =  -40.4803955234     A.U. after    9 cycles

 The electronic state is 1-A.
 Alpha  occ. eigenvalues --  -10.53199  -0.78190  -0.46869  -0.45434  -0.43724
 Alpha virt. eigenvalues --    0.03926   0.07093   0.07190   0.07370   0.20973
 Alpha virt. eigenvalues --    0.22887   0.23995   0.30637   0.68961   0.69105
 Alpha virt. eigenvalues --    0.70529   0.95941   0.99465   1.02018   1.10897

 Mulliken charges:
               1
     1  H    0.213571
     2  C   -0.829466
     3  H    0.212253
     4  H    0.210873
     5  H    0.192770
 Sum of Mulliken charges =   0.00000

 Dipole moment (field-independent basis, Debye):
    X=              0.0252    Y=             -0.0226    Z=              0.0177  Tot=              0.0382
 Quadrupole moment (field-independent basis, Debye-Ang):
   XX=             -8.2919   YY=             -8.5900   ZZ=             -8.6710
   XY=             -0.0626   XZ=             -0.0175   YZ=             -0.0760

 Normal termination of Gaussian 16 at Fri Sep 22 17:14:31 2023.
