 Gaussian 16, Revision A.03,
 Gaussian 16:  ES64L-G16RevA.03 25-Dec-2016

 ------------------------------------------------------------------
 # 6-31+g(d) scrf=(solvent=water,pcm) int=ultrafine m062x scf=tight
 ------------------------------------------------------------------

 ------------------------
 tmpdir/M2_conf_105_9.gjf
 ------------------------
 Symbolic Z-matrix:
 Charge =  0 Multiplicity = 1

                         Standard orientation:
 ---------------------------------------------------------------------
 Center     Atomic      Atomic             Coordinates (Angstroms)
 Number     Number       Type             X           Y           Z
 ---------------------------------------------------------------------
      1          1           0       -1.070656    1.065449   -0.000000
      2          6           0        0.014651    1.139057   -0.000000
      3         17           0        0.014651   -0.658443    0.000000
      4          1           0        0.366846    1.646872    0.895200
      5          1           0        0.366846    1.646872   -0.895200
 ---------------------------------------------------------------------

 SCF Done:  E(RM062X) =  -500.030798213     A.U. after   11 cycles

 The electronic state is 1-A'.
 Alpha  occ. eigenvalues -- -102.66388 -10.59940  -9.81150  -7.53549  -7.52888
 Alpha  occ. eigenvalues --   -7.52869  -0.95949  -0.76575  -0.53114  -0.51597
 Alpha  occ. eigenvalues --   -0.46550  -0.37205  -0.35626
 Alpha virt. eigenvalues --    0.02407   0.03526   0.06824   0.06964   0.09078
 Alpha virt. eigenvalues --    0.10641   0.11075   0.11837   0.17660   0.21529
 Alpha virt. eigenvalues --    0.22816   0.28783   0.60024   0.63115   0.65137

 Mulliken charges:
               1
     1  H    0.246264
     2  C   -0.685351
     3  Cl  -0.092651
     4  H    0.265869
     5  H    0.265869
 Sum of Mulliken charges =  -0.00000

 Dipole moment (field-independent basis, Debye):
    X=             -0.2072    Y=              2.5585    Z=             -0.0000  Tot=              2.5669
 Quadrupole moment (field-independent basis, Debye-Ang):
   XX=            -20.3376   YY=            -18.0531   ZZ=            -20.0113
   XY=              0.6396   XZ=             -0.0000   YZ=             -0.0000

 Normal termination of Gaussian 16 at Fri Sep 22 17:19:57 2023.
