 Gaussian 16, Revision A.03,
 Gaussian 16:  ES64L-G16RevA.03 25-Dec-2016

 ------------------------------------------------------------------
 # 6-31+g(d) scrf=(solvent=water,pcm) int=ultrafine m062x scf=tight
 ------------------------------------------------------------------

 ------------------------
 tmpdir/M2_conf_112_4.gjf
 ------------------------
 Symbolic Z-matrix:
 Charge =  0 Multiplicity = 1

                         Standard orientation:
 ---------------------------------------------------------------------
 Center     Atomic      Atomic             Coordinates (Angstroms)
 Number     Number       Type             X           Y           Z
 ---------------------------------------------------------------------
      1          6           0       -0.000000   -1.532898    0.000000
      2         17           0       -0.000000    0.871302    0.000000
      3          1           0       -1.033730   -1.871578    0.000000
      4          1           0        0.516870   -1.871578    0.895240
      5          1           0        0.516870   -1.871578   -0.895240
 ---------------------------------------------------------------------

 SCF Done:  E(RM062X) =  -499.989229577     A.U. after   11 cycles

 The electronic state is 1-A'.
 Alpha  occ. eigenvalues -- -102.65977 -10.65408  -9.80242  -7.52605  -7.52003
 Alpha  occ. eigenvalues --   -7.52003  -0.88025  -0.81208  -0.52031  -0.52030
 Alpha  occ. eigenvalues --   -0.40471  -0.36962  -0.36962
 Alpha virt. eigenvalues --   -0.09067   0.03677   0.06717   0.06942   0.06943
 Alpha virt. eigenvalues --    0.10294   0.10835   0.10835   0.16221   0.21447
 Alpha virt. eigenvalues --    0.21447   0.29823   0.60910   0.60912   0.62077

 Mulliken charges:
               1
     1  C   -0.520326
     2  Cl  -0.333321
     3  H    0.284559
     4  H    0.284544
     5  H    0.284544
 Sum of Mulliken charges =   0.00000

 Dipole moment (field-independent basis, Debye):
    X=              0.0000    Y=             -5.1966    Z=             -0.0000  Tot=              5.1966
 Quadrupole moment (field-independent basis, Debye-Ang):
   XX=            -20.5555   YY=            -14.2031   ZZ=            -20.5554
   XY=              0.0002   XZ=             -0.0000   YZ=              0.0000

 Normal termination of Gaussian 16 at Fri Sep 22 17:20:46 2023.
