 Gaussian 16, Revision A.03,
 Gaussian 16:  ES64L-G16RevA.03 25-Dec-2016

 ------------------------------------------------------------------
 # 6-31+g(d) scrf=(solvent=water,pcm) int=ultrafine m062x scf=tight
 ------------------------------------------------------------------

 -----------------------
 tmpdir/M2_conf_93_4.gjf
 -----------------------
 Symbolic Z-matrix:
 Charge =  0 Multiplicity = 1

                         Standard orientation:
 ---------------------------------------------------------------------
 Center     Atomic      Atomic             Coordinates (Angstroms)
 Number     Number       Type             X           Y           Z
 ---------------------------------------------------------------------
      1          6           0       -0.000000   -1.440314   -0.000000
      2         17           0       -0.000000    0.822286   -0.000000
      3          1           0       -1.033730   -1.778994   -0.000000
      4          1           0        0.516870   -1.778994    0.895240
      5          1           0        0.516870   -1.778994   -0.895240
 ---------------------------------------------------------------------

 SCF Done:  E(RM062X) =  -500.007433991     A.U. after   10 cycles

 The electronic state is 1-A'.
 Alpha  occ. eigenvalues -- -102.66251 -10.64282  -9.80564  -7.52937  -7.52319
 Alpha  occ. eigenvalues --   -7.52319  -0.89039  -0.80323  -0.51571  -0.51571
 Alpha  occ. eigenvalues --   -0.41884  -0.37199  -0.37198
 Alpha virt. eigenvalues --   -0.06497   0.03684   0.06976   0.07003   0.07004
 Alpha virt. eigenvalues --    0.10087   0.10879   0.10879   0.16544   0.21658
 Alpha virt. eigenvalues --    0.21659   0.29911   0.61125   0.61126   0.61549

 Mulliken charges:
               1
     1  C   -0.564353
     2  Cl  -0.277031
     3  H    0.280472
     4  H    0.280456
     5  H    0.280456
 Sum of Mulliken charges =  -0.00000

 Dipole moment (field-independent basis, Debye):
    X=              0.0001    Y=             -4.5111    Z=             -0.0000  Tot=              4.5111
 Quadrupole moment (field-independent basis, Debye-Ang):
   XX=            -20.4744   YY=            -15.2031   ZZ=            -20.4743
   XY=              0.0003   XZ=             -0.0000   YZ=              0.0000

 Normal termination of Gaussian 16 at Fri Sep 22 17:18:32 2023.
