 Gaussian 16, Revision A.03,
 Gaussian 16:  ES64L-G16RevA.03 25-Dec-2016

 ------------------------------------------------------------------
 # 6-31+g(d) scrf=(solvent=water,pcm) int=ultrafine m062x scf=tight
 ------------------------------------------------------------------

 ------------------------
 tmpdir/M2_conf_109_2.gjf
 ------------------------
 Symbolic Z-matrix:
 Charge =  0 Multiplicity = 1

                         Standard orientation:
 ---------------------------------------------------------------------
 Center     Atomic      Atomic             Coordinates (Angstroms)
 Number     Number       Type             X           Y           Z
 ---------------------------------------------------------------------
      1          6           0        0.014277    0.000012    0.001972
      2          1           0        0.277507    0.000174    1.046928
      3          1           0        0.389510   -0.894566   -0.490213
      4          1           0        0.386825    0.895923   -0.489815
      5          1           0       -1.139501   -0.001603   -0.078734
 ---------------------------------------------------------------------

 SCF Done:  E(RM062X) =  -40.4812390097     A.U. after    9 cycles

 The electronic state is 1-A.
 Alpha  occ. eigenvalues --  -10.53083  -0.78263  -0.46135  -0.45966  -0.44098
 Alpha virt. eigenvalues --    0.03933   0.07139   0.07159   0.07353   0.21214
 Alpha virt. eigenvalues --    0.23334   0.23553   0.30808   0.68785   0.69018
 Alpha virt. eigenvalues --    0.70529   0.96554   1.00501   1.00947   1.10911

 Mulliken charges:
               1
     1  C   -0.828784
     2  H    0.213357
     3  H    0.211126
     4  H    0.211126
     5  H    0.193175
 Sum of Mulliken charges =   0.00000

 Dipole moment (field-independent basis, Debye):
    X=              0.0283    Y=              0.0001    Z=              0.0083  Tot=              0.0294
 Quadrupole moment (field-independent basis, Debye-Ang):
   XX=             -8.5834   YY=             -8.4643   ZZ=             -8.4708
   XY=             -0.0004   XZ=             -0.0094   YZ=             -0.0000

 Normal termination of Gaussian 16 at Fri Sep 22 17:20:24 2023.
