 Gaussian 16, Revision A.03,
 Gaussian 16:  ES64L-G16RevA.03 25-Dec-2016

 ------------------------------------------------------------------
 # 6-31+g(d) scrf=(solvent=water,pcm) int=ultrafine m062x scf=tight
 ------------------------------------------------------------------

 -----------------------
 tmpdir/M2_conf_39_7.gjf
 -----------------------
 Symbolic Z-matrix:
 Charge =  0 Multiplicity = 1

                         Standard orientation:
 ---------------------------------------------------------------------
 Center     Atomic      Atomic             Coordinates (Angstroms)
 Number     Number       Type             X           Y           Z
 ---------------------------------------------------------------------
      1          1           0        1.043380    1.439347   -0.000000
      2          6           0       -0.001334    1.136227   -0.000000
      3         17           0       -0.001334   -0.661269    0.000000
      4          1           0       -0.506345    1.492432    0.895200
      5          1           0       -0.506345    1.492432   -0.895200
 ---------------------------------------------------------------------

 SCF Done:  E(RM062X) =  -500.050742989     A.U. after   10 cycles

 The electronic state is 1-A'.
 Alpha  occ. eigenvalues -- -102.66259 -10.60051  -9.80990  -7.53383  -7.52733
 Alpha  occ. eigenvalues --   -7.52731  -0.95385  -0.76693  -0.51791  -0.51730
 Alpha  occ. eigenvalues --   -0.47400  -0.36795  -0.36719
 Alpha virt. eigenvalues --    0.02815   0.03489   0.06915   0.06927   0.09129
 Alpha virt. eigenvalues --    0.11095   0.11100   0.12215   0.17791   0.21867
 Alpha virt. eigenvalues --    0.22016   0.29735   0.60625   0.63685   0.63827

 Mulliken charges:
               1
     1  H    0.261314
     2  C   -0.701797
     3  Cl  -0.084707
     4  H    0.262595
     5  H    0.262595
 Sum of Mulliken charges =  -0.00000

 Dipole moment (field-independent basis, Debye):
    X=              0.0171    Y=              2.6308    Z=              0.0000  Tot=              2.6309
 Quadrupole moment (field-independent basis, Debye-Ang):
   XX=            -20.0516   YY=            -18.1332   ZZ=            -20.0455
   XY=             -0.0644   XZ=             -0.0000   YZ=              0.0000

 Normal termination of Gaussian 16 at Fri Sep 22 17:12:25 2023.
