 Gaussian 16, Revision A.03,
 Gaussian 16:  ES64L-G16RevA.03 25-Dec-2016

 ------------------------------------------------------------------
 # 6-31+g(d) scrf=(solvent=water,pcm) int=ultrafine m062x scf=tight
 ------------------------------------------------------------------

 -----------------------
 tmpdir/M2_conf_39_6.gjf
 -----------------------
 Symbolic Z-matrix:
 Charge =  0 Multiplicity = 1

                         Standard orientation:
 ---------------------------------------------------------------------
 Center     Atomic      Atomic             Coordinates (Angstroms)
 Number     Number       Type             X           Y           Z
 ---------------------------------------------------------------------
      1          1           0       -0.412193    0.939791   -0.383315
      2          6           0       -0.015208    0.000446   -0.004709
      3          1           0       -0.112695   -0.812923   -0.720413
      4          1           0       -0.497794   -0.273066    0.931030
      5          1           0        1.113930    0.143522    0.200951
 ---------------------------------------------------------------------

 SCF Done:  E(RM062X) =  -40.4812036967     A.U. after    9 cycles

 The electronic state is 1-A.
 Alpha  occ. eigenvalues --  -10.53193  -0.78173  -0.46290  -0.45767  -0.43992
 Alpha virt. eigenvalues --    0.03928   0.07133   0.07168   0.07357   0.21139
 Alpha virt. eigenvalues --    0.23170   0.23558   0.30684   0.68977   0.69019
 Alpha virt. eigenvalues --    0.70527   0.96367   1.00111   1.01032   1.10766

 Mulliken charges:
               1
     1  H    0.212149
     2  C   -0.828335
     3  H    0.211669
     4  H    0.211257
     5  H    0.193260
 Sum of Mulliken charges =  -0.00000

 Dipole moment (field-independent basis, Debye):
    X=             -0.0192    Y=             -0.0133    Z=              0.0042  Tot=              0.0238
 Quadrupole moment (field-independent basis, Debye-Ang):
   XX=             -8.5975   YY=             -8.4125   ZZ=             -8.5345
   XY=             -0.0337   XZ=             -0.0423   YZ=             -0.0068

 Normal termination of Gaussian 16 at Fri Sep 22 17:12:24 2023.
