 Gaussian 16, Revision A.03,
 Gaussian 16:  ES64L-G16RevA.03 25-Dec-2016

 ------------------------------------------------------------------
 # 6-31+g(d) scrf=(solvent=water,pcm) int=ultrafine m062x scf=tight
 ------------------------------------------------------------------

 ------------------------
 tmpdir/M2_conf_101_4.gjf
 ------------------------
 Symbolic Z-matrix:
 Charge =  0 Multiplicity = 1

                         Standard orientation:
 ---------------------------------------------------------------------
 Center     Atomic      Atomic             Coordinates (Angstroms)
 Number     Number       Type             X           Y           Z
 ---------------------------------------------------------------------
      1          6           0       -0.000000   -1.482160    0.000000
      2         17           0       -0.000000    0.844440    0.000000
      3          1           0       -1.033730   -1.820840    0.000000
      4          1           0        0.516870   -1.820840    0.895240
      5          1           0        0.516870   -1.820840   -0.895240
 ---------------------------------------------------------------------

 SCF Done:  E(RM062X) =  -499.999159271     A.U. after   11 cycles

 The electronic state is 1-A'.
 Alpha  occ. eigenvalues -- -102.66140 -10.64801  -9.80429  -7.52798  -7.52186
 Alpha  occ. eigenvalues --   -7.52186  -0.88549  -0.80734  -0.51764  -0.51764
 Alpha  occ. eigenvalues --   -0.41223  -0.37103  -0.37102
 Alpha virt. eigenvalues --   -0.07713   0.03684   0.06841   0.06979   0.06980
 Alpha virt. eigenvalues --    0.10181   0.10858   0.10858   0.16394   0.21567
 Alpha virt. eigenvalues --    0.21568   0.29880   0.61001   0.61002   0.61777

 Mulliken charges:
               1
     1  C   -0.544035
     2  Cl  -0.302924
     3  H    0.282330
     4  H    0.282314
     5  H    0.282314
 Sum of Mulliken charges =   0.00000

 Dipole moment (field-independent basis, Debye):
    X=              0.0001    Y=             -4.8148    Z=              0.0000  Tot=              4.8148
 Quadrupole moment (field-independent basis, Debye-Ang):
   XX=            -20.5131   YY=            -14.7573   ZZ=            -20.5130
   XY=              0.0003   XZ=              0.0000   YZ=             -0.0000

 Normal termination of Gaussian 16 at Fri Sep 22 17:19:29 2023.
