 Gaussian 16, Revision A.03,
 Gaussian 16:  ES64L-G16RevA.03 25-Dec-2016

 ------------------------------------------------------------------
 # 6-31+g(d) scrf=(solvent=water,pcm) int=ultrafine m062x scf=tight
 ------------------------------------------------------------------

 -----------------------
 tmpdir/M2_conf_18_2.gjf
 -----------------------
 Symbolic Z-matrix:
 Charge =  0 Multiplicity = 1

                         Standard orientation:
 ---------------------------------------------------------------------
 Center     Atomic      Atomic             Coordinates (Angstroms)
 Number     Number       Type             X           Y           Z
 ---------------------------------------------------------------------
      1          6           0        0.014156    0.000012    0.000722
      2          1           0        0.323434    0.000497    1.039979
      3          1           0        0.368143   -0.894727   -0.506674
      4          1           0        0.365493    0.895762   -0.506721
      5          1           0       -1.142008   -0.001603   -0.030916
 ---------------------------------------------------------------------

 SCF Done:  E(RM062X) =  -40.4813271471     A.U. after    9 cycles

 The electronic state is 1-A.
 Alpha  occ. eigenvalues --  -10.53154  -0.78202  -0.46032  -0.45974  -0.44094
 Alpha virt. eigenvalues --    0.03930   0.07149   0.07155   0.07351   0.21202
 Alpha virt. eigenvalues --    0.23334   0.23409   0.30736   0.68923   0.69001
 Alpha virt. eigenvalues --    0.70528   0.96534   1.00497   1.00649   1.10798

 Mulliken charges:
               1
     1  C   -0.828340
     2  H    0.212147
     3  H    0.211384
     4  H    0.211383
     5  H    0.193426
 Sum of Mulliken charges =  -0.00000

 Dipole moment (field-independent basis, Debye):
    X=              0.0271    Y=              0.0001    Z=              0.0029  Tot=              0.0272
 Quadrupole moment (field-independent basis, Debye-Ang):
   XX=             -8.5903   YY=             -8.4708   ZZ=             -8.4729
   XY=             -0.0004   XZ=             -0.0037   YZ=             -0.0000

 Normal termination of Gaussian 16 at Fri Sep 22 17:10:05 2023.
