 Gaussian 16, Revision A.03,
 Gaussian 16:  ES64L-G16RevA.03 25-Dec-2016

 ------------------------------------------------------------------
 # 6-31+g(d) scrf=(solvent=water,pcm) int=ultrafine m062x scf=tight
 ------------------------------------------------------------------

 -----------------------
 tmpdir/M2_conf_88_4.gjf
 -----------------------
 Symbolic Z-matrix:
 Charge =  0 Multiplicity = 1

                         Standard orientation:
 ---------------------------------------------------------------------
 Center     Atomic      Atomic             Coordinates (Angstroms)
 Number     Number       Type             X           Y           Z
 ---------------------------------------------------------------------
      1          6           0       -0.000000   -1.417037    0.000000
      2         17           0       -0.000000    0.809963    0.000000
      3          1           0       -1.033730   -1.755717    0.000000
      4          1           0        0.516870   -1.755717    0.895240
      5          1           0        0.516870   -1.755717   -0.895240
 ---------------------------------------------------------------------

 SCF Done:  E(RM062X) =  -500.012029362     A.U. after   10 cycles

 The electronic state is 1-A'.
 Alpha  occ. eigenvalues -- -102.66304 -10.63986  -9.80634  -7.53009  -7.52387
 Alpha  occ. eigenvalues --   -7.52387  -0.89338  -0.80087  -0.51476  -0.51476
 Alpha  occ. eigenvalues --   -0.42266  -0.37243  -0.37243
 Alpha virt. eigenvalues --   -0.05782   0.03681   0.07014   0.07015   0.07068
 Alpha virt. eigenvalues --    0.10035   0.10891   0.10892   0.16630   0.21706
 Alpha virt. eigenvalues --    0.21706   0.29923   0.61214   0.61216   0.61439

 Mulliken charges:
               1
     1  C   -0.575912
     2  Cl  -0.262284
     3  H    0.279409
     4  H    0.279394
     5  H    0.279394
 Sum of Mulliken charges =   0.00000

 Dipole moment (field-independent basis, Debye):
    X=              0.0001    Y=             -4.3460    Z=             -0.0000  Tot=              4.3460
 Quadrupole moment (field-independent basis, Debye-Ang):
   XX=            -20.4512   YY=            -15.4470   ZZ=            -20.4511
   XY=              0.0003   XZ=             -0.0000   YZ=              0.0000

 Normal termination of Gaussian 16 at Fri Sep 22 17:17:57 2023.
