 Gaussian 16, Revision A.03,
 Gaussian 16:  ES64L-G16RevA.03 25-Dec-2016

 ------------------------------------------------------------------
 # 6-31+g(d) scrf=(solvent=water,pcm) int=ultrafine m062x scf=tight
 ------------------------------------------------------------------

 -----------------------
 tmpdir/M2_conf_70_8.gjf
 -----------------------
 Symbolic Z-matrix:
 Charge =  0 Multiplicity = 1

                         Standard orientation:
 ---------------------------------------------------------------------
 Center     Atomic      Atomic             Coordinates (Angstroms)
 Number     Number       Type             X           Y           Z
 ---------------------------------------------------------------------
      1          1           0        1.036027    0.009242   -0.383796
      2          6           0        0.012948   -0.013473   -0.014875
      3          1           0       -0.784183   -0.206233   -0.729526
      4          1           0       -0.094728   -0.749740    0.778611
      5          1           0       -0.234802    1.027566    0.423961
 ---------------------------------------------------------------------

 SCF Done:  E(RM062X) =  -40.4796053758     A.U. after    9 cycles

 The electronic state is 1-A.
 Alpha  occ. eigenvalues --  -10.53204  -0.78208  -0.47199  -0.45288  -0.43517
 Alpha virt. eigenvalues --    0.03924   0.07069   0.07202   0.07379   0.20833
 Alpha virt. eigenvalues --    0.22749   0.24255   0.30603   0.68959   0.69179
 Alpha virt. eigenvalues --    0.70531   0.95603   0.99160   1.02557   1.11035

 Mulliken charges:
               1
     1  H    0.214541
     2  C   -0.830568
     3  H    0.212776
     4  H    0.210708
     5  H    0.192542
 Sum of Mulliken charges =  -0.00000

 Dipole moment (field-independent basis, Debye):
    X=             -0.0382    Y=             -0.0209    Z=              0.0266  Tot=              0.0511
 Quadrupole moment (field-independent basis, Debye-Ang):
   XX=             -8.2120   YY=             -8.5974   ZZ=             -8.7508
   XY=              0.0475   XZ=              0.0126   YZ=             -0.0857

 Normal termination of Gaussian 16 at Fri Sep 22 17:15:51 2023.
