 Gaussian 16, Revision A.03,
 Gaussian 16:  ES64L-G16RevA.03 25-Dec-2016

 ------------------------------------------------------------------
 # 6-31+g(d) scrf=(solvent=water,pcm) int=ultrafine m062x scf=tight
 ------------------------------------------------------------------

 ------------------------
 tmpdir/M2_conf_123_6.gjf
 ------------------------
 Symbolic Z-matrix:
 Charge =  0 Multiplicity = 1

                         Standard orientation:
 ---------------------------------------------------------------------
 Center     Atomic      Atomic             Coordinates (Angstroms)
 Number     Number       Type             X           Y           Z
 ---------------------------------------------------------------------
      1          1           0       -1.033380    0.019466   -0.386937
      2          6           0       -0.012150   -0.013403   -0.013684
      3          1           0        0.774958   -0.230887   -0.732345
      4          1           0        0.081029   -0.738611    0.791732
      5          1           0        0.250294    1.030450    0.409652
 ---------------------------------------------------------------------

 SCF Done:  E(RM062X) =  -40.4799238713     A.U. after    9 cycles

 The electronic state is 1-A.
 Alpha  occ. eigenvalues --  -10.53202  -0.78201  -0.47079  -0.45338  -0.43598
 Alpha virt. eigenvalues --    0.03924   0.07078   0.07198   0.07376   0.20889
 Alpha virt. eigenvalues --    0.22797   0.24159   0.30616   0.68959   0.69150
 Alpha virt. eigenvalues --    0.70530   0.95735   0.99265   1.02362   1.10978

 Mulliken charges:
               1
     1  H    0.214171
     2  C   -0.830126
     3  H    0.212568
     4  H    0.210766
     5  H    0.192622
 Sum of Mulliken charges =  -0.00000

 Dipole moment (field-independent basis, Debye):
    X=              0.0337    Y=             -0.0214    Z=              0.0233  Tot=              0.0462
 Quadrupole moment (field-independent basis, Debye-Ang):
   XX=             -8.2402   YY=             -8.5956   ZZ=             -8.7215
   XY=             -0.0510   XZ=             -0.0139   YZ=             -0.0828

 Normal termination of Gaussian 16 at Fri Sep 22 17:22:03 2023.
