 Gaussian 16, Revision A.03,
 Gaussian 16:  ES64L-G16RevA.03 25-Dec-2016

 ------------------------------------------------------------------
 # 6-31+g(d) scrf=(solvent=water,pcm) int=ultrafine m062x scf=tight
 ------------------------------------------------------------------

 -----------------------
 tmpdir/M2_conf_98_4.gjf
 -----------------------
 Symbolic Z-matrix:
 Charge =  0 Multiplicity = 1

                         Standard orientation:
 ---------------------------------------------------------------------
 Center     Atomic      Atomic             Coordinates (Angstroms)
 Number     Number       Type             X           Y           Z
 ---------------------------------------------------------------------
      1          6           0       -0.000000   -1.463591    0.000000
      2         17           0       -0.000000    0.834609    0.000000
      3          1           0       -1.033730   -1.802271    0.000000
      4          1           0        0.516870   -1.802271    0.895240
      5          1           0        0.516870   -1.802271   -0.895240
 ---------------------------------------------------------------------

 SCF Done:  E(RM062X) =  -500.002829000     A.U. after   11 cycles

 The electronic state is 1-A'.
 Alpha  occ. eigenvalues -- -102.66192 -10.64573  -9.80491  -7.52861  -7.52247
 Alpha  occ. eigenvalues --   -7.52247  -0.88759  -0.80554  -0.51675  -0.51675
 Alpha  occ. eigenvalues --   -0.41512  -0.37147  -0.37147
 Alpha virt. eigenvalues --   -0.07184   0.03684   0.06897   0.06991   0.06991
 Alpha virt. eigenvalues --    0.10139   0.10867   0.10867   0.16460   0.21609
 Alpha virt. eigenvalues --    0.21609   0.29895   0.61050   0.61051   0.61672

 Mulliken charges:
               1
     1  C   -0.552968
     2  Cl  -0.291535
     3  H    0.281512
     4  H    0.281495
     5  H    0.281495
 Sum of Mulliken charges =  -0.00000

 Dipole moment (field-independent basis, Debye):
    X=              0.0001    Y=             -4.6789    Z=              0.0000  Tot=              4.6789
 Quadrupole moment (field-independent basis, Debye-Ang):
   XX=            -20.4964   YY=            -14.9563   ZZ=            -20.4963
   XY=              0.0003   XZ=              0.0000   YZ=             -0.0000

 Normal termination of Gaussian 16 at Fri Sep 22 17:19:08 2023.
