 Gaussian 16, Revision A.03,
 Gaussian 16:  ES64L-G16RevA.03 25-Dec-2016

 ------------------------------------------------------------------
 # 6-31+g(d) scrf=(solvent=water,pcm) int=ultrafine m062x scf=tight
 ------------------------------------------------------------------

 ------------------------
 tmpdir/M2_conf_116_6.gjf
 ------------------------
 Symbolic Z-matrix:
 Charge =  0 Multiplicity = 1

                         Standard orientation:
 ---------------------------------------------------------------------
 Center     Atomic      Atomic             Coordinates (Angstroms)
 Number     Number       Type             X           Y           Z
 ---------------------------------------------------------------------
      1          1           0       -1.037164    0.006205   -0.382336
      2          6           0       -0.013315   -0.013490   -0.015381
      3          1           0        0.787605   -0.197326   -0.728150
      4          1           0        0.099586   -0.754041    0.773378
      5          1           0        0.229864    1.026104    0.429395
 ---------------------------------------------------------------------

 SCF Done:  E(RM062X) =  -40.4794576414     A.U. after    9 cycles

 The electronic state is 1-A.
 Alpha  occ. eigenvalues --  -10.53204  -0.78211  -0.47251  -0.45268  -0.43481
 Alpha virt. eigenvalues --    0.03923   0.07065   0.07203   0.07380   0.20807
 Alpha virt. eigenvalues --    0.22729   0.24297   0.30597   0.68959   0.69193
 Alpha virt. eigenvalues --    0.70531   0.95543   0.99117   1.02640   1.11061

 Mulliken charges:
               1
     1  H    0.214708
     2  C   -0.830773
     3  H    0.212873
     4  H    0.210685
     5  H    0.192508
 Sum of Mulliken charges =   0.00000

 Dipole moment (field-independent basis, Debye):
    X=              0.0402    Y=             -0.0207    Z=              0.0280  Tot=              0.0532
 Quadrupole moment (field-independent basis, Debye-Ang):
   XX=             -8.2001   YY=             -8.5981   ZZ=             -8.7634
   XY=             -0.0463   XZ=             -0.0121   YZ=             -0.0868

 Normal termination of Gaussian 16 at Fri Sep 22 17:21:13 2023.
