 Gaussian 16, Revision A.03,
 Gaussian 16:  ES64L-G16RevA.03 25-Dec-2016

 ------------------------------------------------------------------
 # 6-31+g(d) scrf=(solvent=water,pcm) int=ultrafine m062x scf=tight
 ------------------------------------------------------------------

 ------------------------
 tmpdir/M2_conf_36_10.gjf
 ------------------------
 Symbolic Z-matrix:
 Charge =  0 Multiplicity = 1

                         Standard orientation:
 ---------------------------------------------------------------------
 Center     Atomic      Atomic             Coordinates (Angstroms)
 Number     Number       Type             X           Y           Z
 ---------------------------------------------------------------------
      1          1           0        1.041083    1.448267    0.000000
      2          6           0       -0.001000    1.136222    0.000000
      3         17           0       -0.001000   -0.661282   -0.000000
      4          1           0       -0.509039    1.488095    0.895200
      5          1           0       -0.509039    1.488095   -0.895200
 ---------------------------------------------------------------------

 SCF Done:  E(RM062X) =  -500.050809575     A.U. after   10 cycles

 The electronic state is 1-A'.
 Alpha  occ. eigenvalues -- -102.66259 -10.60051  -9.80989  -7.53382  -7.52732
 Alpha  occ. eigenvalues --   -7.52731  -0.95383  -0.76693  -0.51780  -0.51736
 Alpha  occ. eigenvalues --   -0.47404  -0.36786  -0.36730
 Alpha virt. eigenvalues --    0.02816   0.03489   0.06917   0.06926   0.09130
 Alpha virt. eigenvalues --    0.11097   0.11100   0.12218   0.17791   0.21884
 Alpha virt. eigenvalues --    0.21997   0.29739   0.60628   0.63701   0.63806

 Mulliken charges:
               1
     1  H    0.261548
     2  C   -0.701875
     3  Cl  -0.084666
     4  H    0.262496
     5  H    0.262496
 Sum of Mulliken charges =   0.00000

 Dipole moment (field-independent basis, Debye):
    X=              0.0128    Y=              2.6310    Z=             -0.0000  Tot=              2.6310
 Quadrupole moment (field-independent basis, Debye-Ang):
   XX=            -20.0502   YY=            -18.1336   ZZ=            -20.0461
   XY=             -0.0483   XZ=              0.0000   YZ=             -0.0000

 Normal termination of Gaussian 16 at Fri Sep 22 17:12:05 2023.
