 Gaussian 16, Revision A.03,
 Gaussian 16:  ES64L-G16RevA.03 25-Dec-2016

 ------------------------------------------------------------------
 # 6-31+g(d) scrf=(solvent=water,pcm) int=ultrafine m062x scf=tight
 ------------------------------------------------------------------

 -----------------------
 tmpdir/M2_conf_87_7.gjf
 -----------------------
 Symbolic Z-matrix:
 Charge =  0 Multiplicity = 1

                         Standard orientation:
 ---------------------------------------------------------------------
 Center     Atomic      Atomic             Coordinates (Angstroms)
 Number     Number       Type             X           Y           Z
 ---------------------------------------------------------------------
      1          1           0        1.076224    1.185851   -0.000000
      2          6           0       -0.010507    1.137643   -0.000000
      3         17           0       -0.010507   -0.659853    0.000000
      4          1           0       -0.417276    1.602893    0.895200
      5          1           0       -0.417276    1.602893   -0.895200
 ---------------------------------------------------------------------

 SCF Done:  E(RM062X) =  -500.041003810     A.U. after   11 cycles

 The electronic state is 1-A'.
 Alpha  occ. eigenvalues -- -102.66314 -10.60008  -9.81058  -7.53454  -7.52801
 Alpha  occ. eigenvalues --   -7.52787  -0.95645  -0.76639  -0.52541  -0.51626
 Alpha  occ. eigenvalues --   -0.46900  -0.37057  -0.36130
 Alpha virt. eigenvalues --    0.02607   0.03508   0.06858   0.06954   0.09104
 Alpha virt. eigenvalues --    0.10877   0.11090   0.11959   0.17727   0.21595
 Alpha virt. eigenvalues --    0.22567   0.29187   0.60261   0.63280   0.64766

 Mulliken charges:
               1
     1  H    0.251966
     2  C   -0.691945
     3  Cl  -0.089871
     4  H    0.264925
     5  H    0.264925
 Sum of Mulliken charges =  -0.00000

 Dipole moment (field-independent basis, Debye):
    X=              0.1431    Y=              2.6004    Z=              0.0000  Tot=              2.6044
 Quadrupole moment (field-independent basis, Debye-Ang):
   XX=            -20.2005   YY=            -18.0884   ZZ=            -20.0252
   XY=             -0.4826   XZ=             -0.0000   YZ=              0.0000

 Normal termination of Gaussian 16 at Fri Sep 22 17:17:50 2023.
