 Gaussian 16, Revision A.03,
 Gaussian 16:  ES64L-G16RevA.03 25-Dec-2016

 ------------------------------------------------------------------
 # 6-31+g(d) scrf=(solvent=water,pcm) int=ultrafine m062x scf=tight
 ------------------------------------------------------------------

 ----------------------
 tmpdir/M2_conf_2_4.gjf
 ----------------------
 Symbolic Z-matrix:
 Charge =  0 Multiplicity = 1

                         Standard orientation:
 ---------------------------------------------------------------------
 Center     Atomic      Atomic             Coordinates (Angstroms)
 Number     Number       Type             X           Y           Z
 ---------------------------------------------------------------------
      1          6           0       -0.000000   -1.141768    0.000000
      2         17           0       -0.000000    0.664232    0.000000
      3          1           0       -1.033730   -1.480448    0.000000
      4          1           0        0.516870   -1.480448    0.895240
      5          1           0        0.516870   -1.480448   -0.895240
 ---------------------------------------------------------------------

 SCF Done:  E(RM062X) =  -500.050867082     A.U. after   10 cycles

 The electronic state is 1-A'.
 Alpha  occ. eigenvalues -- -102.66273 -10.60132  -9.80990  -7.53382  -7.52733
 Alpha  occ. eigenvalues --   -7.52733  -0.95199  -0.76771  -0.51708  -0.51708
 Alpha  occ. eigenvalues --   -0.47303  -0.36796  -0.36796
 Alpha virt. eigenvalues --    0.02714   0.03494   0.06929   0.06929   0.09133
 Alpha virt. eigenvalues --    0.11094   0.11094   0.12003   0.17766   0.21943
 Alpha virt. eigenvalues --    0.21943   0.29753   0.60700   0.63674   0.63674

 Mulliken charges:
               1
     1  C   -0.700083
     2  Cl  -0.087867
     3  H    0.262662
     4  H    0.262644
     5  H    0.262644
 Sum of Mulliken charges =  -0.00000

 Dipole moment (field-independent basis, Debye):
    X=              0.0000    Y=             -2.6596    Z=              0.0000  Tot=              2.6596
 Quadrupole moment (field-independent basis, Debye-Ang):
   XX=            -20.0580   YY=            -18.0862   ZZ=            -20.0580
   XY=              0.0002   XZ=              0.0000   YZ=             -0.0000

 Normal termination of Gaussian 16 at Fri Sep 22 17:08:20 2023.
