 Gaussian 16, Revision A.03,
 Gaussian 16:  ES64L-G16RevA.03 25-Dec-2016

 ------------------------------------------------------------------
 # 6-31+g(d) scrf=(solvent=water,pcm) int=ultrafine m062x scf=tight
 ------------------------------------------------------------------

 -----------------------
 tmpdir/M2_conf_96_4.gjf
 -----------------------
 Symbolic Z-matrix:
 Charge =  0 Multiplicity = 1

                         Standard orientation:
 ---------------------------------------------------------------------
 Center     Atomic      Atomic             Coordinates (Angstroms)
 Number     Number       Type             X           Y           Z
 ---------------------------------------------------------------------
      1          6           0       -0.000000   -1.454306    0.000000
      2         17           0       -0.000000    0.829694    0.000000
      3          1           0       -1.033730   -1.792986    0.000000
      4          1           0        0.516870   -1.792986    0.895240
      5          1           0        0.516870   -1.792986   -0.895240
 ---------------------------------------------------------------------

 SCF Done:  E(RM062X) =  -500.004665966     A.U. after   11 cycles

 The electronic state is 1-A'.
 Alpha  occ. eigenvalues -- -102.66216 -10.64457  -9.80520  -7.52892  -7.52276
 Alpha  occ. eigenvalues --   -7.52276  -0.88869  -0.80463  -0.51632  -0.51632
 Alpha  occ. eigenvalues --   -0.41659  -0.37169  -0.37168
 Alpha virt. eigenvalues --   -0.06913   0.03684   0.06927   0.06996   0.06997
 Alpha virt. eigenvalues --    0.10118   0.10872   0.10872   0.16493   0.21629
 Alpha virt. eigenvalues --    0.21629   0.29902   0.61078   0.61079   0.61622

 Mulliken charges:
               1
     1  C   -0.557485
     2  Cl  -0.285781
     3  H    0.281100
     4  H    0.281083
     5  H    0.281083
 Sum of Mulliken charges =  -0.00000

 Dipole moment (field-independent basis, Debye):
    X=              0.0001    Y=             -4.6117    Z=              0.0000  Tot=              4.6117
 Quadrupole moment (field-independent basis, Debye-Ang):
   XX=            -20.4878   YY=            -15.0551   ZZ=            -20.4877
   XY=              0.0003   XZ=              0.0000   YZ=             -0.0000

 Normal termination of Gaussian 16 at Fri Sep 22 17:18:53 2023.
