 Gaussian 16, Revision A.03,
 Gaussian 16:  ES64L-G16RevA.03 25-Dec-2016

 ------------------------------------------------------------------
 # 6-31+g(d) scrf=(solvent=water,pcm) int=ultrafine m062x scf=tight
 ------------------------------------------------------------------

 ----------------------
 tmpdir/M2_conf_5_6.gjf
 ----------------------
 Symbolic Z-matrix:
 Charge =  0 Multiplicity = 1

                         Standard orientation:
 ---------------------------------------------------------------------
 Center     Atomic      Atomic             Coordinates (Angstroms)
 Number     Number       Type             X           Y           Z
 ---------------------------------------------------------------------
      1          1           0        0.353717   -0.351711    0.971629
      2          6           0        0.014028    0.000124   -0.000035
      3          1           0        0.358300   -0.662220   -0.791284
      4          1           0        0.346364    1.020398   -0.178638
      5          1           0       -1.142546   -0.007212   -0.001498
 ---------------------------------------------------------------------

 SCF Done:  E(RM062X) =  -40.4813504076     A.U. after    9 cycles

 The electronic state is 1-A.
 Alpha  occ. eigenvalues --  -10.53190  -0.78171  -0.45983  -0.45971  -0.44094
 Alpha virt. eigenvalues --    0.03929   0.07154   0.07154   0.07351   0.21196
 Alpha virt. eigenvalues --    0.23329   0.23338   0.30700   0.68992   0.68993
 Alpha virt. eigenvalues --    0.70529   0.96526   1.00484   1.00505   1.10740

 Mulliken charges:
               1
     1  H    0.211504
     2  C   -0.828068
     3  H    0.211495
     4  H    0.211511
     5  H    0.193558
 Sum of Mulliken charges =   0.00000

 Dipole moment (field-independent basis, Debye):
    X=              0.0264    Y=              0.0000    Z=              0.0004  Tot=              0.0264
 Quadrupole moment (field-independent basis, Debye-Ang):
   XX=             -8.5931   YY=             -8.4732   ZZ=             -8.4757
   XY=             -0.0016   XZ=             -0.0004   YZ=              0.0000

 Normal termination of Gaussian 16 at Fri Sep 22 17:08:38 2023.
