 Gaussian 16, Revision A.03,
 Gaussian 16:  ES64L-G16RevA.03 25-Dec-2016

 ------------------------------------------------------------------
 # 6-31+g(d) scrf=(solvent=water,pcm) int=ultrafine m062x scf=tight
 ------------------------------------------------------------------

 -----------------------
 tmpdir/M2_conf_62_5.gjf
 -----------------------
 Symbolic Z-matrix:
 Charge =  0 Multiplicity = 1

                         Standard orientation:
 ---------------------------------------------------------------------
 Center     Atomic      Atomic             Coordinates (Angstroms)
 Number     Number       Type             X           Y           Z
 ---------------------------------------------------------------------
      1          1           0        1.031251    0.032396   -0.388983
      2          6           0        0.011612   -0.013304   -0.012743
      3          1           0       -0.765724   -0.255394   -0.734162
      4          1           0       -0.066884   -0.728731    0.802922
      5          1           0       -0.268317    1.031555    0.396680
 ---------------------------------------------------------------------

 SCF Done:  E(RM062X) =  -40.4801471541     A.U. after    9 cycles

 The electronic state is 1-A.
 Alpha  occ. eigenvalues --  -10.53200  -0.78196  -0.46985  -0.45379  -0.43656
 Alpha virt. eigenvalues --    0.03925   0.07084   0.07194   0.07373   0.20928
 Alpha virt. eigenvalues --    0.22836   0.24085   0.30626   0.68959   0.69129
 Alpha virt. eigenvalues --    0.70529   0.95830   0.99352   1.02209   1.10939

 Mulliken charges:
               1
     1  H    0.213896
     2  C   -0.829818
     3  H    0.212423
     4  H    0.210813
     5  H    0.192685
 Sum of Mulliken charges =  -0.00000

 Dipole moment (field-independent basis, Debye):
    X=             -0.0300    Y=             -0.0219    Z=              0.0208  Tot=              0.0426
 Quadrupole moment (field-independent basis, Debye-Ang):
   XX=             -8.2627   YY=             -8.5937   ZZ=             -8.6989
   XY=              0.0550   XZ=              0.0152   YZ=             -0.0801

 Normal termination of Gaussian 16 at Fri Sep 22 17:14:58 2023.
