 Gaussian 16, Revision A.03,
 Gaussian 16:  ES64L-G16RevA.03 25-Dec-2016

 ------------------------------------------------------------------
 # 6-31+g(d) scrf=(solvent=water,pcm) int=ultrafine m062x scf=tight
 ------------------------------------------------------------------

 ------------------------
 tmpdir/M2_conf_111_9.gjf
 ------------------------
 Symbolic Z-matrix:
 Charge =  0 Multiplicity = 1

                         Standard orientation:
 ---------------------------------------------------------------------
 Center     Atomic      Atomic             Coordinates (Angstroms)
 Number     Number       Type             X           Y           Z
 ---------------------------------------------------------------------
      1          1           0       -1.066222    1.028525   -0.000000
      2          6           0        0.015894    1.139587   -0.000000
      3         17           0        0.015894   -0.657916    0.000000
      4          1           0        0.350333    1.659268    0.895200
      5          1           0        0.350333    1.659268   -0.895200
 ---------------------------------------------------------------------

 SCF Done:  E(RM062X) =  -500.026865953     A.U. after   11 cycles

 The electronic state is 1-A'.
 Alpha  occ. eigenvalues -- -102.66422 -10.59907  -9.81190  -7.53590  -7.52926
 Alpha  occ. eigenvalues --   -7.52906  -0.96075  -0.76548  -0.53309  -0.51588
 Alpha  occ. eigenvalues --   -0.46447  -0.37257  -0.35435
 Alpha virt. eigenvalues --    0.02334   0.03532   0.06812   0.06967   0.09068
 Alpha virt. eigenvalues --    0.10558   0.11069   0.11808   0.17635   0.21510
 Alpha virt. eigenvalues --    0.22891   0.28663   0.59957   0.63067   0.65207

 Mulliken charges:
               1
     1  H    0.244509
     2  C   -0.683695
     3  Cl  -0.093113
     4  H    0.266150
     5  H    0.266150
 Sum of Mulliken charges =  -0.00000

 Dipole moment (field-independent basis, Debye):
    X=             -0.2279    Y=              2.5398    Z=              0.0000  Tot=              2.5500
 Quadrupole moment (field-independent basis, Debye-Ang):
   XX=            -20.3874   YY=            -18.0427   ZZ=            -20.0062
   XY=              0.6800   XZ=              0.0000   YZ=              0.0000

 Normal termination of Gaussian 16 at Fri Sep 22 17:20:39 2023.
