 Gaussian 16, Revision A.03,
 Gaussian 16:  ES64L-G16RevA.03 25-Dec-2016

 ------------------------------------------------------------------
 # 6-31+g(d) scrf=(solvent=water,pcm) int=ultrafine m062x scf=tight
 ------------------------------------------------------------------

 ------------------------
 tmpdir/M2_conf_114_7.gjf
 ------------------------
 Symbolic Z-matrix:
 Charge =  0 Multiplicity = 1

                         Standard orientation:
 ---------------------------------------------------------------------
 Center     Atomic      Atomic             Coordinates (Angstroms)
 Number     Number       Type             X           Y           Z
 ---------------------------------------------------------------------
      1          1           0        1.063642    1.010867    0.000000
      2          6           0       -0.016483    1.139854    0.000000
      3         17           0       -0.016483   -0.657647    0.000000
      4          1           0       -0.342261    1.665008    0.895200
      5          1           0       -0.342261    1.665008   -0.895200
 ---------------------------------------------------------------------

 SCF Done:  E(RM062X) =  -500.024843347     A.U. after   11 cycles

 The electronic state is 1-A'.
 Alpha  occ. eigenvalues -- -102.66440 -10.59889  -9.81212  -7.53612  -7.52946
 Alpha  occ. eigenvalues --   -7.52926  -0.96141  -0.76535  -0.53406  -0.51584
 Alpha  occ. eigenvalues --   -0.46400  -0.37283  -0.35336
 Alpha virt. eigenvalues --    0.02297   0.03535   0.06806   0.06968   0.09062
 Alpha virt. eigenvalues --    0.10518   0.11066   0.11795   0.17622   0.21500
 Alpha virt. eigenvalues --    0.22926   0.28608   0.59926   0.63044   0.65232

 Mulliken charges:
               1
     1  H    0.243681
     2  C   -0.683006
     3  Cl  -0.093239
     4  H    0.266282
     5  H    0.266282
 Sum of Mulliken charges =  -0.00000

 Dipole moment (field-independent basis, Debye):
    X=              0.2380    Y=              2.5297    Z=              0.0000  Tot=              2.5409
 Quadrupole moment (field-independent basis, Debye-Ang):
   XX=            -20.4124   YY=            -18.0379   ZZ=            -20.0036
   XY=             -0.6977   XZ=             -0.0000   YZ=              0.0000

 Normal termination of Gaussian 16 at Fri Sep 22 17:21:01 2023.
