 Gaussian 16, Revision A.03,
 Gaussian 16:  ES64L-G16RevA.03 25-Dec-2016

 ------------------------------------------------------------------
 # 6-31+g(d) scrf=(solvent=water,pcm) int=ultrafine m062x scf=tight
 ------------------------------------------------------------------

 -----------------------
 tmpdir/M2_conf_52_7.gjf
 -----------------------
 Symbolic Z-matrix:
 Charge =  0 Multiplicity = 1

                         Standard orientation:
 ---------------------------------------------------------------------
 Center     Atomic      Atomic             Coordinates (Angstroms)
 Number     Number       Type             X           Y           Z
 ---------------------------------------------------------------------
      1          1           0        1.055623    1.385117    0.000000
      2          6           0       -0.003349    1.136347   -0.000000
      3         17           0       -0.003349   -0.661148   -0.000000
      4          1           0       -0.489293    1.518155    0.895200
      5          1           0       -0.489293    1.518155   -0.895200
 ---------------------------------------------------------------------

 SCF Done:  E(RM062X) =  -500.049934837     A.U. after   10 cycles

 The electronic state is 1-A'.
 Alpha  occ. eigenvalues -- -102.66263 -10.60049  -9.80995  -7.53388  -7.52739
 Alpha  occ. eigenvalues --   -7.52735  -0.95406  -0.76689  -0.51884  -0.51700
 Alpha  occ. eigenvalues --   -0.47349  -0.36849  -0.36639
 Alpha virt. eigenvalues --    0.02796   0.03490   0.06905   0.06934   0.09127
 Alpha virt. eigenvalues --    0.11078   0.11100   0.12183   0.17786   0.21777
 Alpha virt. eigenvalues --    0.22136   0.29681   0.60585   0.63590   0.63986

 Mulliken charges:
               1
     1  H    0.259745
     2  C   -0.700837
     3  Cl  -0.085238
     4  H    0.263166
     5  H    0.263166
 Sum of Mulliken charges =  -0.00000

 Dipole moment (field-independent basis, Debye):
    X=              0.0434    Y=              2.6288    Z=             -0.0000  Tot=              2.6291
 Quadrupole moment (field-independent basis, Debye-Ang):
   XX=            -20.0663   YY=            -18.1288   ZZ=            -20.0419
   XY=             -0.1608   XZ=             -0.0000   YZ=              0.0000

 Normal termination of Gaussian 16 at Fri Sep 22 17:13:52 2023.
