 Gaussian 16, Revision A.03,
 Gaussian 16:  ES64L-G16RevA.03 25-Dec-2016

 ------------------------------------------------------------------
 # 6-31+g(d) scrf=(solvent=water,pcm) int=ultrafine m062x scf=tight
 ------------------------------------------------------------------

 -----------------------
 tmpdir/M2_conf_62_4.gjf
 -----------------------
 Symbolic Z-matrix:
 Charge =  0 Multiplicity = 1

                         Standard orientation:
 ---------------------------------------------------------------------
 Center     Atomic      Atomic             Coordinates (Angstroms)
 Number     Number       Type             X           Y           Z
 ---------------------------------------------------------------------
      1          6           0       -0.000000   -1.295029    0.000000
      2         17           0       -0.000000    0.745371    0.000000
      3          1           0       -1.033730   -1.633709    0.000000
      4          1           0        0.516870   -1.633709    0.895240
      5          1           0        0.516870   -1.633709   -0.895240
 ---------------------------------------------------------------------

 SCF Done:  E(RM062X) =  -500.034757092     A.U. after   10 cycles

 The electronic state is 1-A'.
 Alpha  occ. eigenvalues -- -102.66450 -10.62349  -9.80901  -7.53285  -7.52649
 Alpha  occ. eigenvalues --   -7.52649  -0.91311  -0.78743  -0.51190  -0.51190
 Alpha  occ. eigenvalues --   -0.44420  -0.37318  -0.37317
 Alpha virt. eigenvalues --   -0.01702   0.03636   0.07033   0.07034   0.07908
 Alpha virt. eigenvalues --    0.09809   0.10968   0.10968   0.17106   0.21898
 Alpha virt. eigenvalues --    0.21899   0.29914   0.61132   0.61967   0.61968

 Mulliken charges:
               1
     1  C   -0.636095
     2  Cl  -0.183376
     3  H    0.273150
     4  H    0.273161
     5  H    0.273161
 Sum of Mulliken charges =  -0.00000

 Dipole moment (field-independent basis, Debye):
    X=              0.0003    Y=             -3.5347    Z=              0.0000  Tot=              3.5347
 Quadrupole moment (field-independent basis, Debye-Ang):
   XX=            -20.3062   YY=            -16.6747   ZZ=            -20.3061
   XY=              0.0001   XZ=              0.0000   YZ=             -0.0000

 Normal termination of Gaussian 16 at Fri Sep 22 17:14:59 2023.
