 Gaussian 16, Revision A.03,
 Gaussian 16:  ES64L-G16RevA.03 25-Dec-2016

 ------------------------------------------------------------------
 # 6-31+g(d) scrf=(solvent=water,pcm) int=ultrafine m062x scf=tight
 ------------------------------------------------------------------

 -----------------------
 tmpdir/M2_conf_47_6.gjf
 -----------------------
 Symbolic Z-matrix:
 Charge =  0 Multiplicity = 1

                         Standard orientation:
 ---------------------------------------------------------------------
 Center     Atomic      Atomic             Coordinates (Angstroms)
 Number     Number       Type             X           Y           Z
 ---------------------------------------------------------------------
      1          1           0       -0.898211    0.495424   -0.391827
      2          6           0       -0.013726   -0.008178   -0.007924
      3          1           0        0.482970   -0.647797   -0.734202
      4          1           0       -0.257404   -0.597687    0.873214
      5          1           0        0.755000    0.799127    0.300360
 ---------------------------------------------------------------------

 SCF Done:  E(RM062X) =  -40.4809403151     A.U. after    9 cycles

 The electronic state is 1-A.
 Alpha  occ. eigenvalues --  -10.53196  -0.78180  -0.46543  -0.45612  -0.43891
 Alpha virt. eigenvalues --    0.03926   0.07115   0.07177   0.07362   0.21078
 Alpha virt. eigenvalues --    0.23041   0.23744   0.30666   0.68967   0.69049
 Alpha virt. eigenvalues --    0.70526   0.96205   0.99814   1.01464   1.10807

 Mulliken charges:
               1
     1  H    0.212738
     2  C   -0.828746
     3  H    0.211886
     4  H    0.211087
     5  H    0.193035
 Sum of Mulliken charges =  -0.00000

 Dipole moment (field-independent basis, Debye):
    X=              0.0020    Y=             -0.0262    Z=              0.0095  Tot=              0.0280
 Quadrupole moment (field-independent basis, Debye-Ang):
   XX=             -8.4532   YY=             -8.5014   ZZ=             -8.5928
   XY=             -0.1237   XZ=             -0.0413   YZ=             -0.0476

 Normal termination of Gaussian 16 at Fri Sep 22 17:13:18 2023.
