 Gaussian 16, Revision A.03,
 Gaussian 16:  ES64L-G16RevA.03 25-Dec-2016

 ------------------------------------------------------------------
 # 6-31+g(d) scrf=(solvent=water,pcm) int=ultrafine m062x scf=tight
 ------------------------------------------------------------------

 -----------------------
 tmpdir/M2_conf_33_4.gjf
 -----------------------
 Symbolic Z-matrix:
 Charge =  0 Multiplicity = 1

                         Standard orientation:
 ---------------------------------------------------------------------
 Center     Atomic      Atomic             Coordinates (Angstroms)
 Number     Number       Type             X           Y           Z
 ---------------------------------------------------------------------
      1          6           0       -0.000000   -1.160598    0.000000
      2         17           0       -0.000000    0.674202    0.000000
      3          1           0       -1.033730   -1.499278    0.000000
      4          1           0        0.516870   -1.499278    0.895240
      5          1           0        0.516870   -1.499278   -0.895240
 ---------------------------------------------------------------------

 SCF Done:  E(RM062X) =  -500.050371614     A.U. after   10 cycles

 The electronic state is 1-A'.
 Alpha  occ. eigenvalues -- -102.66320 -10.60410  -9.80994  -7.53386  -7.52738
 Alpha  occ. eigenvalues --   -7.52738  -0.94607  -0.77032  -0.51568  -0.51568
 Alpha  occ. eigenvalues --   -0.46946  -0.36911  -0.36911
 Alpha virt. eigenvalues --    0.02325   0.03514   0.06951   0.06952   0.09131
 Alpha virt. eigenvalues --    0.11077   0.11077   0.11321   0.17680   0.21954
 Alpha virt. eigenvalues --    0.21954   0.29778   0.60879   0.63419   0.63419

 Mulliken charges:
               1
     1  C   -0.693408
     2  Cl  -0.099036
     3  H    0.264166
     4  H    0.264139
     5  H    0.264139
 Sum of Mulliken charges =  -0.00000

 Dipole moment (field-independent basis, Debye):
    X=             -0.0001    Y=             -2.7576    Z=              0.0000  Tot=              2.7576
 Quadrupole moment (field-independent basis, Debye-Ang):
   XX=            -20.0927   YY=            -17.9211   ZZ=            -20.0927
   XY=              0.0002   XZ=              0.0000   YZ=             -0.0000

 Normal termination of Gaussian 16 at Fri Sep 22 17:11:46 2023.
