 Gaussian 16, Revision A.03,
 Gaussian 16:  ES64L-G16RevA.03 25-Dec-2016

 ------------------------------------------------------------------
 # 6-31+g(d) scrf=(solvent=water,pcm) int=ultrafine m062x scf=tight
 ------------------------------------------------------------------

 -----------------------
 tmpdir/M2_conf_65_4.gjf
 -----------------------
 Symbolic Z-matrix:
 Charge =  0 Multiplicity = 1

                         Standard orientation:
 ---------------------------------------------------------------------
 Center     Atomic      Atomic             Coordinates (Angstroms)
 Number     Number       Type             X           Y           Z
 ---------------------------------------------------------------------
      1          6           0       -0.000000   -1.309152    0.000000
      2         17           0       -0.000000    0.752848    0.000000
      3          1           0       -1.033730   -1.647832    0.000000
      4          1           0        0.516870   -1.647832    0.895240
      5          1           0        0.516870   -1.647832   -0.895240
 ---------------------------------------------------------------------

 SCF Done:  E(RM062X) =  -500.032347013     A.U. after   10 cycles

 The electronic state is 1-A'.
 Alpha  occ. eigenvalues -- -102.66446 -10.62545  -9.80880  -7.53263  -7.52628
 Alpha  occ. eigenvalues --   -7.52628  -0.91042  -0.78909  -0.51200  -0.51200
 Alpha  occ. eigenvalues --   -0.44160  -0.37327  -0.37326
 Alpha virt. eigenvalues --   -0.02189   0.03644   0.07035   0.07035   0.07767
 Alpha virt. eigenvalues --    0.09825   0.10958   0.10958   0.17049   0.21881
 Alpha virt. eigenvalues --    0.21882   0.29921   0.61145   0.61853   0.61854

 Mulliken charges:
               1
     1  C   -0.629371
     2  Cl  -0.192500
     3  H    0.273950
     4  H    0.273960
     5  H    0.273960
 Sum of Mulliken charges =  -0.00000

 Dipole moment (field-independent basis, Debye):
    X=              0.0003    Y=             -3.6235    Z=              0.0000  Tot=              3.6235
 Quadrupole moment (field-independent basis, Debye-Ang):
   XX=            -20.3251   YY=            -16.5371   ZZ=            -20.3250
   XY=              0.0001   XZ=              0.0000   YZ=             -0.0000

 Normal termination of Gaussian 16 at Fri Sep 22 17:15:19 2023.
