 Gaussian 16, Revision A.03,
 Gaussian 16:  ES64L-G16RevA.03 25-Dec-2016

 ------------------------------------------------------------------
 # 6-31+g(d) scrf=(solvent=water,pcm) int=ultrafine m062x scf=tight
 ------------------------------------------------------------------

 -----------------------
 tmpdir/M2_conf_98_9.gjf
 -----------------------
 Symbolic Z-matrix:
 Charge =  0 Multiplicity = 1

                         Standard orientation:
 ---------------------------------------------------------------------
 Center     Atomic      Atomic             Coordinates (Angstroms)
 Number     Number       Type             X           Y           Z
 ---------------------------------------------------------------------
      1          1           0       -1.074642    1.116004    0.000000
      2          6           0        0.012928    1.138408    0.000000
      3         17           0        0.012928   -0.659094    0.000000
      4          1           0        0.388652    1.629070    0.895200
      5          1           0        0.388652    1.629070   -0.895200
 ---------------------------------------------------------------------

 SCF Done:  E(RM062X) =  -500.035556559     A.U. after   11 cycles

 The electronic state is 1-A'.
 Alpha  occ. eigenvalues -- -102.66352 -10.59974  -9.81105  -7.53503  -7.52846
 Alpha  occ. eigenvalues --   -7.52828  -0.95804  -0.76605  -0.52860  -0.51609
 Alpha  occ. eigenvalues --   -0.46697  -0.37139  -0.35859
 Alpha virt. eigenvalues --    0.02498   0.03518   0.06839   0.06960   0.09090
 Alpha virt. eigenvalues --    0.10748   0.11082   0.11883   0.17691   0.21556
 Alpha virt. eigenvalues --    0.22713   0.28953   0.60122   0.63183   0.65005

 Mulliken charges:
               1
     1  H    0.248687
     2  C   -0.687988
     3  Cl  -0.091655
     4  H    0.265478
     5  H    0.265478
 Sum of Mulliken charges =  -0.00000

 Dipole moment (field-independent basis, Debye):
    X=             -0.1797    Y=              2.5792    Z=              0.0000  Tot=              2.5855
 Quadrupole moment (field-independent basis, Debye-Ang):
   XX=            -20.2753   YY=            -18.0681   ZZ=            -20.0176
   XY=              0.5781   XZ=             -0.0000   YZ=              0.0000

 Normal termination of Gaussian 16 at Fri Sep 22 17:19:07 2023.
