 Gaussian 16, Revision A.03,
 Gaussian 16:  ES64L-G16RevA.03 25-Dec-2016

 ------------------------------------------------------------------
 # 6-31+g(d) scrf=(solvent=water,pcm) int=ultrafine m062x scf=tight
 ------------------------------------------------------------------

 ------------------------
 tmpdir/M2_conf_71_10.gjf
 ------------------------
 Symbolic Z-matrix:
 Charge =  0 Multiplicity = 1

                         Standard orientation:
 ---------------------------------------------------------------------
 Center     Atomic      Atomic             Coordinates (Angstroms)
 Number     Number       Type             X           Y           Z
 ---------------------------------------------------------------------
      1          1           0        1.070704    1.284662    0.000000
      2          6           0       -0.007006    1.136842    0.000000
      3         17           0       -0.007006   -0.660661    0.000000
      4          1           0       -0.454787    1.562764    0.895200
      5          1           0       -0.454787    1.562764   -0.895200
 ---------------------------------------------------------------------

 SCF Done:  E(RM062X) =  -500.046618452     A.U. after   10 cycles

 The electronic state is 1-A'.
 Alpha  occ. eigenvalues -- -102.66280 -10.60036  -9.81016  -7.53411  -7.52761
 Alpha  occ. eigenvalues --   -7.52751  -0.95491  -0.76671  -0.52160  -0.51657
 Alpha  occ. eigenvalues --   -0.47161  -0.36950  -0.36427
 Alpha virt. eigenvalues --    0.02724   0.03497   0.06883   0.06945   0.09118
 Alpha virt. eigenvalues --    0.11007   0.11097   0.12079   0.17765   0.21665
 Alpha virt. eigenvalues --    0.22355   0.29480   0.60446   0.63427   0.64368

 Mulliken charges:
               1
     1  H    0.256201
     2  C   -0.697171
     3  Cl  -0.087230
     4  H    0.264100
     5  H    0.264100
 Sum of Mulliken charges =  -0.00000

 Dipole moment (field-independent basis, Debye):
    X=              0.0931    Y=              2.6193    Z=              0.0000  Tot=              2.6210
 Quadrupole moment (field-independent basis, Debye-Ang):
   XX=            -20.1188   YY=            -18.1126   ZZ=            -20.0343
   XY=             -0.3307   XZ=             -0.0000   YZ=              0.0000

 Normal termination of Gaussian 16 at Fri Sep 22 17:15:58 2023.
