 Gaussian 16, Revision A.03,
 Gaussian 16:  ES64L-G16RevA.03 25-Dec-2016

 ------------------------------------------------------------------
 # 6-31+g(d) scrf=(solvent=water,pcm) int=ultrafine m062x scf=tight
 ------------------------------------------------------------------

 ------------------------
 tmpdir/M2_conf_51_10.gjf
 ------------------------
 Symbolic Z-matrix:
 Charge =  0 Multiplicity = 1

                         Standard orientation:
 ---------------------------------------------------------------------
 Center     Atomic      Atomic             Coordinates (Angstroms)
 Number     Number       Type             X           Y           Z
 ---------------------------------------------------------------------
      1          1           0        1.054735    1.389543   -0.000000
      2          6           0       -0.003186    1.136339   -0.000000
      3         17           0       -0.003186   -0.661164    0.000000
      4          1           0       -0.490725    1.516107    0.895200
      5          1           0       -0.490725    1.516107   -0.895200
 ---------------------------------------------------------------------

 SCF Done:  E(RM062X) =  -500.050026533     A.U. after   10 cycles

 The electronic state is 1-A'.
 Alpha  occ. eigenvalues -- -102.66263 -10.60049  -9.80995  -7.53388  -7.52739
 Alpha  occ. eigenvalues --   -7.52734  -0.95403  -0.76690  -0.51874  -0.51703
 Alpha  occ. eigenvalues --   -0.47355  -0.36845  -0.36647
 Alpha virt. eigenvalues --    0.02798   0.03490   0.06906   0.06933   0.09127
 Alpha virt. eigenvalues --    0.11080   0.11100   0.12186   0.17787   0.21783
 Alpha virt. eigenvalues --    0.22126   0.29687   0.60590   0.63597   0.63971

 Mulliken charges:
               1
     1  H    0.259882
     2  C   -0.700943
     3  Cl  -0.085182
     4  H    0.263121
     5  H    0.263121
 Sum of Mulliken charges =  -0.00000

 Dipole moment (field-independent basis, Debye):
    X=              0.0413    Y=              2.6290    Z=             -0.0000  Tot=              2.6293
 Quadrupole moment (field-independent basis, Debye-Ang):
   XX=            -20.0648   YY=            -18.1292   ZZ=            -20.0422
   XY=             -0.1531   XZ=              0.0000   YZ=             -0.0000

 Normal termination of Gaussian 16 at Fri Sep 22 17:13:46 2023.
