 Gaussian 16, Revision A.03,
 Gaussian 16:  ES64L-G16RevA.03 25-Dec-2016

 ------------------------------------------------------------------
 # 6-31+g(d) scrf=(solvent=water,pcm) int=ultrafine m062x scf=tight
 ------------------------------------------------------------------

 -----------------------
 tmpdir/M2_conf_63_6.gjf
 -----------------------
 Symbolic Z-matrix:
 Charge =  0 Multiplicity = 1

                         Standard orientation:
 ---------------------------------------------------------------------
 Center     Atomic      Atomic             Coordinates (Angstroms)
 Number     Number       Type             X           Y           Z
 ---------------------------------------------------------------------
      1          1           0       -1.031946    0.027657   -0.388375
      2          6           0       -0.011773   -0.013341   -0.013042
      3          1           0        0.768915   -0.246988   -0.733628
      4          1           0        0.071808   -0.731993    0.799275
      5          1           0        0.261858    1.031373    0.400983
 ---------------------------------------------------------------------

 SCF Done:  E(RM062X) =  -40.4800787001     A.U. after    9 cycles

 The electronic state is 1-A.
 Alpha  occ. eigenvalues --  -10.53201  -0.78197  -0.47015  -0.45366  -0.43638
 Alpha virt. eigenvalues --    0.03925   0.07082   0.07195   0.07374   0.20916
 Alpha virt. eigenvalues --    0.22824   0.24108   0.30622   0.68959   0.69135
 Alpha virt. eigenvalues --    0.70529   0.95801   0.99324   1.02258   1.10951

 Mulliken charges:
               1
     1  H    0.213982
     2  C   -0.829913
     3  H    0.212468
     4  H    0.210798
     5  H    0.192665
 Sum of Mulliken charges =   0.00000

 Dipole moment (field-independent basis, Debye):
    X=              0.0312    Y=             -0.0217    Z=              0.0216  Tot=              0.0437
 Quadrupole moment (field-independent basis, Debye-Ang):
   XX=             -8.2555   YY=             -8.5944   ZZ=             -8.7060
   XY=             -0.0536   XZ=             -0.0148   YZ=             -0.0810

 Normal termination of Gaussian 16 at Fri Sep 22 17:15:04 2023.
