 Gaussian 16, Revision A.03,
 Gaussian 16:  ES64L-G16RevA.03 25-Dec-2016

 ------------------------------------------------------------------
 # 6-31+g(d) scrf=(solvent=water,pcm) int=ultrafine m062x scf=tight
 ------------------------------------------------------------------

 ------------------------
 tmpdir/M2_conf_94_10.gjf
 ------------------------
 Symbolic Z-matrix:
 Charge =  0 Multiplicity = 1

                         Standard orientation:
 ---------------------------------------------------------------------
 Center     Atomic      Atomic             Coordinates (Angstroms)
 Number     Number       Type             X           Y           Z
 ---------------------------------------------------------------------
      1          1           0        1.075746    1.141529    0.000000
      2          6           0       -0.012049    1.138110   -0.000000
      3         17           0       -0.012049   -0.659389    0.000000
      4          1           0       -0.399314    1.619715    0.895200
      5          1           0       -0.399314    1.619715   -0.895200
 ---------------------------------------------------------------------

 SCF Done:  E(RM062X) =  -500.037694651     A.U. after   11 cycles

 The electronic state is 1-A'.
 Alpha  occ. eigenvalues -- -102.66336 -10.59988  -9.81086  -7.53483  -7.52828
 Alpha  occ. eigenvalues --   -7.52811  -0.95740  -0.76619  -0.52739  -0.51615
 Alpha  occ. eigenvalues --   -0.46772  -0.37108  -0.35964
 Alpha virt. eigenvalues --    0.02540   0.03514   0.06846   0.06958   0.09096
 Alpha virt. eigenvalues --    0.10798   0.11085   0.11909   0.17705   0.21570
 Alpha virt. eigenvalues --    0.22660   0.29040   0.60172   0.63218   0.64924

 Mulliken charges:
               1
     1  H    0.249902
     2  C   -0.689420
     3  Cl  -0.091038
     4  H    0.265278
     5  H    0.265278
 Sum of Mulliken charges =  -0.00000

 Dipole moment (field-independent basis, Debye):
    X=              0.1662    Y=              2.5878    Z=              0.0000  Tot=              2.5932
 Quadrupole moment (field-independent basis, Debye-Ang):
   XX=            -20.2464   YY=            -18.0757   ZZ=            -20.0205
   XY=             -0.5445   XZ=             -0.0000   YZ=              0.0000

 Normal termination of Gaussian 16 at Fri Sep 22 17:18:39 2023.
