 Gaussian 16, Revision A.03,
 Gaussian 16:  ES64L-G16RevA.03 25-Dec-2016

 ------------------------------------------------------------------
 # 6-31+g(d) scrf=(solvent=water,pcm) int=ultrafine m062x scf=tight
 ------------------------------------------------------------------

 -----------------------
 tmpdir/M2_conf_78_4.gjf
 -----------------------
 Symbolic Z-matrix:
 Charge =  0 Multiplicity = 1

                         Standard orientation:
 ---------------------------------------------------------------------
 Center     Atomic      Atomic             Coordinates (Angstroms)
 Number     Number       Type             X           Y           Z
 ---------------------------------------------------------------------
      1          6           0       -0.000000   -1.370222    0.000000
      2         17           0       -0.000000    0.785178    0.000000
      3          1           0       -1.033730   -1.708902    0.000000
      4          1           0        0.516870   -1.708902    0.895240
      5          1           0        0.516870   -1.708902   -0.895240
 ---------------------------------------------------------------------

 SCF Done:  E(RM062X) =  -500.021137436     A.U. after   10 cycles

 The electronic state is 1-A'.
 Alpha  occ. eigenvalues -- -102.66386 -10.63375  -9.80756  -7.53135  -7.52507
 Alpha  occ. eigenvalues --   -7.52507  -0.90009  -0.79594  -0.51319  -0.51319
 Alpha  occ. eigenvalues --   -0.43067  -0.37308  -0.37307
 Alpha virt. eigenvalues --   -0.04270   0.03670   0.07029   0.07030   0.07304
 Alpha virt. eigenvalues --    0.09934   0.10918   0.10918   0.16807   0.21791
 Alpha virt. eigenvalues --    0.21791   0.29933   0.61264   0.61444   0.61445

 Mulliken charges:
               1
     1  C   -0.599307
     2  Cl  -0.232199
     3  H    0.277173
     4  H    0.277167
     5  H    0.277167
 Sum of Mulliken charges =   0.00000

 Dipole moment (field-independent basis, Debye):
    X=              0.0002    Y=             -4.0240    Z=              0.0000  Tot=              4.0240
 Quadrupole moment (field-independent basis, Debye-Ang):
   XX=            -20.4004   YY=            -15.9279   ZZ=            -20.4003
   XY=              0.0002   XZ=             -0.0000   YZ=             -0.0000

 Normal termination of Gaussian 16 at Fri Sep 22 17:16:46 2023.
