 Gaussian 16, Revision A.03,
 Gaussian 16:  ES64L-G16RevA.03 25-Dec-2016

 ------------------------------------------------------------------
 # 6-31+g(d) scrf=(solvent=water,pcm) int=ultrafine m062x scf=tight
 ------------------------------------------------------------------

 ------------------------
 tmpdir/M2_conf_63_10.gjf
 ------------------------
 Symbolic Z-matrix:
 Charge =  0 Multiplicity = 1

                         Standard orientation:
 ---------------------------------------------------------------------
 Center     Atomic      Atomic             Coordinates (Angstroms)
 Number     Number       Type             X           Y           Z
 ---------------------------------------------------------------------
      1          1           0        1.065077    1.330139    0.000000
      2          6           0       -0.005362    1.136574   -0.000000
      3         17           0       -0.005362   -0.660922    0.000000
      4          1           0       -0.470870    1.543048    0.895200
      5          1           0       -0.470870    1.543048   -0.895200
 ---------------------------------------------------------------------

 SCF Done:  E(RM062X) =  -500.048413259     A.U. after   10 cycles

 The electronic state is 1-A'.
 Alpha  occ. eigenvalues -- -102.66271 -10.60044  -9.81005  -7.53398  -7.52749
 Alpha  occ. eigenvalues --   -7.52742  -0.95444  -0.76681  -0.52019  -0.51675
 Alpha  occ. eigenvalues --   -0.47259  -0.36904  -0.36533
 Alpha virt. eigenvalues --    0.02763   0.03493   0.06893   0.06940   0.09123
 Alpha virt. eigenvalues --    0.11046   0.11099   0.12131   0.17777   0.21709
 Alpha virt. eigenvalues --    0.22256   0.29586   0.60518   0.63499   0.64185

 Mulliken charges:
               1
     1  H    0.257908
     2  C   -0.699104
     3  Cl  -0.086191
     4  H    0.263693
     5  H    0.263693
 Sum of Mulliken charges =  -0.00000

 Dipole moment (field-independent basis, Debye):
    X=              0.0705    Y=              2.6246    Z=             -0.0000  Tot=              2.6256
 Quadrupole moment (field-independent basis, Debye-Ang):
   XX=            -20.0911   YY=            -18.1212   ZZ=            -20.0379
   XY=             -0.2554   XZ=             -0.0000   YZ=             -0.0000

 Normal termination of Gaussian 16 at Fri Sep 22 17:15:06 2023.
