 Gaussian 16, Revision A.03,
 Gaussian 16:  ES64L-G16RevA.03 25-Dec-2016

 ------------------------------------------------------------------
 # 6-31+g(d) scrf=(solvent=water,pcm) int=ultrafine m062x scf=tight
 ------------------------------------------------------------------

 -----------------------
 tmpdir/M2_conf_53_9.gjf
 -----------------------
 Symbolic Z-matrix:
 Charge =  0 Multiplicity = 1

                         Standard orientation:
 ---------------------------------------------------------------------
 Center     Atomic      Atomic             Coordinates (Angstroms)
 Number     Number       Type             X           Y           Z
 ---------------------------------------------------------------------
      1          1           0       -1.056671    1.379774   -0.000000
      2          6           0        0.003546    1.136366   -0.000000
      3         17           0        0.003546   -0.661131    0.000000
      4          1           0        0.487552    1.520628    0.895200
      5          1           0        0.487552    1.520628   -0.895200
 ---------------------------------------------------------------------

 SCF Done:  E(RM062X) =  -500.049817902     A.U. after   10 cycles

 The electronic state is 1-A'.
 Alpha  occ. eigenvalues -- -102.66264 -10.60049  -9.80996  -7.53389  -7.52740
 Alpha  occ. eigenvalues --   -7.52735  -0.95409  -0.76689  -0.51895  -0.51698
 Alpha  occ. eigenvalues --   -0.47342  -0.36855  -0.36630
 Alpha virt. eigenvalues --    0.02794   0.03490   0.06904   0.06934   0.09126
 Alpha virt. eigenvalues --    0.11076   0.11100   0.12179   0.17785   0.21770
 Alpha virt. eigenvalues --    0.22147   0.29674   0.60580   0.63580   0.64004

 Mulliken charges:
               1
     1  H    0.259577
     2  C   -0.700700
     3  Cl  -0.085315
     4  H    0.263219
     5  H    0.263219
 Sum of Mulliken charges =   0.00000

 Dipole moment (field-independent basis, Debye):
    X=             -0.0460    Y=              2.6285    Z=             -0.0000  Tot=              2.6289
 Quadrupole moment (field-independent basis, Debye-Ang):
   XX=            -20.0683   YY=            -18.1282   ZZ=            -20.0415
   XY=              0.1702   XZ=              0.0000   YZ=             -0.0000

 Normal termination of Gaussian 16 at Fri Sep 22 17:13:59 2023.
