 Gaussian 16, Revision A.03,
 Gaussian 16:  ES64L-G16RevA.03 25-Dec-2016

 ------------------------------------------------------------------
 # 6-31+g(d) scrf=(solvent=water,pcm) int=ultrafine m062x scf=tight
 ------------------------------------------------------------------

 -----------------------
 tmpdir/M2_conf_31_6.gjf
 -----------------------
 Symbolic Z-matrix:
 Charge =  0 Multiplicity = 1

                         Standard orientation:
 ---------------------------------------------------------------------
 Center     Atomic      Atomic             Coordinates (Angstroms)
 Number     Number       Type             X           Y           Z
 ---------------------------------------------------------------------
      1          1           0       -0.350604    0.968804   -0.366239
      2          6           0       -0.014557    0.000508   -0.001845
      3          1           0       -0.276228   -0.797283   -0.693493
      4          1           0       -0.424186   -0.203643    0.984984
      5          1           0        1.138361    0.029074    0.085815
 ---------------------------------------------------------------------

 SCF Done:  E(RM062X) =  -40.4813181793     A.U. after    9 cycles

 The electronic state is 1-A.
 Alpha  occ. eigenvalues --  -10.53192  -0.78171  -0.46094  -0.45897  -0.44058
 Alpha virt. eigenvalues --    0.03928   0.07146   0.07159   0.07353   0.21176
 Alpha virt. eigenvalues --    0.23272   0.23416   0.30695   0.68986   0.69001
 Alpha virt. eigenvalues --    0.70528   0.96469   1.00351   1.00695   1.10746

 Mulliken charges:
               1
     1  H    0.211749
     2  C   -0.828158
     3  H    0.211558
     4  H    0.211416
     5  H    0.193435
 Sum of Mulliken charges =   0.00000

 Dipole moment (field-independent basis, Debye):
    X=             -0.0239    Y=             -0.0046    Z=              0.0012  Tot=              0.0244
 Quadrupole moment (field-independent basis, Debye-Ang):
   XX=             -8.5994   YY=             -8.4495   ZZ=             -8.4939
   XY=             -0.0072   XZ=             -0.0184   YZ=             -0.0009

 Normal termination of Gaussian 16 at Fri Sep 22 17:11:31 2023.
