 Gaussian 16, Revision A.03,
 Gaussian 16:  ES64L-G16RevA.03 25-Dec-2016

 ------------------------------------------------------------------
 # 6-31+g(d) scrf=(solvent=water,pcm) int=ultrafine m062x scf=tight
 ------------------------------------------------------------------

 -----------------------
 tmpdir/M2_conf_53_6.gjf
 -----------------------
 Symbolic Z-matrix:
 Charge =  0 Multiplicity = 1

                         Standard orientation:
 ---------------------------------------------------------------------
 Center     Atomic      Atomic             Coordinates (Angstroms)
 Number     Number       Type             X           Y           Z
 ---------------------------------------------------------------------
      1          1           0       -1.017699    0.141434   -0.392526
      2          6           0       -0.011073   -0.012344   -0.009949
      3          1           0        0.707153   -0.386080   -0.736439
      4          1           0       -0.021133   -0.689921    0.840987
      5          1           0        0.398119    1.008631    0.347669
 ---------------------------------------------------------------------

 SCF Done:  E(RM062X) =  -40.4806732307     A.U. after    9 cycles

 The electronic state is 1-A.
 Alpha  occ. eigenvalues --  -10.53197  -0.78184  -0.46720  -0.45511  -0.43804
 Alpha virt. eigenvalues --    0.03927   0.07103   0.07185   0.07367   0.21026
 Alpha virt. eigenvalues --    0.22956   0.23880   0.30651   0.68964   0.69078
 Alpha virt. eigenvalues --    0.70528   0.96070   0.99620   1.01767   1.10852

 Mulliken charges:
               1
     1  H    0.213168
     2  C   -0.829069
     3  H    0.212061
     4  H    0.210956
     5  H    0.192885
 Sum of Mulliken charges =   0.00000

 Dipole moment (field-independent basis, Debye):
    X=              0.0179    Y=             -0.0241    Z=              0.0138  Tot=              0.0331
 Quadrupole moment (field-independent basis, Debye-Ang):
   XX=             -8.3370   YY=             -8.5781   ZZ=             -8.6352
   XY=             -0.0812   XZ=             -0.0230   YZ=             -0.0685

 Normal termination of Gaussian 16 at Fri Sep 22 17:13:58 2023.
