 Gaussian 16, Revision A.03,
 Gaussian 16:  ES64L-G16RevA.03 25-Dec-2016

 ------------------------------------------------------------------
 # 6-31+g(d) scrf=(solvent=water,pcm) int=ultrafine m062x scf=tight
 ------------------------------------------------------------------

 ------------------------
 tmpdir/M2_conf_60_10.gjf
 ------------------------
 Symbolic Z-matrix:
 Charge =  0 Multiplicity = 1

                         Standard orientation:
 ---------------------------------------------------------------------
 Center     Atomic      Atomic             Coordinates (Angstroms)
 Number     Number       Type             X           Y           Z
 ---------------------------------------------------------------------
      1          1           0        1.062632    1.346113   -0.000000
      2          6           0       -0.004781    1.136499   -0.000000
      3         17           0       -0.004781   -0.660999    0.000000
      4          1           0       -0.476338    1.535938    0.895200
      5          1           0       -0.476338    1.535938   -0.895200
 ---------------------------------------------------------------------

 SCF Done:  E(RM062X) =  -500.048928132     A.U. after   10 cycles

 The electronic state is 1-A'.
 Alpha  occ. eigenvalues -- -102.66268 -10.60046  -9.81001  -7.53395  -7.52746
 Alpha  occ. eigenvalues --   -7.52739  -0.95431  -0.76684  -0.51976  -0.51682
 Alpha  occ. eigenvalues --   -0.47289  -0.36888  -0.36567
 Alpha virt. eigenvalues --    0.02774   0.03492   0.06897   0.06938   0.09124
 Alpha virt. eigenvalues --    0.11057   0.11100   0.12148   0.17780   0.21727
 Alpha virt. eigenvalues --    0.22221   0.29618   0.60540   0.63524   0.64124

 Mulliken charges:
               1
     1  H    0.258467
     2  C   -0.699679
     3  Cl  -0.085877
     4  H    0.263545
     5  H    0.263545
 Sum of Mulliken charges =   0.00000

 Dipole moment (field-independent basis, Debye):
    X=              0.0626    Y=              2.6261    Z=              0.0000  Tot=              2.6268
 Quadrupole moment (field-independent basis, Debye-Ang):
   XX=            -20.0829   YY=            -18.1237   ZZ=            -20.0391
   XY=             -0.2283   XZ=             -0.0000   YZ=              0.0000

 Normal termination of Gaussian 16 at Fri Sep 22 17:14:46 2023.
