 Gaussian 16, Revision A.03,
 Gaussian 16:  ES64L-G16RevA.03 25-Dec-2016

 ------------------------------------------------------------------
 # 6-31+g(d) scrf=(solvent=water,pcm) int=ultrafine m062x scf=tight
 ------------------------------------------------------------------

 ------------------------
 tmpdir/M2_conf_108_9.gjf
 ------------------------
 Symbolic Z-matrix:
 Charge =  0 Multiplicity = 1

                         Standard orientation:
 ---------------------------------------------------------------------
 Center     Atomic      Atomic             Coordinates (Angstroms)
 Number     Number       Type             X           Y           Z
 ---------------------------------------------------------------------
      1          1           0       -1.068576    1.046778    0.000000
      2          6           0        0.015281    1.139315    0.000000
      3         17           0        0.015281   -0.658181    0.000000
      4          1           0        0.358560    1.653200    0.895200
      5          1           0        0.358560    1.653200   -0.895200
 ---------------------------------------------------------------------

 SCF Done:  E(RM062X) =  -500.028859392     A.U. after   11 cycles

 The electronic state is 1-A'.
 Alpha  occ. eigenvalues -- -102.66405 -10.59924  -9.81169  -7.53569  -7.52906
 Alpha  occ. eigenvalues --   -7.52887  -0.96011  -0.76562  -0.53211  -0.51593
 Alpha  occ. eigenvalues --   -0.46498  -0.37231  -0.35532
 Alpha virt. eigenvalues --    0.02371   0.03529   0.06818   0.06965   0.09073
 Alpha virt. eigenvalues --    0.10600   0.11072   0.11822   0.17647   0.21519
 Alpha virt. eigenvalues --    0.22854   0.28722   0.59990   0.63091   0.65175

 Mulliken charges:
               1
     1  H    0.245373
     2  C   -0.684481
     3  Cl  -0.092914
     4  H    0.266011
     5  H    0.266011
 Sum of Mulliken charges =  -0.00000

 Dipole moment (field-independent basis, Debye):
    X=             -0.2176    Y=              2.5494    Z=             -0.0000  Tot=              2.5587
 Quadrupole moment (field-independent basis, Debye-Ang):
   XX=            -20.3624   YY=            -18.0478   ZZ=            -20.0088
   XY=              0.6606   XZ=             -0.0000   YZ=             -0.0000

 Normal termination of Gaussian 16 at Fri Sep 22 17:20:18 2023.
