 Gaussian 16, Revision A.03,
 Gaussian 16:  ES64L-G16RevA.03 25-Dec-2016

 ------------------------------------------------------------------
 # 6-31+g(d) scrf=(solvent=water,pcm) int=ultrafine m062x scf=tight
 ------------------------------------------------------------------

 -----------------------
 tmpdir/M2_conf_79_6.gjf
 -----------------------
 Symbolic Z-matrix:
 Charge =  0 Multiplicity = 1

                         Standard orientation:
 ---------------------------------------------------------------------
 Center     Atomic      Atomic             Coordinates (Angstroms)
 Number     Number       Type             X           Y           Z
 ---------------------------------------------------------------------
      1          1           0       -1.040158    0.000799   -0.378249
      2          6           0       -0.014309   -0.013515   -0.016671
      3          1           0        0.795380   -0.177805   -0.724292
      4          1           0        0.110211   -0.764012    0.760859
      5          1           0        0.220424    1.022105    0.441709
 ---------------------------------------------------------------------

 SCF Done:  E(RM062X) =  -40.4790470306     A.U. after    9 cycles

 The electronic state is 1-A.
 Alpha  occ. eigenvalues --  -10.53207  -0.78220  -0.47385  -0.45220  -0.43382
 Alpha virt. eigenvalues --    0.03922   0.07055   0.07208   0.07384   0.20736
 Alpha virt. eigenvalues --    0.22680   0.24406   0.30581   0.68960   0.69230
 Alpha virt. eigenvalues --    0.70533   0.95381   0.99011   1.02850   1.11136

 Mulliken charges:
               1
     1  H    0.215154
     2  C   -0.831351
     3  H    0.213144
     4  H    0.210628
     5  H    0.192425
 Sum of Mulliken charges =  -0.00000

 Dipole moment (field-independent basis, Debye):
    X=              0.0450    Y=             -0.0203    Z=              0.0318  Tot=              0.0587
 Quadrupole moment (field-independent basis, Debye-Ang):
   XX=             -8.1693   YY=             -8.5997   ZZ=             -8.7961
   XY=             -0.0440   XZ=             -0.0110   YZ=             -0.0893

 Normal termination of Gaussian 16 at Fri Sep 22 17:16:52 2023.
