 Gaussian 16, Revision A.03,
 Gaussian 16:  ES64L-G16RevA.03 25-Dec-2016

 ------------------------------------------------------------------
 # 6-31+g(d) scrf=(solvent=water,pcm) int=ultrafine m062x scf=tight
 ------------------------------------------------------------------

 -----------------------
 tmpdir/M2_conf_36_5.gjf
 -----------------------
 Symbolic Z-matrix:
 Charge =  0 Multiplicity = 1

                         Standard orientation:
 ---------------------------------------------------------------------
 Center     Atomic      Atomic             Coordinates (Angstroms)
 Number     Number       Type             X           Y           Z
 ---------------------------------------------------------------------
      1          1           0        0.372004    0.957692   -0.377763
      2          6           0        0.014955    0.000703   -0.003600
      3          1           0        0.188161   -0.806472   -0.711957
      4          1           0        0.477373   -0.236692    0.951972
      5          1           0       -1.127270    0.081251    0.159350
 ---------------------------------------------------------------------

 SCF Done:  E(RM062X) =  -40.4812588367     A.U. after    9 cycles

 The electronic state is 1-A.
 Alpha  occ. eigenvalues --  -10.53192  -0.78172  -0.46211  -0.45818  -0.44020
 Alpha virt. eigenvalues --    0.03928   0.07139   0.07164   0.07355   0.21155
 Alpha virt. eigenvalues --    0.23211   0.23501   0.30689   0.68980   0.69011
 Alpha virt. eigenvalues --    0.70528   0.96410   1.00207   1.00897   1.10757

 Mulliken charges:
               1
     1  H    0.211983
     2  C   -0.828245
     3  H    0.211621
     4  H    0.211317
     5  H    0.193324
 Sum of Mulliken charges =  -0.00000

 Dipole moment (field-independent basis, Debye):
    X=              0.0214    Y=             -0.0096    Z=              0.0029  Tot=              0.0236
 Quadrupole moment (field-independent basis, Debye-Ang):
   XX=             -8.6005   YY=             -8.4258   ZZ=             -8.5174
   XY=              0.0195   XZ=              0.0339   YZ=             -0.0034

 Normal termination of Gaussian 16 at Fri Sep 22 17:12:04 2023.
