 Gaussian 16, Revision A.03,
 Gaussian 16:  ES64L-G16RevA.03 25-Dec-2016

 ------------------------------------------------------------------
 # 6-31+g(d) scrf=(solvent=water,pcm) int=ultrafine m062x scf=tight
 ------------------------------------------------------------------

 -----------------------
 tmpdir/M2_conf_63_4.gjf
 -----------------------
 Symbolic Z-matrix:
 Charge =  0 Multiplicity = 1

                         Standard orientation:
 ---------------------------------------------------------------------
 Center     Atomic      Atomic             Coordinates (Angstroms)
 Number     Number       Type             X           Y           Z
 ---------------------------------------------------------------------
      1          6           0       -0.000000   -1.299737    0.000000
      2         17           0       -0.000000    0.747863    0.000000
      3          1           0       -1.033730   -1.638417    0.000000
      4          1           0        0.516870   -1.638417    0.895240
      5          1           0        0.516870   -1.638417   -0.895240
 ---------------------------------------------------------------------

 SCF Done:  E(RM062X) =  -500.033963890     A.U. after   10 cycles

 The electronic state is 1-A'.
 Alpha  occ. eigenvalues -- -102.66449 -10.62415  -9.80894  -7.53278  -7.52642
 Alpha  occ. eigenvalues --   -7.52642  -0.91220  -0.78799  -0.51193  -0.51192
 Alpha  occ. eigenvalues --   -0.44333  -0.37321  -0.37321
 Alpha virt. eigenvalues --   -0.01864   0.03639   0.07034   0.07034   0.07859
 Alpha virt. eigenvalues --    0.09814   0.10964   0.10964   0.17087   0.21893
 Alpha virt. eigenvalues --    0.21893   0.29916   0.61136   0.61928   0.61929

 Mulliken charges:
               1
     1  C   -0.633865
     2  Cl  -0.186413
     3  H    0.273419
     4  H    0.273430
     5  H    0.273430
 Sum of Mulliken charges =  -0.00000

 Dipole moment (field-independent basis, Debye):
    X=              0.0003    Y=             -3.5641    Z=             -0.0000  Tot=              3.5641
 Quadrupole moment (field-independent basis, Debye-Ang):
   XX=            -20.3126   YY=            -16.6290   ZZ=            -20.3125
   XY=              0.0001   XZ=             -0.0000   YZ=              0.0000

 Normal termination of Gaussian 16 at Fri Sep 22 17:15:06 2023.
