 Gaussian 16, Revision A.03,
 Gaussian 16:  ES64L-G16RevA.03 25-Dec-2016

 ------------------------------------------------------------------
 # 6-31+g(d) scrf=(solvent=water,pcm) int=ultrafine m062x scf=tight
 ------------------------------------------------------------------

 -----------------------
 tmpdir/M2_conf_88_7.gjf
 -----------------------
 Symbolic Z-matrix:
 Charge =  0 Multiplicity = 1

                         Standard orientation:
 ---------------------------------------------------------------------
 Center     Atomic      Atomic             Coordinates (Angstroms)
 Number     Number       Type             X           Y           Z
 ---------------------------------------------------------------------
      1          1           0        1.076267    1.179656   -0.000000
      2          6           0       -0.010724    1.137705   -0.000000
      3         17           0       -0.010724   -0.659792    0.000000
      4          1           0       -0.414807    1.605290    0.895200
      5          1           0       -0.414807    1.605290   -0.895200
 ---------------------------------------------------------------------

 SCF Done:  E(RM062X) =  -500.040571348     A.U. after   11 cycles

 The electronic state is 1-A'.
 Alpha  occ. eigenvalues -- -102.66317 -10.60006  -9.81062  -7.53458  -7.52805
 Alpha  occ. eigenvalues --   -7.52790  -0.95657  -0.76636  -0.52567  -0.51625
 Alpha  occ. eigenvalues --   -0.46883  -0.37064  -0.36108
 Alpha virt. eigenvalues --    0.02598   0.03509   0.06857   0.06955   0.09103
 Alpha virt. eigenvalues --    0.10867   0.11089   0.11952   0.17724   0.21592
 Alpha virt. eigenvalues --    0.22580   0.29167   0.60248   0.63271   0.64789

 Mulliken charges:
               1
     1  H    0.251682
     2  C   -0.691593
     3  Cl  -0.090040
     4  H    0.264975
     5  H    0.264975
 Sum of Mulliken charges =  -0.00000

 Dipole moment (field-independent basis, Debye):
    X=              0.1463    Y=              2.5988    Z=             -0.0000  Tot=              2.6030
 Quadrupole moment (field-independent basis, Debye-Ang):
   XX=            -20.2066   YY=            -18.0866   ZZ=            -20.0246
   XY=             -0.4915   XZ=              0.0000   YZ=             -0.0000

 Normal termination of Gaussian 16 at Fri Sep 22 17:17:57 2023.
