 Gaussian 16, Revision A.03,
 Gaussian 16:  ES64L-G16RevA.03 25-Dec-2016

 ------------------------------------------------------------------
 # 6-31+g(d) scrf=(solvent=water,pcm) int=ultrafine m062x scf=tight
 ------------------------------------------------------------------

 -----------------------
 tmpdir/M2_conf_66_4.gjf
 -----------------------
 Symbolic Z-matrix:
 Charge =  0 Multiplicity = 1

                         Standard orientation:
 ---------------------------------------------------------------------
 Center     Atomic      Atomic             Coordinates (Angstroms)
 Number     Number       Type             X           Y           Z
 ---------------------------------------------------------------------
      1          6           0       -0.000000   -1.313860    0.000000
      2         17           0       -0.000000    0.755340    0.000000
      3          1           0       -1.033730   -1.652540    0.000000
      4          1           0        0.516870   -1.652540    0.895240
      5          1           0        0.516870   -1.652540   -0.895240
 ---------------------------------------------------------------------

 SCF Done:  E(RM062X) =  -500.031524443     A.U. after   10 cycles

 The electronic state is 1-A'.
 Alpha  occ. eigenvalues -- -102.66443 -10.62610  -9.80872  -7.53255  -7.52620
 Alpha  occ. eigenvalues --   -7.52620  -0.90955  -0.78963  -0.51205  -0.51204
 Alpha  occ. eigenvalues --   -0.44074  -0.37328  -0.37328
 Alpha virt. eigenvalues --   -0.02351   0.03647   0.07035   0.07035   0.07723
 Alpha virt. eigenvalues --    0.09832   0.10955   0.10955   0.17030   0.21875
 Alpha virt. eigenvalues --    0.21876   0.29923   0.61150   0.61817   0.61818

 Mulliken charges:
               1
     1  C   -0.627106
     2  Cl  -0.195549
     3  H    0.274212
     4  H    0.274222
     5  H    0.274222
 Sum of Mulliken charges =  -0.00000

 Dipole moment (field-independent basis, Debye):
    X=              0.0003    Y=             -3.6535    Z=              0.0000  Tot=              3.6535
 Quadrupole moment (field-independent basis, Debye-Ang):
   XX=            -20.3313   YY=            -16.4909   ZZ=            -20.3312
   XY=              0.0001   XZ=              0.0000   YZ=             -0.0000

 Normal termination of Gaussian 16 at Fri Sep 22 17:15:25 2023.
