 Gaussian 16, Revision A.03,
 Gaussian 16:  ES64L-G16RevA.03 25-Dec-2016

 ------------------------------------------------------------------
 # 6-31+g(d) scrf=(solvent=water,pcm) int=ultrafine m062x scf=tight
 ------------------------------------------------------------------

 -----------------------
 tmpdir/M2_conf_18_4.gjf
 -----------------------
 Symbolic Z-matrix:
 Charge =  0 Multiplicity = 1

                         Standard orientation:
 ---------------------------------------------------------------------
 Center     Atomic      Atomic             Coordinates (Angstroms)
 Number     Number       Type             X           Y           Z
 ---------------------------------------------------------------------
      1          6           0       -0.000000   -1.141441    0.000000
      2         17           0       -0.000000    0.664059    0.000000
      3          1           0       -1.033730   -1.480121    0.000000
      4          1           0        0.516870   -1.480121    0.895240
      5          1           0        0.516870   -1.480121   -0.895240
 ---------------------------------------------------------------------

 SCF Done:  E(RM062X) =  -500.050870324     A.U. after   10 cycles

 The electronic state is 1-A'.
 Alpha  occ. eigenvalues -- -102.66272 -10.60127  -9.80990  -7.53382  -7.52733
 Alpha  occ. eigenvalues --   -7.52733  -0.95209  -0.76766  -0.51711  -0.51710
 Alpha  occ. eigenvalues --   -0.47309  -0.36794  -0.36794
 Alpha virt. eigenvalues --    0.02721   0.03494   0.06928   0.06929   0.09133
 Alpha virt. eigenvalues --    0.11094   0.11095   0.12016   0.17768   0.21943
 Alpha virt. eigenvalues --    0.21943   0.29752   0.60696   0.63678   0.63679

 Mulliken charges:
               1
     1  C   -0.700195
     2  Cl  -0.087675
     3  H    0.262636
     4  H    0.262617
     5  H    0.262617
 Sum of Mulliken charges =  -0.00000

 Dipole moment (field-independent basis, Debye):
    X=              0.0000    Y=             -2.6579    Z=              0.0000  Tot=              2.6579
 Quadrupole moment (field-independent basis, Debye-Ang):
   XX=            -20.0574   YY=            -18.0890   ZZ=            -20.0574
   XY=              0.0002   XZ=              0.0000   YZ=             -0.0000

 Normal termination of Gaussian 16 at Fri Sep 22 17:10:06 2023.
