 Gaussian 16, Revision A.03,
 Gaussian 16:  ES64L-G16RevA.03 25-Dec-2016

 ------------------------------------------------------------------
 # 6-31+g(d) scrf=(solvent=water,pcm) int=ultrafine m062x scf=tight
 ------------------------------------------------------------------

 -----------------------
 tmpdir/M2_conf_96_7.gjf
 -----------------------
 Symbolic Z-matrix:
 Charge =  0 Multiplicity = 1

                         Standard orientation:
 ---------------------------------------------------------------------
 Center     Atomic      Atomic             Coordinates (Angstroms)
 Number     Number       Type             X           Y           Z
 ---------------------------------------------------------------------
      1          1           0        1.075278    1.128949    0.000000
      2          6           0       -0.012483    1.138251    0.000000
      3         17           0       -0.012483   -0.659245   -0.000000
      4          1           0       -0.394090    1.624352    0.895200
      5          1           0       -0.394090    1.624352   -0.895200
 ---------------------------------------------------------------------

 SCF Done:  E(RM062X) =  -500.036662756     A.U. after   11 cycles

 The electronic state is 1-A'.
 Alpha  occ. eigenvalues -- -102.66344 -10.59982  -9.81095  -7.53492  -7.52836
 Alpha  occ. eigenvalues --   -7.52819  -0.95771  -0.76612  -0.52798  -0.51612
 Alpha  occ. eigenvalues --   -0.46735  -0.37123  -0.35913
 Alpha virt. eigenvalues --    0.02520   0.03516   0.06843   0.06959   0.09093
 Alpha virt. eigenvalues --    0.10774   0.11083   0.11896   0.17698   0.21563
 Alpha virt. eigenvalues --    0.22686   0.28997   0.60147   0.63201   0.64965

 Mulliken charges:
               1
     1  H    0.249305
     2  C   -0.688711
     3  Cl  -0.091347
     4  H    0.265376
     5  H    0.265376
 Sum of Mulliken charges =   0.00000

 Dipole moment (field-independent basis, Debye):
    X=              0.1728    Y=              2.5837    Z=             -0.0000  Tot=              2.5895
 Quadrupole moment (field-independent basis, Debye-Ang):
   XX=            -20.2604   YY=            -18.0720   ZZ=            -20.0191
   XY=             -0.5612   XZ=              0.0000   YZ=             -0.0000

 Normal termination of Gaussian 16 at Fri Sep 22 17:18:53 2023.
