 Gaussian 16, Revision A.03,
 Gaussian 16:  ES64L-G16RevA.03 25-Dec-2016

 ------------------------------------------------------------------
 # 6-31+g(d) scrf=(solvent=water,pcm) int=ultrafine m062x scf=tight
 ------------------------------------------------------------------

 -----------------------
 tmpdir/M2_conf_70_4.gjf
 -----------------------
 Symbolic Z-matrix:
 Charge =  0 Multiplicity = 1

                         Standard orientation:
 ---------------------------------------------------------------------
 Center     Atomic      Atomic             Coordinates (Angstroms)
 Number     Number       Type             X           Y           Z
 ---------------------------------------------------------------------
      1          6           0       -0.000000   -1.332691    0.000000
      2         17           0       -0.000000    0.765309    0.000000
      3          1           0       -1.033730   -1.671371    0.000000
      4          1           0        0.516870   -1.671371    0.895240
      5          1           0        0.516870   -1.671371   -0.895240
 ---------------------------------------------------------------------

 SCF Done:  E(RM062X) =  -500.028153084     A.U. after   10 cycles

 The electronic state is 1-A'.
 Alpha  occ. eigenvalues -- -102.66430 -10.62869  -9.80837  -7.53219  -7.52587
 Alpha  occ. eigenvalues --   -7.52587  -0.90620  -0.79178  -0.51233  -0.51232
 Alpha  occ. eigenvalues --   -0.43733  -0.37330  -0.37329
 Alpha virt. eigenvalues --   -0.03000   0.03656   0.07035   0.07035   0.07562
 Alpha virt. eigenvalues --    0.09862   0.10942   0.10942   0.16954   0.21850
 Alpha virt. eigenvalues --    0.21850   0.29929   0.61177   0.61680   0.61681

 Mulliken charges:
               1
     1  C   -0.617930
     2  Cl  -0.207793
     3  H    0.275238
     4  H    0.275243
     5  H    0.275243
 Sum of Mulliken charges =   0.00000

 Dipole moment (field-independent basis, Debye):
    X=              0.0003    Y=             -3.7750    Z=              0.0000  Tot=              3.7750
 Quadrupole moment (field-independent basis, Debye-Ang):
   XX=            -20.3554   YY=            -16.3049   ZZ=            -20.3553
   XY=              0.0002   XZ=              0.0000   YZ=             -0.0000

 Normal termination of Gaussian 16 at Fri Sep 22 17:15:52 2023.
