 Gaussian 16, Revision A.03,
 Gaussian 16:  ES64L-G16RevA.03 25-Dec-2016

 ------------------------------------------------------------------
 # 6-31+g(d) scrf=(solvent=water,pcm) int=ultrafine m062x scf=tight
 ------------------------------------------------------------------

 ------------------------
 tmpdir/M2_conf_104_6.gjf
 ------------------------
 Symbolic Z-matrix:
 Charge =  0 Multiplicity = 1

                         Standard orientation:
 ---------------------------------------------------------------------
 Center     Atomic      Atomic             Coordinates (Angstroms)
 Number     Number       Type             X           Y           Z
 ---------------------------------------------------------------------
      1          1           0       -1.041817   -0.001103   -0.375867
      2          6           0       -0.014867   -0.013518   -0.017360
      3          1           0        0.799111   -0.168896   -0.722061
      4          1           0        0.115112   -0.768807    0.754618
      5          1           0        0.216794    1.019917    0.447467
 ---------------------------------------------------------------------

 SCF Done:  E(RM062X) =  -40.4788075843     A.U. after    9 cycles

 The electronic state is 1-A.
 Alpha  occ. eigenvalues --  -10.53208  -0.78225  -0.47457  -0.45196  -0.43327
 Alpha virt. eigenvalues --    0.03922   0.07050   0.07210   0.07386   0.20695
 Alpha virt. eigenvalues --    0.22655   0.24465   0.30572   0.68962   0.69252
 Alpha virt. eigenvalues --    0.70534   0.95288   0.98958   1.02961   1.11180

 Mulliken charges:
               1
     1  H    0.215406
     2  C   -0.831692
     3  H    0.213304
     4  H    0.210599
     5  H    0.192382
 Sum of Mulliken charges =  -0.00000

 Dipole moment (field-independent basis, Debye):
    X=              0.0476    Y=             -0.0202    Z=              0.0338  Tot=              0.0618
 Quadrupole moment (field-independent basis, Debye-Ang):
   XX=             -8.1529   YY=             -8.6005   ZZ=             -8.8138
   XY=             -0.0431   XZ=             -0.0105   YZ=             -0.0904

 Normal termination of Gaussian 16 at Fri Sep 22 17:19:48 2023.
