 Gaussian 16, Revision A.03,
 Gaussian 16:  ES64L-G16RevA.03 25-Dec-2016

 ------------------------------------------------------------------
 # 6-31+g(d) scrf=(solvent=water,pcm) int=ultrafine m062x scf=tight
 ------------------------------------------------------------------

 ------------------------
 tmpdir/M2_conf_70_10.gjf
 ------------------------
 Symbolic Z-matrix:
 Charge =  0 Multiplicity = 1

                         Standard orientation:
 ---------------------------------------------------------------------
 Center     Atomic      Atomic             Coordinates (Angstroms)
 Number     Number       Type             X           Y           Z
 ---------------------------------------------------------------------
      1          1           0        1.070077    1.290634    0.000000
      2          6           0       -0.006791    1.136798    0.000000
      3         17           0       -0.006791   -0.660697   -0.000000
      4          1           0       -0.456944    1.560213    0.895200
      5          1           0       -0.456944    1.560213   -0.895200
 ---------------------------------------------------------------------

 SCF Done:  E(RM062X) =  -500.046882240     A.U. after   10 cycles

 The electronic state is 1-A'.
 Alpha  occ. eigenvalues -- -102.66279 -10.60037  -9.81015  -7.53409  -7.52759
 Alpha  occ. eigenvalues --   -7.52750  -0.95484  -0.76673  -0.52140  -0.51659
 Alpha  occ. eigenvalues --   -0.47175  -0.36944  -0.36442
 Alpha virt. eigenvalues --    0.02729   0.03497   0.06885   0.06945   0.09119
 Alpha virt. eigenvalues --    0.11013   0.11097   0.12086   0.17767   0.21671
 Alpha virt. eigenvalues --    0.22343   0.29495   0.60456   0.63436   0.64343

 Mulliken charges:
               1
     1  H    0.256435
     2  C   -0.697449
     3  Cl  -0.087080
     4  H    0.264047
     5  H    0.264047
 Sum of Mulliken charges =  -0.00000

 Dipole moment (field-independent basis, Debye):
    X=              0.0901    Y=              2.6201    Z=             -0.0000  Tot=              2.6217
 Quadrupole moment (field-independent basis, Debye-Ang):
   XX=            -20.1148   YY=            -18.1139   ZZ=            -20.0348
   XY=             -0.3209   XZ=              0.0000   YZ=             -0.0000

 Normal termination of Gaussian 16 at Fri Sep 22 17:15:52 2023.
