 Gaussian 16, Revision A.03,
 Gaussian 16:  ES64L-G16RevA.03 25-Dec-2016

 ------------------------------------------------------------------
 # 6-31+g(d) scrf=(solvent=water,pcm) int=ultrafine m062x scf=tight
 ------------------------------------------------------------------

 -----------------------
 tmpdir/M2_conf_55_9.gjf
 -----------------------
 Symbolic Z-matrix:
 Charge =  0 Multiplicity = 1

                         Standard orientation:
 ---------------------------------------------------------------------
 Center     Atomic      Atomic             Coordinates (Angstroms)
 Number     Number       Type             X           Y           Z
 ---------------------------------------------------------------------
      1          1           0       -1.058415    1.370551    0.000000
      2          6           0        0.003886    1.136404    0.000000
      3         17           0        0.003886   -0.661101   -0.000000
      4          1           0        0.484520    1.524874    0.895200
      5          1           0        0.484520    1.524874   -0.895200
 ---------------------------------------------------------------------

 SCF Done:  E(RM062X) =  -500.049600316     A.U. after   10 cycles

 The electronic state is 1-A'.
 Alpha  occ. eigenvalues -- -102.66265 -10.60048  -9.80997  -7.53390  -7.52742
 Alpha  occ. eigenvalues --   -7.52736  -0.95414  -0.76688  -0.51916  -0.51693
 Alpha  occ. eigenvalues --   -0.47329  -0.36864  -0.36614
 Alpha virt. eigenvalues --    0.02789   0.03491   0.06902   0.06936   0.09126
 Alpha virt. eigenvalues --    0.11072   0.11100   0.12171   0.17784   0.21757
 Alpha virt. eigenvalues --    0.22168   0.29660   0.60570   0.63565   0.64035

 Mulliken charges:
               1
     1  H    0.259282
     2  C   -0.700445
     3  Cl  -0.085457
     4  H    0.263310
     5  H    0.263310
 Sum of Mulliken charges =  -0.00000

 Dipole moment (field-independent basis, Debye):
    X=             -0.0506    Y=              2.6279    Z=              0.0000  Tot=              2.6284
 Quadrupole moment (field-independent basis, Debye-Ang):
   XX=            -20.0720   YY=            -18.1270   ZZ=            -20.0409
   XY=              0.1862   XZ=              0.0000   YZ=              0.0000

 Normal termination of Gaussian 16 at Fri Sep 22 17:14:12 2023.
