 Gaussian 16, Revision A.03,
 Gaussian 16:  ES64L-G16RevA.03 25-Dec-2016

 ------------------------------------------------------------------
 # 6-31+g(d) scrf=(solvent=water,pcm) int=ultrafine m062x scf=tight
 ------------------------------------------------------------------

 ------------------------
 tmpdir/M2_conf_38_10.gjf
 ------------------------
 Symbolic Z-matrix:
 Charge =  0 Multiplicity = 1

                         Standard orientation:
 ---------------------------------------------------------------------
 Center     Atomic      Atomic             Coordinates (Angstroms)
 Number     Number       Type             X           Y           Z
 ---------------------------------------------------------------------
      1          1           0        1.042592    1.442444    0.000000
      2          6           0       -0.001218    1.136226    0.000000
      3         17           0       -0.001218   -0.661274   -0.000000
      4          1           0       -0.507284    1.490931    0.895200
      5          1           0       -0.507284    1.490931   -0.895200
 ---------------------------------------------------------------------

 SCF Done:  E(RM062X) =  -500.050768232     A.U. after   10 cycles

 The electronic state is 1-A'.
 Alpha  occ. eigenvalues -- -102.66259 -10.60051  -9.80990  -7.53382  -7.52733
 Alpha  occ. eigenvalues --   -7.52731  -0.95384  -0.76693  -0.51787  -0.51732
 Alpha  occ. eigenvalues --   -0.47401  -0.36792  -0.36723
 Alpha virt. eigenvalues --    0.02815   0.03489   0.06916   0.06926   0.09129
 Alpha virt. eigenvalues --    0.11096   0.11100   0.12216   0.17791   0.21873
 Alpha virt. eigenvalues --    0.22010   0.29736   0.60626   0.63691   0.63820

 Mulliken charges:
               1
     1  H    0.261396
     2  C   -0.701826
     3  Cl  -0.084692
     4  H    0.262561
     5  H    0.262561
 Sum of Mulliken charges =  -0.00000

 Dipole moment (field-independent basis, Debye):
    X=              0.0156    Y=              2.6309    Z=             -0.0000  Tot=              2.6309
 Quadrupole moment (field-independent basis, Debye-Ang):
   XX=            -20.0511   YY=            -18.1333   ZZ=            -20.0457
   XY=             -0.0588   XZ=              0.0000   YZ=             -0.0000

 Normal termination of Gaussian 16 at Fri Sep 22 17:12:19 2023.
