 Gaussian 16, Revision A.03,
 Gaussian 16:  ES64L-G16RevA.03 25-Dec-2016

 ------------------------------------------------------------------
 # 6-31+g(d) scrf=(solvent=water,pcm) int=ultrafine m062x scf=tight
 ------------------------------------------------------------------

 ------------------------
 tmpdir/M2_conf_105_4.gjf
 ------------------------
 Symbolic Z-matrix:
 Charge =  0 Multiplicity = 1

                         Standard orientation:
 ---------------------------------------------------------------------
 Center     Atomic      Atomic             Coordinates (Angstroms)
 Number     Number       Type             X           Y           Z
 ---------------------------------------------------------------------
      1          6           0       -0.000000   -1.500664    0.000000
      2         17           0       -0.000000    0.854236    0.000000
      3          1           0       -1.033730   -1.839344    0.000000
      4          1           0        0.516870   -1.839344    0.895240
      5          1           0        0.516870   -1.839344   -0.895240
 ---------------------------------------------------------------------

 SCF Done:  E(RM062X) =  -499.995515833     A.U. after   11 cycles

 The electronic state is 1-A'.
 Alpha  occ. eigenvalues -- -102.66085 -10.65025  -9.80364  -7.52731  -7.52123
 Alpha  occ. eigenvalues --   -7.52123  -0.88350  -0.80909  -0.51858  -0.51858
 Alpha  occ. eigenvalues --   -0.40943  -0.37054  -0.37054
 Alpha virt. eigenvalues --   -0.08222   0.03682   0.06792   0.06967   0.06967
 Alpha virt. eigenvalues --    0.10222   0.10849   0.10850   0.16330   0.21524
 Alpha virt. eigenvalues --    0.21525   0.29861   0.60960   0.60962   0.61886

 Mulliken charges:
               1
     1  C   -0.535268
     2  Cl  -0.314127
     3  H    0.283142
     4  H    0.283126
     5  H    0.283126
 Sum of Mulliken charges =  -0.00000

 Dipole moment (field-independent basis, Debye):
    X=              0.0001    Y=             -4.9522    Z=              0.0000  Tot=              4.9522
 Quadrupole moment (field-independent basis, Debye-Ang):
   XX=            -20.5291   YY=            -14.5570   ZZ=            -20.5290
   XY=              0.0002   XZ=              0.0000   YZ=             -0.0000

 Normal termination of Gaussian 16 at Fri Sep 22 17:19:57 2023.
