 Gaussian 16, Revision A.03,
 Gaussian 16:  ES64L-G16RevA.03 25-Dec-2016

 ------------------------------------------------------------------
 # 6-31+g(d) scrf=(solvent=water,pcm) int=ultrafine m062x scf=tight
 ------------------------------------------------------------------

 -----------------------
 tmpdir/M2_conf_44_6.gjf
 -----------------------
 Symbolic Z-matrix:
 Charge =  0 Multiplicity = 1

                         Standard orientation:
 ---------------------------------------------------------------------
 Center     Atomic      Atomic             Coordinates (Angstroms)
 Number     Number       Type             X           Y           Z
 ---------------------------------------------------------------------
      1          1           0       -0.601199    0.830728   -0.389314
      2          6           0       -0.015470   -0.002149   -0.006499
      3          1           0        0.119931   -0.803207   -0.729876
      4          1           0       -0.464770   -0.406191    0.898036
      5          1           0        1.038860    0.391561    0.260147
 ---------------------------------------------------------------------

 SCF Done:  E(RM062X) =  -40.4810786885     A.U. after    9 cycles

 The electronic state is 1-A.
 Alpha  occ. eigenvalues --  -10.53194  -0.78176  -0.46426  -0.45681  -0.43939
 Alpha virt. eigenvalues --    0.03927   0.07124   0.07173   0.07360   0.21108
 Alpha virt. eigenvalues --    0.23100   0.23658   0.30675   0.68971   0.69034
 Alpha virt. eigenvalues --    0.70527   0.96284   0.99949   1.01265   1.10786

 Mulliken charges:
               1
     1  H    0.212452
     2  C   -0.828529
     3  H    0.211776
     4  H    0.211162
     5  H    0.193139
 Sum of Mulliken charges =  -0.00000

 Dipole moment (field-independent basis, Debye):
    X=             -0.0123    Y=             -0.0212    Z=              0.0069  Tot=              0.0255
 Quadrupole moment (field-independent basis, Debye-Ang):
   XX=             -8.5660   YY=             -8.4144   ZZ=             -8.5655
   XY=             -0.0843   XZ=             -0.0507   YZ=             -0.0213

 Normal termination of Gaussian 16 at Fri Sep 22 17:12:58 2023.
