 Gaussian 16, Revision A.03,
 Gaussian 16:  ES64L-G16RevA.03 25-Dec-2016

 ------------------------------------------------------------------
 # 6-31+g(d) scrf=(solvent=water,pcm) int=ultrafine m062x scf=tight
 ------------------------------------------------------------------

 ------------------------
 tmpdir/M2_conf_113_4.gjf
 ------------------------
 Symbolic Z-matrix:
 Charge =  0 Multiplicity = 1

                         Standard orientation:
 ---------------------------------------------------------------------
 Center     Atomic      Atomic             Coordinates (Angstroms)
 Number     Number       Type             X           Y           Z
 ---------------------------------------------------------------------
      1          6           0       -0.000000   -1.537475    0.000000
      2         17           0       -0.000000    0.873725    0.000000
      3          1           0       -1.033730   -1.876155    0.000000
      4          1           0        0.516870   -1.876155    0.895240
      5          1           0        0.516870   -1.876155   -0.895240
 ---------------------------------------------------------------------

 SCF Done:  E(RM062X) =  -499.988345233     A.U. after   11 cycles

 The electronic state is 1-A'.
 Alpha  occ. eigenvalues -- -102.65960 -10.65462  -9.80223  -7.52586  -7.51985
 Alpha  occ. eigenvalues --   -7.51985  -0.87981  -0.81249  -0.52056  -0.52056
 Alpha  occ. eigenvalues --   -0.40406  -0.36948  -0.36948
 Alpha virt. eigenvalues --   -0.09183   0.03676   0.06707   0.06939   0.06939
 Alpha virt. eigenvalues --    0.10304   0.10833   0.10833   0.16206   0.21435
 Alpha virt. eigenvalues --    0.21436   0.29817   0.60905   0.60907   0.62104

 Mulliken charges:
               1
     1  C   -0.518241
     2  Cl  -0.336011
     3  H    0.284761
     4  H    0.284745
     5  H    0.284745
 Sum of Mulliken charges =  -0.00000

 Dipole moment (field-independent basis, Debye):
    X=              0.0000    Y=             -5.2318    Z=             -0.0000  Tot=              5.2318
 Quadrupole moment (field-independent basis, Debye-Ang):
   XX=            -20.5591   YY=            -14.1523   ZZ=            -20.5590
   XY=              0.0002   XZ=             -0.0000   YZ=              0.0000

 Normal termination of Gaussian 16 at Fri Sep 22 17:20:54 2023.
