 Gaussian 16, Revision A.03,
 Gaussian 16:  ES64L-G16RevA.03 25-Dec-2016

 ------------------------------------------------------------------
 # 6-31+g(d) scrf=(solvent=water,pcm) int=ultrafine m062x scf=tight
 ------------------------------------------------------------------

 -----------------------
 tmpdir/M2_conf_51_8.gjf
 -----------------------
 Symbolic Z-matrix:
 Charge =  0 Multiplicity = 1

                         Standard orientation:
 ---------------------------------------------------------------------
 Center     Atomic      Atomic             Coordinates (Angstroms)
 Number     Number       Type             X           Y           Z
 ---------------------------------------------------------------------
      1          1           0        1.004455    0.212819   -0.392637
      2          6           0        0.011504   -0.011636   -0.009261
      3          1           0       -0.669339   -0.449174   -0.736121
      4          1           0        0.070992   -0.674101    0.851497
      5          1           0       -0.475132    0.980271    0.332830
 ---------------------------------------------------------------------

 SCF Done:  E(RM062X) =  -40.4807742240     A.U. after    9 cycles

 The electronic state is 1-A.
 Alpha  occ. eigenvalues --  -10.53196  -0.78182  -0.46658  -0.45545  -0.43836
 Alpha virt. eigenvalues --    0.03926   0.07107   0.07183   0.07365   0.21045
 Alpha virt. eigenvalues --    0.22985   0.23832   0.30657   0.68965   0.69067
 Alpha virt. eigenvalues --    0.70527   0.96119   0.99686   1.01662   1.10834

 Mulliken charges:
               1
     1  H    0.213013
     2  C   -0.828955
     3  H    0.212000
     4  H    0.211004
     5  H    0.192938
 Sum of Mulliken charges =  -0.00000

 Dipole moment (field-independent basis, Debye):
    X=             -0.0139    Y=             -0.0251    Z=              0.0123  Tot=              0.0312
 Quadrupole moment (field-independent basis, Debye-Ang):
   XX=             -8.3631   YY=             -8.5657   ZZ=             -8.6203
   XY=              0.0946   XZ=              0.0272   YZ=             -0.0638

 Normal termination of Gaussian 16 at Fri Sep 22 17:13:44 2023.
