 Gaussian 16, Revision A.03,
 Gaussian 16:  ES64L-G16RevA.03 25-Dec-2016

 ------------------------------------------------------------------
 # 6-31+g(d) scrf=(solvent=water,pcm) int=ultrafine m062x scf=tight
 ------------------------------------------------------------------

 -----------------------
 tmpdir/M2_conf_37_6.gjf
 -----------------------
 Symbolic Z-matrix:
 Charge =  0 Multiplicity = 1

                         Standard orientation:
 ---------------------------------------------------------------------
 Center     Atomic      Atomic             Coordinates (Angstroms)
 Number     Number       Type             X           Y           Z
 ---------------------------------------------------------------------
      1          1           0       -0.383481    0.952538   -0.380179
      2          6           0       -0.015049    0.000662   -0.004016
      3          1           0       -0.162699   -0.809070   -0.715250
      4          1           0       -0.486699   -0.248036    0.944140
      5          1           0        1.123172    0.100596    0.175385
 ---------------------------------------------------------------------

 SCF Done:  E(RM062X) =  -40.4812399101     A.U. after    9 cycles

 The electronic state is 1-A.
 Alpha  occ. eigenvalues --  -10.53193  -0.78173  -0.46240  -0.45799  -0.44009
 Alpha virt. eigenvalues --    0.03928   0.07137   0.07165   0.07356   0.21149
 Alpha virt. eigenvalues --    0.23195   0.23522   0.30687   0.68979   0.69014
 Alpha virt. eigenvalues --    0.70528   0.96395   1.00171   1.00947   1.10760

 Mulliken charges:
               1
     1  H    0.212044
     2  C   -0.828275
     3  H    0.211635
     4  H    0.211295
     5  H    0.193300
 Sum of Mulliken charges =  -0.00000

 Dipole moment (field-independent basis, Debye):
    X=             -0.0206    Y=             -0.0110    Z=              0.0034  Tot=              0.0236
 Quadrupole moment (field-independent basis, Debye-Ang):
   XX=             -8.5999   YY=             -8.4205   ZZ=             -8.5236
   XY=             -0.0240   XZ=             -0.0372   YZ=             -0.0045

 Normal termination of Gaussian 16 at Fri Sep 22 17:12:11 2023.
