 Gaussian 16, Revision A.03,
 Gaussian 16:  ES64L-G16RevA.03 25-Dec-2016

 ------------------------------------------------------------------
 # 6-31+g(d) scrf=(solvent=water,pcm) int=ultrafine m062x scf=tight
 ------------------------------------------------------------------

 -------------------------
 tmpdir/M2_conf_101_10.gjf
 -------------------------
 Symbolic Z-matrix:
 Charge =  0 Multiplicity = 1

                         Standard orientation:
 ---------------------------------------------------------------------
 Center     Atomic      Atomic             Coordinates (Angstroms)
 Number     Number       Type             X           Y           Z
 ---------------------------------------------------------------------
      1          1           0        1.072962    1.090891    0.000000
      2          6           0       -0.013787    1.138718    0.000000
      3         17           0       -0.013787   -0.658780   -0.000000
      4          1           0       -0.377936    1.638031    0.895200
      5          1           0       -0.377936    1.638031   -0.895200
 ---------------------------------------------------------------------

 SCF Done:  E(RM062X) =  -500.033281483     A.U. after   11 cycles

 The electronic state is 1-A'.
 Alpha  occ. eigenvalues -- -102.66369 -10.59958  -9.81126  -7.53524  -7.52865
 Alpha  occ. eigenvalues --   -7.52847  -0.95873  -0.76591  -0.52984  -0.51603
 Alpha  occ. eigenvalues --   -0.46624  -0.37171  -0.35747
 Alpha virt. eigenvalues --    0.02454   0.03522   0.06831   0.06962   0.09085
 Alpha virt. eigenvalues --    0.10696   0.11079   0.11859   0.17676   0.21543
 Alpha virt. eigenvalues --    0.22765   0.28868   0.60073   0.63149   0.65075

 Mulliken charges:
               1
     1  H    0.247483
     2  C   -0.686635
     3  Cl  -0.092194
     4  H    0.265673
     5  H    0.265673
 Sum of Mulliken charges =  -0.00000

 Dipole moment (field-independent basis, Debye):
    X=              0.1933    Y=              2.5696    Z=              0.0000  Tot=              2.5768
 Quadrupole moment (field-independent basis, Debye-Ang):
   XX=            -20.3054   YY=            -18.0606   ZZ=            -20.0145
   XY=             -0.6095   XZ=             -0.0000   YZ=              0.0000

 Normal termination of Gaussian 16 at Fri Sep 22 17:19:29 2023.
