 Gaussian 16, Revision A.03,
 Gaussian 16:  ES64L-G16RevA.03 25-Dec-2016

 ------------------------------------------------------------------
 # 6-31+g(d) scrf=(solvent=water,pcm) int=ultrafine m062x scf=tight
 ------------------------------------------------------------------

 -----------------------
 tmpdir/M2_conf_30_0.gjf
 -----------------------
 Symbolic Z-matrix:
 Charge = -1 Multiplicity = 1

                         Standard orientation:
 ---------------------------------------------------------------------
 Center     Atomic      Atomic             Coordinates (Angstroms)
 Number     Number       Type             X           Y           Z
 ---------------------------------------------------------------------
      1          7           0        0.000000    0.000000    0.541662
      2          6           0        0.000000    0.000000   -0.631938
 ---------------------------------------------------------------------

 SCF Done:  E(RM062X) =  -92.9322732658     A.U. after   10 cycles

 The electronic state is 1-SG.
 Alpha  occ. eigenvalues --  -14.69745 -10.49578  -0.93370  -0.43940  -0.34295
 Alpha  occ. eigenvalues --   -0.34295  -0.30674
 Alpha virt. eigenvalues --    0.04907   0.06843   0.06843   0.08737   0.14110
 Alpha virt. eigenvalues --    0.14110   0.16509   0.22767   0.22767   0.27849
 Alpha virt. eigenvalues --    0.52451   0.77414   0.77414   0.84241   1.00381

 Mulliken charges:
               1
     1  N   -0.668822
     2  C   -0.331178
 Sum of Mulliken charges =  -1.00000

 Dipole moment (field-independent basis, Debye):
    X=              0.0000    Y=              0.0000    Z=              0.4175  Tot=              0.4175
 Quadrupole moment (field-independent basis, Debye-Ang):
   XX=            -14.6369   YY=            -14.6369   ZZ=            -19.4941
   XY=              0.0000   XZ=              0.0000   YZ=              0.0000

 Normal termination of Gaussian 16 at Fri Sep 22 17:11:22 2023.
