 Gaussian 16, Revision A.03,
 Gaussian 16:  ES64L-G16RevA.03 25-Dec-2016

 ------------------------------------------------------------------
 # 6-31+g(d) scrf=(solvent=water,pcm) int=ultrafine m062x scf=tight
 ------------------------------------------------------------------

 -----------------------
 tmpdir/M2_conf_62_7.gjf
 -----------------------
 Symbolic Z-matrix:
 Charge =  0 Multiplicity = 1

                         Standard orientation:
 ---------------------------------------------------------------------
 Center     Atomic      Atomic             Coordinates (Angstroms)
 Number     Number       Type             X           Y           Z
 ---------------------------------------------------------------------
      1          1           0        1.064280    1.335530    0.000000
      2          6           0       -0.005166    1.136549   -0.000000
      3         17           0       -0.005166   -0.660950    0.000000
      4          1           0       -0.472726    1.540660    0.895200
      5          1           0       -0.472726    1.540660   -0.895200
 ---------------------------------------------------------------------

 SCF Done:  E(RM062X) =  -500.048593667     A.U. after   10 cycles

 The electronic state is 1-A'.
 Alpha  occ. eigenvalues -- -102.66270 -10.60044  -9.81003  -7.53397  -7.52748
 Alpha  occ. eigenvalues --   -7.52741  -0.95440  -0.76682  -0.52004  -0.51677
 Alpha  occ. eigenvalues --   -0.47269  -0.36899  -0.36545
 Alpha virt. eigenvalues --    0.02766   0.03493   0.06895   0.06940   0.09123
 Alpha virt. eigenvalues --    0.11050   0.11099   0.12137   0.17778   0.21715
 Alpha virt. eigenvalues --    0.22244   0.29597   0.60525   0.63507   0.64165

 Mulliken charges:
               1
     1  H    0.258099
     2  C   -0.699304
     3  Cl  -0.086082
     4  H    0.263644
     5  H    0.263644
 Sum of Mulliken charges =   0.00000

 Dipole moment (field-independent basis, Debye):
    X=              0.0678    Y=              2.6251    Z=              0.0000  Tot=              2.6260
 Quadrupole moment (field-independent basis, Debye-Ang):
   XX=            -20.0882   YY=            -18.1221   ZZ=            -20.0383
   XY=             -0.2463   XZ=             -0.0000   YZ=             -0.0000

 Normal termination of Gaussian 16 at Fri Sep 22 17:14:59 2023.
