 Gaussian 16, Revision A.03,
 Gaussian 16:  ES64L-G16RevA.03 25-Dec-2016

 ------------------------------------------------------------------
 # 6-31+g(d) scrf=(solvent=water,pcm) int=ultrafine m062x scf=tight
 ------------------------------------------------------------------

 -----------------------
 tmpdir/M2_conf_65_5.gjf
 -----------------------
 Symbolic Z-matrix:
 Charge =  0 Multiplicity = 1

                         Standard orientation:
 ---------------------------------------------------------------------
 Center     Atomic      Atomic             Coordinates (Angstroms)
 Number     Number       Type             X           Y           Z
 ---------------------------------------------------------------------
      1          1           0        1.033165    0.020569   -0.387166
      2          6           0        0.012090   -0.013395   -0.013586
      3          1           0       -0.774095   -0.233194   -0.732554
      4          1           0       -0.079724   -0.737633    0.792859
      5          1           0       -0.251886    1.030628    0.408376
 ---------------------------------------------------------------------

 SCF Done:  E(RM062X) =  -40.4799482141     A.U. after    9 cycles

 The electronic state is 1-A.
 Alpha  occ. eigenvalues --  -10.53202  -0.78200  -0.47069  -0.45342  -0.43604
 Alpha virt. eigenvalues --    0.03924   0.07078   0.07197   0.07375   0.20893
 Alpha virt. eigenvalues --    0.22801   0.24151   0.30617   0.68959   0.69147
 Alpha virt. eigenvalues --    0.70530   0.95745   0.99274   1.02346   1.10974

 Mulliken charges:
               1
     1  H    0.214141
     2  C   -0.830093
     3  H    0.212552
     4  H    0.210771
     5  H    0.192628
 Sum of Mulliken charges =   0.00000

 Dipole moment (field-independent basis, Debye):
    X=             -0.0333    Y=             -0.0214    Z=              0.0230  Tot=              0.0458
 Quadrupole moment (field-independent basis, Debye-Ang):
   XX=             -8.2426   YY=             -8.5954   ZZ=             -8.7191
   XY=              0.0514   XZ=              0.0140   YZ=             -0.0825

 Normal termination of Gaussian 16 at Fri Sep 22 17:15:18 2023.
