 Gaussian 16, Revision A.03,
 Gaussian 16:  ES64L-G16RevA.03 25-Dec-2016

 ------------------------------------------------------------------
 # 6-31+g(d) scrf=(solvent=water,pcm) int=ultrafine m062x scf=tight
 ------------------------------------------------------------------

 ------------------------
 tmpdir/M2_conf_40_10.gjf
 ------------------------
 Symbolic Z-matrix:
 Charge =  0 Multiplicity = 1

                         Standard orientation:
 ---------------------------------------------------------------------
 Center     Atomic      Atomic             Coordinates (Angstroms)
 Number     Number       Type             X           Y           Z
 ---------------------------------------------------------------------
      1          1           0        1.044203    1.436075    0.000000
      2          6           0       -0.001457    1.136236    0.000000
      3         17           0       -0.001457   -0.661267   -0.000000
      4          1           0       -0.505347    1.494025    0.895200
      5          1           0       -0.505347    1.494025   -0.895200
 ---------------------------------------------------------------------

 SCF Done:  E(RM062X) =  -500.050713788     A.U. after   10 cycles

 The electronic state is 1-A'.
 Alpha  occ. eigenvalues -- -102.66259 -10.60051  -9.80990  -7.53383  -7.52733
 Alpha  occ. eigenvalues --   -7.52732  -0.95386  -0.76693  -0.51795  -0.51728
 Alpha  occ. eigenvalues --   -0.47398  -0.36798  -0.36715
 Alpha virt. eigenvalues --    0.02814   0.03489   0.06914   0.06927   0.09129
 Alpha virt. eigenvalues --    0.11095   0.11100   0.12214   0.17791   0.21860
 Alpha virt. eigenvalues --    0.22024   0.29733   0.60623   0.63679   0.63835

 Mulliken charges:
               1
     1  H    0.261227
     2  C   -0.701761
     3  Cl  -0.084729
     4  H    0.262632
     5  H    0.262632
 Sum of Mulliken charges =   0.00000

 Dipole moment (field-independent basis, Debye):
    X=              0.0187    Y=              2.6308    Z=              0.0000  Tot=              2.6308
 Quadrupole moment (field-independent basis, Debye-Ang):
   XX=            -20.0522   YY=            -18.1330   ZZ=            -20.0453
   XY=             -0.0703   XZ=             -0.0000   YZ=             -0.0000

 Normal termination of Gaussian 16 at Fri Sep 22 17:12:32 2023.
