 Gaussian 16, Revision A.03,
 Gaussian 16:  ES64L-G16RevA.03 25-Dec-2016

 ------------------------------------------------------------------
 # 6-31+g(d) scrf=(solvent=water,pcm) int=ultrafine m062x scf=tight
 ------------------------------------------------------------------

 -----------------------
 tmpdir/M2_conf_28_4.gjf
 -----------------------
 Symbolic Z-matrix:
 Charge =  0 Multiplicity = 1

                         Standard orientation:
 ---------------------------------------------------------------------
 Center     Atomic      Atomic             Coordinates (Angstroms)
 Number     Number       Type             X           Y           Z
 ---------------------------------------------------------------------
      1          6           0       -0.000000   -1.147195    0.000000
      2         17           0       -0.000000    0.667105    0.000000
      3          1           0       -1.033730   -1.485875    0.000000
      4          1           0        0.516870   -1.485875    0.895240
      5          1           0        0.516870   -1.485875   -0.895240
 ---------------------------------------------------------------------

 SCF Done:  E(RM062X) =  -500.050785625     A.U. after   10 cycles

 The electronic state is 1-A'.
 Alpha  occ. eigenvalues -- -102.66287 -10.60212  -9.80992  -7.53384  -7.52735
 Alpha  occ. eigenvalues --   -7.52735  -0.95024  -0.76847  -0.51665  -0.51665
 Alpha  occ. eigenvalues --   -0.47200  -0.36831  -0.36831
 Alpha virt. eigenvalues --    0.02608   0.03499   0.06935   0.06936   0.09134
 Alpha virt. eigenvalues --    0.11089   0.11089   0.11796   0.17741   0.21947
 Alpha virt. eigenvalues --    0.21947   0.29760   0.60759   0.63599   0.63600

 Mulliken charges:
               1
     1  C   -0.698205
     2  Cl  -0.091061
     3  H    0.263103
     4  H    0.263081
     5  H    0.263081
 Sum of Mulliken charges =   0.00000

 Dipole moment (field-independent basis, Debye):
    X=             -0.0000    Y=             -2.6875    Z=              0.0000  Tot=              2.6875
 Quadrupole moment (field-independent basis, Debye-Ang):
   XX=            -20.0681   YY=            -18.0389   ZZ=            -20.0681
   XY=              0.0002   XZ=             -0.0000   YZ=             -0.0000

 Normal termination of Gaussian 16 at Fri Sep 22 17:11:12 2023.
