 Gaussian 16, Revision A.03,
 Gaussian 16:  ES64L-G16RevA.03 25-Dec-2016

 ------------------------------------------------------------------
 # 6-31+g(d) scrf=(solvent=water,pcm) int=ultrafine m062x scf=tight
 ------------------------------------------------------------------

 -----------------------
 tmpdir/M2_conf_64_5.gjf
 -----------------------
 Symbolic Z-matrix:
 Charge =  0 Multiplicity = 1

                         Standard orientation:
 ---------------------------------------------------------------------
 Center     Atomic      Atomic             Coordinates (Angstroms)
 Number     Number       Type             X           Y           Z
 ---------------------------------------------------------------------
      1          1           0        1.032578    0.023781   -0.387770
      2          6           0        0.011932   -0.013371   -0.013323
      3          1           0       -0.771676   -0.239658   -0.733089
      4          1           0       -0.076038   -0.734943    0.795936
      5          1           0       -0.256458    1.031047    0.404859
 ---------------------------------------------------------------------

 SCF Done:  E(RM062X) =  -40.4800124451     A.U. after    9 cycles

 The electronic state is 1-A.
 Alpha  occ. eigenvalues --  -10.53201  -0.78199  -0.47042  -0.45353  -0.43621
 Alpha virt. eigenvalues --    0.03925   0.07080   0.07196   0.07375   0.20904
 Alpha virt. eigenvalues --    0.22812   0.24130   0.30620   0.68959   0.69141
 Alpha virt. eigenvalues --    0.70530   0.95773   0.99298   1.02303   1.10963

 Mulliken charges:
               1
     1  H    0.214064
     2  C   -0.830004
     3  H    0.212511
     4  H    0.210784
     5  H    0.192646
 Sum of Mulliken charges =   0.00000

 Dipole moment (field-independent basis, Debye):
    X=             -0.0323    Y=             -0.0216    Z=              0.0223  Tot=              0.0448
 Quadrupole moment (field-independent basis, Debye-Ang):
   XX=             -8.2488   YY=             -8.5949   ZZ=             -8.7128
   XY=              0.0524   XZ=              0.0144   YZ=             -0.0818

 Normal termination of Gaussian 16 at Fri Sep 22 17:15:11 2023.
