 Gaussian 16, Revision A.03,
 Gaussian 16:  ES64L-G16RevA.03 25-Dec-2016

 ------------------------------------------------------------------
 # 6-31+g(d) scrf=(solvent=water,pcm) int=ultrafine m062x scf=tight
 ------------------------------------------------------------------

 ------------------------
 tmpdir/M2_conf_115_7.gjf
 ------------------------
 Symbolic Z-matrix:
 Charge =  0 Multiplicity = 1

                         Standard orientation:
 ---------------------------------------------------------------------
 Center     Atomic      Atomic             Coordinates (Angstroms)
 Number     Number       Type             X           Y           Z
 ---------------------------------------------------------------------
      1          1           0        1.062707    1.004925    0.000000
      2          6           0       -0.016681    1.139946    0.000000
      3         17           0       -0.016681   -0.657554   -0.000000
      4          1           0       -0.339519    1.666912    0.895200
      5          1           0       -0.339519    1.666912   -0.895200
 ---------------------------------------------------------------------

 SCF Done:  E(RM062X) =  -500.024141387     A.U. after   11 cycles

 The electronic state is 1-A'.
 Alpha  occ. eigenvalues -- -102.66446 -10.59883  -9.81219  -7.53620  -7.52953
 Alpha  occ. eigenvalues --   -7.52933  -0.96164  -0.76530  -0.53439  -0.51583
 Alpha  occ. eigenvalues --   -0.46384  -0.37292  -0.35302
 Alpha virt. eigenvalues --    0.02284   0.03537   0.06804   0.06968   0.09060
 Alpha virt. eigenvalues --    0.10504   0.11065   0.11791   0.17618   0.21497
 Alpha virt. eigenvalues --    0.22937   0.28590   0.59916   0.63036   0.65239

 Mulliken charges:
               1
     1  H    0.243405
     2  C   -0.682792
     3  Cl  -0.093266
     4  H    0.266326
     5  H    0.266326
 Sum of Mulliken charges =  -0.00000

 Dipole moment (field-independent basis, Debye):
    X=              0.2415    Y=              2.5261    Z=              0.0000  Tot=              2.5376
 Quadrupole moment (field-independent basis, Debye-Ang):
   XX=            -20.4210   YY=            -18.0364   ZZ=            -20.0027
   XY=             -0.7035   XZ=              0.0000   YZ=              0.0000

 Normal termination of Gaussian 16 at Fri Sep 22 17:21:08 2023.
