 Gaussian 16, Revision A.03,
 Gaussian 16:  ES64L-G16RevA.03 25-Dec-2016

 ------------------------------------------------------------------
 # 6-31+g(d) scrf=(solvent=water,pcm) int=ultrafine m062x scf=tight
 ------------------------------------------------------------------

 -----------------------
 tmpdir/M2_conf_83_4.gjf
 -----------------------
 Symbolic Z-matrix:
 Charge =  0 Multiplicity = 1

                         Standard orientation:
 ---------------------------------------------------------------------
 Center     Atomic      Atomic             Coordinates (Angstroms)
 Number     Number       Type             X           Y           Z
 ---------------------------------------------------------------------
      1          6           0       -0.000000   -1.393629    0.000000
      2         17           0       -0.000000    0.797571    0.000000
      3          1           0       -1.033730   -1.732309    0.000000
      4          1           0        0.516870   -1.732309    0.895240
      5          1           0        0.516870   -1.732309   -0.895240
 ---------------------------------------------------------------------

 SCF Done:  E(RM062X) =  -500.016617601     A.U. after   10 cycles

 The electronic state is 1-A'.
 Alpha  occ. eigenvalues -- -102.66349 -10.63683  -9.80698  -7.53076  -7.52450
 Alpha  occ. eigenvalues --   -7.52450  -0.89661  -0.79843  -0.51391  -0.51391
 Alpha  occ. eigenvalues --   -0.42661  -0.37280  -0.37280
 Alpha virt. eigenvalues --   -0.05037   0.03677   0.07023   0.07023   0.07176
 Alpha virt. eigenvalues --    0.09983   0.10905   0.10905   0.16718   0.21750
 Alpha virt. eigenvalues --    0.21750   0.29931   0.61321   0.61322   0.61343

 Mulliken charges:
               1
     1  C   -0.587610
     2  Cl  -0.247297
     3  H    0.278310
     4  H    0.278299
     5  H    0.278299
 Sum of Mulliken charges =  -0.00000

 Dipole moment (field-independent basis, Debye):
    X=              0.0002    Y=             -4.1833    Z=             -0.0000  Tot=              4.1833
 Quadrupole moment (field-independent basis, Debye-Ang):
   XX=            -20.4265   YY=            -15.6890   ZZ=            -20.4264
   XY=              0.0003   XZ=             -0.0000   YZ=              0.0000

 Normal termination of Gaussian 16 at Fri Sep 22 17:17:21 2023.
