 Gaussian 16, Revision A.03,
 Gaussian 16:  ES64L-G16RevA.03 25-Dec-2016

 ------------------------------------------------------------------
 # 6-31+g(d) scrf=(solvent=water,pcm) int=ultrafine m062x scf=tight
 ------------------------------------------------------------------

 -----------------------
 tmpdir/M2_conf_69_4.gjf
 -----------------------
 Symbolic Z-matrix:
 Charge =  0 Multiplicity = 1

                         Standard orientation:
 ---------------------------------------------------------------------
 Center     Atomic      Atomic             Coordinates (Angstroms)
 Number     Number       Type             X           Y           Z
 ---------------------------------------------------------------------
      1          6           0       -0.000000   -1.327983    0.000000
      2         17           0       -0.000000    0.762817    0.000000
      3          1           0       -1.033730   -1.666663    0.000000
      4          1           0        0.516870   -1.666663    0.895240
      5          1           0        0.516870   -1.666663   -0.895240
 ---------------------------------------------------------------------

 SCF Done:  E(RM062X) =  -500.029007007     A.U. after   10 cycles

 The electronic state is 1-A'.
 Alpha  occ. eigenvalues -- -102.66434 -10.62805  -9.80846  -7.53229  -7.52595
 Alpha  occ. eigenvalues --   -7.52595  -0.90702  -0.79125  -0.51225  -0.51224
 Alpha  occ. eigenvalues --   -0.43818  -0.37330  -0.37330
 Alpha virt. eigenvalues --   -0.02838   0.03654   0.07035   0.07036   0.07600
 Alpha virt. eigenvalues --    0.09854   0.10945   0.10945   0.16973   0.21856
 Alpha virt. eigenvalues --    0.21857   0.29928   0.61169   0.61713   0.61714

 Mulliken charges:
               1
     1  C   -0.620240
     2  Cl  -0.204727
     3  H    0.274985
     4  H    0.274991
     5  H    0.274991
 Sum of Mulliken charges =   0.00000

 Dipole moment (field-independent basis, Debye):
    X=              0.0003    Y=             -3.7443    Z=              0.0000  Tot=              3.7443
 Quadrupole moment (field-independent basis, Debye-Ang):
   XX=            -20.3495   YY=            -16.3516   ZZ=            -20.3494
   XY=              0.0002   XZ=              0.0000   YZ=             -0.0000

 Normal termination of Gaussian 16 at Fri Sep 22 17:15:45 2023.
