 Gaussian 16, Revision A.03,
 Gaussian 16:  ES64L-G16RevA.03 25-Dec-2016

 ------------------------------------------------------------------
 # 6-31+g(d) scrf=(solvent=water,pcm) int=ultrafine m062x scf=tight
 ------------------------------------------------------------------

 ------------------------
 tmpdir/M2_conf_108_4.gjf
 ------------------------
 Symbolic Z-matrix:
 Charge =  0 Multiplicity = 1

                         Standard orientation:
 ---------------------------------------------------------------------
 Center     Atomic      Atomic             Coordinates (Angstroms)
 Number     Number       Type             X           Y           Z
 ---------------------------------------------------------------------
      1          6           0       -0.000000   -1.514525    0.000000
      2         17           0       -0.000000    0.861575    0.000000
      3          1           0       -1.033730   -1.853205    0.000000
      4          1           0        0.516870   -1.853205    0.895240
      5          1           0        0.516870   -1.853205   -0.895240
 ---------------------------------------------------------------------

 SCF Done:  E(RM062X) =  -499.992801146     A.U. after   11 cycles

 The electronic state is 1-A'.
 Alpha  occ. eigenvalues -- -102.66040 -10.65191  -9.80312  -7.52678  -7.52073
 Alpha  occ. eigenvalues --   -7.52072  -0.88207  -0.81039  -0.51931  -0.51930
 Alpha  occ. eigenvalues --   -0.40738  -0.37016  -0.37016
 Alpha virt. eigenvalues --   -0.08592   0.03680   0.06758   0.06957   0.06957
 Alpha virt. eigenvalues --    0.10253   0.10843   0.10843   0.16283   0.21491
 Alpha virt. eigenvalues --    0.21492   0.29846   0.60936   0.60937   0.61968

 Mulliken charges:
               1
     1  C   -0.528789
     2  Cl  -0.322432
     3  H    0.283751
     4  H    0.283735
     5  H    0.283735
 Sum of Mulliken charges =   0.00000

 Dipole moment (field-independent basis, Debye):
    X=              0.0000    Y=             -5.0565    Z=              0.0000  Tot=              5.0565
 Quadrupole moment (field-independent basis, Debye-Ang):
   XX=            -20.5407   YY=            -14.4055   ZZ=            -20.5406
   XY=              0.0002   XZ=              0.0000   YZ=             -0.0000

 Normal termination of Gaussian 16 at Fri Sep 22 17:20:18 2023.
