 Gaussian 16, Revision A.03,
 Gaussian 16:  ES64L-G16RevA.03 25-Dec-2016

 ------------------------------------------------------------------
 # 6-31+g(d) scrf=(solvent=water,pcm) int=ultrafine m062x scf=tight
 ------------------------------------------------------------------

 -----------------------
 tmpdir/M2_conf_91_8.gjf
 -----------------------
 Symbolic Z-matrix:
 Charge =  0 Multiplicity = 1

                         Standard orientation:
 ---------------------------------------------------------------------
 Center     Atomic      Atomic             Coordinates (Angstroms)
 Number     Number       Type             X           Y           Z
 ---------------------------------------------------------------------
      1          1           0        1.042961   -0.002145   -0.374202
      2          6           0        0.015256   -0.013519   -0.017829
      3          1           0       -0.801568   -0.163298   -0.720454
      4          1           0       -0.118218   -0.771883    0.750528
      5          1           0       -0.214712    1.018438    0.451105
 ---------------------------------------------------------------------

 SCF Done:  E(RM062X) =  -40.4786358492     A.U. after    9 cycles

 The electronic state is 1-A.
 Alpha  occ. eigenvalues --  -10.53209  -0.78229  -0.47506  -0.45180  -0.43287
 Alpha virt. eigenvalues --    0.03921   0.07046   0.07211   0.07388   0.20666
 Alpha virt. eigenvalues --    0.22639   0.24506   0.30566   0.68963   0.69268
 Alpha virt. eigenvalues --    0.70535   0.95223   0.98922   1.03036   1.11213

 Mulliken charges:
               1
     1  H    0.215584
     2  C   -0.831938
     3  H    0.213419
     4  H    0.210581
     5  H    0.192354
 Sum of Mulliken charges =   0.00000

 Dipole moment (field-independent basis, Debye):
    X=             -0.0494    Y=             -0.0201    Z=              0.0352  Tot=              0.0639
 Quadrupole moment (field-independent basis, Debye-Ang):
   XX=             -8.1416   YY=             -8.6011   ZZ=             -8.8260
   XY=              0.0426   XZ=              0.0102   YZ=             -0.0912

 Normal termination of Gaussian 16 at Fri Sep 22 17:18:17 2023.
