 Gaussian 16, Revision A.03,
 Gaussian 16:  ES64L-G16RevA.03 25-Dec-2016

 ------------------------------------------------------------------
 # 6-31+g(d) scrf=(solvent=water,pcm) int=ultrafine m062x scf=tight
 ------------------------------------------------------------------

 -----------------------
 tmpdir/M2_conf_49_7.gjf
 -----------------------
 Symbolic Z-matrix:
 Charge =  0 Multiplicity = 1

                         Standard orientation:
 ---------------------------------------------------------------------
 Center     Atomic      Atomic             Coordinates (Angstroms)
 Number     Number       Type             X           Y           Z
 ---------------------------------------------------------------------
      1          1           0        1.052942    1.398184    0.000000
      2          6           0       -0.002867    1.136314    0.000000
      3         17           0       -0.002867   -0.661189   -0.000000
      4          1           0       -0.493503    1.512071    0.895200
      5          1           0       -0.493503    1.512071   -0.895200
 ---------------------------------------------------------------------

 SCF Done:  E(RM062X) =  -500.050192541     A.U. after   10 cycles

 The electronic state is 1-A'.
 Alpha  occ. eigenvalues -- -102.66262 -10.60050  -9.80994  -7.53386  -7.52738
 Alpha  occ. eigenvalues --   -7.52734  -0.95399  -0.76691  -0.51857  -0.51707
 Alpha  occ. eigenvalues --   -0.47365  -0.36836  -0.36661
 Alpha virt. eigenvalues --    0.02802   0.03490   0.06907   0.06932   0.09128
 Alpha virt. eigenvalues --    0.11084   0.11100   0.12193   0.17788   0.21796
 Alpha virt. eigenvalues --    0.22107   0.29698   0.60597   0.63612   0.63943

 Mulliken charges:
               1
     1  H    0.260146
     2  C   -0.701139
     3  Cl  -0.085074
     4  H    0.263034
     5  H    0.263034
 Sum of Mulliken charges =   0.00000

 Dipole moment (field-independent basis, Debye):
    X=              0.0371    Y=              2.6294    Z=             -0.0000  Tot=              2.6297
 Quadrupole moment (field-independent basis, Debye-Ang):
   XX=            -20.0619   YY=            -18.1301   ZZ=            -20.0428
   XY=             -0.1378   XZ=              0.0000   YZ=             -0.0000

 Normal termination of Gaussian 16 at Fri Sep 22 17:13:32 2023.
