 Gaussian 16, Revision A.03,
 Gaussian 16:  ES64L-G16RevA.03 25-Dec-2016

 ------------------------------------------------------------------
 # 6-31+g(d) scrf=(solvent=water,pcm) int=ultrafine m062x scf=tight
 ------------------------------------------------------------------

 -----------------------
 tmpdir/M2_conf_73_6.gjf
 -----------------------
 Symbolic Z-matrix:
 Charge =  0 Multiplicity = 1

                         Standard orientation:
 ---------------------------------------------------------------------
 Center     Atomic      Atomic             Coordinates (Angstroms)
 Number     Number       Type             X           Y           Z
 ---------------------------------------------------------------------
      1          1           0       -1.037556    0.005312   -0.381817
      2          6           0       -0.013444   -0.013495   -0.015553
      3          1           0        0.788711   -0.194475   -0.727665
      4          1           0        0.101138   -0.755453    0.771641
      5          1           0        0.228369    1.025587    0.431162
 ---------------------------------------------------------------------

 SCF Done:  E(RM062X) =  -40.4794057060     A.U. after    9 cycles

 The electronic state is 1-A.
 Alpha  occ. eigenvalues --  -10.53205  -0.78212  -0.47269  -0.45261  -0.43468
 Alpha virt. eigenvalues --    0.03923   0.07064   0.07204   0.07381   0.20798
 Alpha virt. eigenvalues --    0.22722   0.24311   0.30595   0.68959   0.69198
 Alpha virt. eigenvalues --    0.70532   0.95522   0.99102   1.02668   1.11070

 Mulliken charges:
               1
     1  H    0.214765
     2  C   -0.830846
     3  H    0.212907
     4  H    0.210677
     5  H    0.192497
 Sum of Mulliken charges =  -0.00000

 Dipole moment (field-independent basis, Debye):
    X=              0.0408    Y=             -0.0207    Z=              0.0285  Tot=              0.0539
 Quadrupole moment (field-independent basis, Debye-Ang):
   XX=             -8.1960   YY=             -8.5983   ZZ=             -8.7677
   XY=             -0.0460   XZ=             -0.0120   YZ=             -0.0871

 Normal termination of Gaussian 16 at Fri Sep 22 17:16:10 2023.
