 Gaussian 16, Revision A.03,
 Gaussian 16:  ES64L-G16RevA.03 25-Dec-2016

 ------------------------------------------------------------------
 # 6-31+g(d) scrf=(solvent=water,pcm) int=ultrafine m062x scf=tight
 ------------------------------------------------------------------

 ------------------------
 tmpdir/M2_conf_109_6.gjf
 ------------------------
 Symbolic Z-matrix:
 Charge =  0 Multiplicity = 1

                         Standard orientation:
 ---------------------------------------------------------------------
 Center     Atomic      Atomic             Coordinates (Angstroms)
 Number     Number       Type             X           Y           Z
 ---------------------------------------------------------------------
      1          1           0       -1.040205    0.000775   -0.378168
      2          6           0       -0.014322   -0.013514   -0.016687
      3          1           0        0.795435   -0.177605   -0.724264
      4          1           0        0.110332   -0.764131    0.760707
      5          1           0        0.220368    1.022047    0.441845
 ---------------------------------------------------------------------

 SCF Done:  E(RM062X) =  -40.4790418317     A.U. after    9 cycles

 The electronic state is 1-A.
 Alpha  occ. eigenvalues --  -10.53207  -0.78220  -0.47386  -0.45219  -0.43381
 Alpha virt. eigenvalues --    0.03922   0.07055   0.07208   0.07384   0.20735
 Alpha virt. eigenvalues --    0.22679   0.24407   0.30581   0.68960   0.69231
 Alpha virt. eigenvalues --    0.70533   0.95379   0.99010   1.02853   1.11137

 Mulliken charges:
               1
     1  H    0.215159
     2  C   -0.831359
     3  H    0.213149
     4  H    0.210627
     5  H    0.192424
 Sum of Mulliken charges =  -0.00000

 Dipole moment (field-independent basis, Debye):
    X=              0.0451    Y=             -0.0203    Z=              0.0318  Tot=              0.0588
 Quadrupole moment (field-independent basis, Debye-Ang):
   XX=             -8.1690   YY=             -8.5997   ZZ=             -8.7965
   XY=             -0.0440   XZ=             -0.0110   YZ=             -0.0893

 Normal termination of Gaussian 16 at Fri Sep 22 17:20:24 2023.
