 Gaussian 16, Revision A.03,
 Gaussian 16:  ES64L-G16RevA.03 25-Dec-2016

 ------------------------------------------------------------------
 # 6-31+g(d) scrf=(solvent=water,pcm) int=ultrafine m062x scf=tight
 ------------------------------------------------------------------

 ------------------------
 tmpdir/M2_conf_122_9.gjf
 ------------------------
 Symbolic Z-matrix:
 Charge =  0 Multiplicity = 1

                         Standard orientation:
 ---------------------------------------------------------------------
 Center     Atomic      Atomic             Coordinates (Angstroms)
 Number     Number       Type             X           Y           Z
 ---------------------------------------------------------------------
      1          1           0       -1.055494    0.964809   -0.000000
      2          6           0        0.018007    1.140600   -0.000000
      3         17           0        0.018007   -0.656896    0.000000
      4          1           0        0.320662    1.679412    0.895200
      5          1           0        0.320662    1.679412   -0.895200
 ---------------------------------------------------------------------

 SCF Done:  E(RM062X) =  -500.019109622     A.U. after   11 cycles

 The electronic state is 1-A'.
 Alpha  occ. eigenvalues -- -102.66494 -10.59835  -9.81277  -7.53679  -7.53007
 Alpha  occ. eigenvalues --   -7.52987  -0.96336  -0.76494  -0.53669  -0.51572
 Alpha  occ. eigenvalues --   -0.46284  -0.37357  -0.35056
 Alpha virt. eigenvalues --    0.02196   0.03544   0.06790   0.06971   0.09044
 Alpha virt. eigenvalues --    0.10412   0.11058   0.11765   0.17587   0.21474
 Alpha virt. eigenvalues --    0.23015   0.28472   0.59850   0.62985   0.65273

 Mulliken charges:
               1
     1  H    0.241581
     2  C   -0.681616
     3  Cl  -0.093213
     4  H    0.266624
     5  H    0.266624
 Sum of Mulliken charges =   0.00000

 Dipole moment (field-independent basis, Debye):
    X=             -0.2652    Y=              2.4990    Z=             -0.0000  Tot=              2.5131
 Quadrupole moment (field-independent basis, Debye-Ang):
   XX=            -20.4813   YY=            -18.0267   ZZ=            -19.9962
   XY=              0.7390   XZ=             -0.0000   YZ=             -0.0000

 Normal termination of Gaussian 16 at Fri Sep 22 17:21:57 2023.
