 Gaussian 16, Revision A.03,
 Gaussian 16:  ES64L-G16RevA.03 25-Dec-2016

 ------------------------------------------------------------------
 # 6-31+g(d) scrf=(solvent=water,pcm) int=ultrafine m062x scf=tight
 ------------------------------------------------------------------

 -----------------------
 tmpdir/M2_conf_34_4.gjf
 -----------------------
 Symbolic Z-matrix:
 Charge =  0 Multiplicity = 1

                         Standard orientation:
 ---------------------------------------------------------------------
 Center     Atomic      Atomic             Coordinates (Angstroms)
 Number     Number       Type             X           Y           Z
 ---------------------------------------------------------------------
      1          6           0       -0.000000   -1.163737    0.000000
      2         17           0       -0.000000    0.675863    0.000000
      3          1           0       -1.033730   -1.502417    0.000000
      4          1           0        0.516870   -1.502417    0.895240
      5          1           0        0.516870   -1.502417   -0.895240
 ---------------------------------------------------------------------

 SCF Done:  E(RM062X) =  -500.050233468     A.U. after   10 cycles

 The electronic state is 1-A'.
 Alpha  occ. eigenvalues -- -102.66327 -10.60456  -9.80995  -7.53386  -7.52738
 Alpha  occ. eigenvalues --   -7.52738  -0.94512  -0.77075  -0.51547  -0.51547
 Alpha  occ. eigenvalues --   -0.46886  -0.36929  -0.36928
 Alpha virt. eigenvalues --    0.02255   0.03518   0.06955   0.06955   0.09129
 Alpha virt. eigenvalues --    0.11074   0.11074   0.11217   0.17665   0.21955
 Alpha virt. eigenvalues --    0.21955   0.29782   0.60902   0.63378   0.63378

 Mulliken charges:
               1
     1  C   -0.692252
     2  Cl  -0.100922
     3  H    0.264410
     4  H    0.264382
     5  H    0.264382
 Sum of Mulliken charges =  -0.00000

 Dipole moment (field-independent basis, Debye):
    X=             -0.0001    Y=             -2.7742    Z=              0.0000  Tot=              2.7742
 Quadrupole moment (field-independent basis, Debye-Ang):
   XX=            -20.0984   YY=            -17.8934   ZZ=            -20.0984
   XY=              0.0002   XZ=              0.0000   YZ=             -0.0000

 Normal termination of Gaussian 16 at Fri Sep 22 17:11:52 2023.
