 Gaussian 16, Revision A.03,
 Gaussian 16:  ES64L-G16RevA.03 25-Dec-2016

 ------------------------------------------------------------------
 # 6-31+g(d) scrf=(solvent=water,pcm) int=ultrafine m062x scf=tight
 ------------------------------------------------------------------

 -----------------------
 tmpdir/M2_conf_55_8.gjf
 -----------------------
 Symbolic Z-matrix:
 Charge =  0 Multiplicity = 1

                         Standard orientation:
 ---------------------------------------------------------------------
 Center     Atomic      Atomic             Coordinates (Angstroms)
 Number     Number       Type             X           Y           Z
 ---------------------------------------------------------------------
      1          1           0        1.023458    0.099430   -0.392132
      2          6           0        0.010962   -0.012733   -0.010583
      3          1           0       -0.728673   -0.343591   -0.736388
      4          1           0       -0.009852   -0.700803    0.831695
      5          1           0       -0.350703    1.021360    0.360322
 ---------------------------------------------------------------------

 SCF Done:  E(RM062X) =  -40.4805706204     A.U. after    9 cycles

 The electronic state is 1-A.
 Alpha  occ. eigenvalues --  -10.53197  -0.78186  -0.46778  -0.45480  -0.43774
 Alpha virt. eigenvalues --    0.03926   0.07099   0.07187   0.07368   0.21006
 Alpha virt. eigenvalues --    0.22929   0.23924   0.30646   0.68962   0.69088
 Alpha virt. eigenvalues --    0.70528   0.96021   0.99558   1.01865   1.10868

 Mulliken charges:
               1
     1  H    0.213321
     2  C   -0.829208
     3  H    0.212126
     4  H    0.210920
     5  H    0.192841
 Sum of Mulliken charges =   0.00000

 Dipole moment (field-independent basis, Debye):
    X=             -0.0210    Y=             -0.0234    Z=              0.0153  Tot=              0.0350
 Quadrupole moment (field-independent basis, Debye-Ang):
   XX=             -8.3177   YY=             -8.5845   ZZ=             -8.6491
   XY=              0.0721   XZ=              0.0203   YZ=             -0.0718

 Normal termination of Gaussian 16 at Fri Sep 22 17:14:11 2023.
