 Gaussian 16, Revision A.03,
 Gaussian 16:  ES64L-G16RevA.03 25-Dec-2016

 ------------------------------------------------------------------
 # 6-31+g(d) scrf=(solvent=water,pcm) int=ultrafine m062x scf=tight
 ------------------------------------------------------------------

 -----------------------
 tmpdir/M2_conf_81_4.gjf
 -----------------------
 Symbolic Z-matrix:
 Charge =  0 Multiplicity = 1

                         Standard orientation:
 ---------------------------------------------------------------------
 Center     Atomic      Atomic             Coordinates (Angstroms)
 Number     Number       Type             X           Y           Z
 ---------------------------------------------------------------------
      1          6           0       -0.000000   -1.384279   -0.000000
      2         17           0       -0.000000    0.792621    0.000000
      3          1           0       -1.033730   -1.722959   -0.000000
      4          1           0        0.516870   -1.722959    0.895240
      5          1           0        0.516870   -1.722959   -0.895240
 ---------------------------------------------------------------------

 SCF Done:  E(RM062X) =  -500.018433271     A.U. after   10 cycles

 The electronic state is 1-A'.
 Alpha  occ. eigenvalues -- -102.66365 -10.63560  -9.80722  -7.53100  -7.52474
 Alpha  occ. eigenvalues --   -7.52474  -0.89797  -0.79745  -0.51361  -0.51360
 Alpha  occ. eigenvalues --   -0.42822  -0.37292  -0.37292
 Alpha virt. eigenvalues --   -0.04733   0.03674   0.07026   0.07026   0.07225
 Alpha virt. eigenvalues --    0.09963   0.10910   0.10910   0.16753   0.21767
 Alpha virt. eigenvalues --    0.21767   0.29932   0.61310   0.61368   0.61369

 Mulliken charges:
               1
     1  C   -0.592285
     2  Cl  -0.241279
     3  H    0.277862
     4  H    0.277852
     5  H    0.277852
 Sum of Mulliken charges =  -0.00000

 Dipole moment (field-independent basis, Debye):
    X=              0.0002    Y=             -4.1193    Z=             -0.0000  Tot=              4.1193
 Quadrupole moment (field-independent basis, Debye-Ang):
   XX=            -20.4162   YY=            -15.7848   ZZ=            -20.4161
   XY=              0.0002   XZ=             -0.0000   YZ=              0.0000

 Normal termination of Gaussian 16 at Fri Sep 22 17:17:07 2023.
