 Gaussian 16, Revision A.03,
 Gaussian 16:  ES64L-G16RevA.03 25-Dec-2016

 ------------------------------------------------------------------
 # 6-31+g(d) scrf=(solvent=water,pcm) int=ultrafine m062x scf=tight
 ------------------------------------------------------------------

 -----------------------
 tmpdir/M2_conf_32_6.gjf
 -----------------------
 Symbolic Z-matrix:
 Charge =  0 Multiplicity = 1

                         Standard orientation:
 ---------------------------------------------------------------------
 Center     Atomic      Atomic             Coordinates (Angstroms)
 Number     Number       Type             X           Y           Z
 ---------------------------------------------------------------------
      1          1           0       -0.351884    0.967810   -0.368164
      2          6           0       -0.014620    0.000563   -0.002112
      3          1           0       -0.264113   -0.798496   -0.696785
      4          1           0       -0.433440   -0.207621    0.980005
      5          1           0        1.137158    0.034931    0.097618
 ---------------------------------------------------------------------

 SCF Done:  E(RM062X) =  -40.4813111484     A.U. after    9 cycles

 The electronic state is 1-A.
 Alpha  occ. eigenvalues --  -10.53192  -0.78171  -0.46111  -0.45886  -0.44053
 Alpha virt. eigenvalues --    0.03928   0.07145   0.07160   0.07353   0.21173
 Alpha virt. eigenvalues --    0.23263   0.23429   0.30694   0.68985   0.69002
 Alpha virt. eigenvalues --    0.70528   0.96461   1.00329   1.00725   1.10748

 Mulliken charges:
               1
     1  H    0.211783
     2  C   -0.828169
     3  H    0.211568
     4  H    0.211401
     5  H    0.193418
 Sum of Mulliken charges =  -0.00000

 Dipole moment (field-independent basis, Debye):
    X=             -0.0235    Y=             -0.0053    Z=              0.0014  Tot=              0.0242
 Quadrupole moment (field-independent basis, Debye-Ang):
   XX=             -8.5999   YY=             -8.4459   ZZ=             -8.4972
   XY=             -0.0086   XZ=             -0.0209   YZ=             -0.0012

 Normal termination of Gaussian 16 at Fri Sep 22 17:11:38 2023.
