 Gaussian 16, Revision A.03,
 Gaussian 16:  ES64L-G16RevA.03 25-Dec-2016

 ------------------------------------------------------------------
 # 6-31+g(d) scrf=(solvent=water,pcm) int=ultrafine m062x scf=tight
 ------------------------------------------------------------------

 ------------------------
 tmpdir/M2_conf_111_5.gjf
 ------------------------
 Symbolic Z-matrix:
 Charge =  0 Multiplicity = 1

                         Standard orientation:
 ---------------------------------------------------------------------
 Center     Atomic      Atomic             Coordinates (Angstroms)
 Number     Number       Type             X           Y           Z
 ---------------------------------------------------------------------
      1          1           0        1.039356    0.001957   -0.379372
      2          6           0        0.014041   -0.013511   -0.016332
      3          1           0       -0.793445   -0.182551   -0.725351
      4          1           0       -0.107620   -0.761520    0.764043
      5          1           0       -0.222537    1.023177    0.438672
 ---------------------------------------------------------------------

 SCF Done:  E(RM062X) =  -40.4791597956     A.U. after    9 cycles

 The electronic state is 1-A.
 Alpha  occ. eigenvalues --  -10.53206  -0.78217  -0.47349  -0.45232  -0.43409
 Alpha virt. eigenvalues --    0.03923   0.07058   0.07206   0.07383   0.20756
 Alpha virt. eigenvalues --    0.22692   0.24377   0.30585   0.68960   0.69220
 Alpha virt. eigenvalues --    0.70533   0.95425   0.99038   1.02795   1.11115

 Mulliken charges:
               1
     1  H    0.215034
     2  C   -0.831192
     3  H    0.213069
     4  H    0.210643
     5  H    0.192447
 Sum of Mulliken charges =   0.00000

 Dipole moment (field-independent basis, Debye):
    X=             -0.0437    Y=             -0.0204    Z=              0.0308  Tot=              0.0573
 Quadrupole moment (field-independent basis, Debye-Ang):
   XX=             -8.1774   YY=             -8.5992   ZZ=             -8.7875
   XY=              0.0445   XZ=              0.0113   YZ=             -0.0887

 Normal termination of Gaussian 16 at Fri Sep 22 17:20:38 2023.
