 Gaussian 16, Revision A.03,
 Gaussian 16:  ES64L-G16RevA.03 25-Dec-2016

 ------------------------------------------------------------------
 # 6-31+g(d) scrf=(solvent=water,pcm) int=ultrafine m062x scf=tight
 ------------------------------------------------------------------

 -----------------------
 tmpdir/M2_conf_28_5.gjf
 -----------------------
 Symbolic Z-matrix:
 Charge =  0 Multiplicity = 1

                         Standard orientation:
 ---------------------------------------------------------------------
 Center     Atomic      Atomic             Coordinates (Angstroms)
 Number     Number       Type             X           Y           Z
 ---------------------------------------------------------------------
      1          1           0        0.349664    0.971282   -0.358913
      2          6           0        0.014354    0.000306   -0.001028
      3          1           0        0.311420   -0.793228   -0.683198
      4          1           0        0.393892   -0.194070    0.999708
      5          1           0       -1.141097    0.014179    0.048575
 ---------------------------------------------------------------------

 SCF Done:  E(RM062X) =  -40.4813354644     A.U. after    9 cycles

 The electronic state is 1-A.
 Alpha  occ. eigenvalues --  -10.53191  -0.78171  -0.46042  -0.45933  -0.44074
 Alpha virt. eigenvalues --    0.03928   0.07150   0.07157   0.07352   0.21185
 Alpha virt. eigenvalues --    0.23300   0.23379   0.30697   0.68989   0.68997
 Alpha virt. eigenvalues --    0.70528   0.96494   1.00415   1.00606   1.10743

 Mulliken charges:
               1
     1  H    0.211645
     2  C   -0.828118
     3  H    0.211531
     4  H    0.211456
     5  H    0.193486
 Sum of Mulliken charges =   0.00000

 Dipole moment (field-independent basis, Debye):
    X=              0.0249    Y=             -0.0024    Z=              0.0006  Tot=              0.0251
 Quadrupole moment (field-independent basis, Debye-Ang):
   XX=             -8.5975   YY=             -8.4604   ZZ=             -8.4846
   XY=              0.0036   XZ=              0.0105   YZ=             -0.0004

 Normal termination of Gaussian 16 at Fri Sep 22 17:11:11 2023.
