 Gaussian 16, Revision A.03,
 Gaussian 16:  ES64L-G16RevA.03 25-Dec-2016

 ------------------------------------------------------------------
 # 6-31+g(d) scrf=(solvent=water,pcm) int=ultrafine m062x scf=tight
 ------------------------------------------------------------------

 -----------------------
 tmpdir/M2_conf_38_6.gjf
 -----------------------
 Symbolic Z-matrix:
 Charge =  0 Multiplicity = 1

                         Standard orientation:
 ---------------------------------------------------------------------
 Center     Atomic      Atomic             Coordinates (Angstroms)
 Number     Number       Type             X           Y           Z
 ---------------------------------------------------------------------
      1          1           0       -0.395725    0.947211   -0.381647
      2          6           0       -0.015126    0.000584   -0.004353
      3          1           0       -0.139766   -0.810901   -0.717974
      4          1           0       -0.492899   -0.259311    0.937714
      5          1           0        1.119144    0.119499    0.188026
 ---------------------------------------------------------------------

 SCF Done:  E(RM062X) =  -40.4812230308     A.U. after    9 cycles

 The electronic state is 1-A.
 Alpha  occ. eigenvalues --  -10.53193  -0.78173  -0.46264  -0.45784  -0.44001
 Alpha virt. eigenvalues --    0.03928   0.07135   0.07167   0.07356   0.21145
 Alpha virt. eigenvalues --    0.23183   0.23539   0.30686   0.68978   0.69016
 Alpha virt. eigenvalues --    0.70527   0.96382   1.00142   1.00988   1.10763

 Mulliken charges:
               1
     1  H    0.212094
     2  C   -0.828303
     3  H    0.211652
     4  H    0.211276
     5  H    0.193280
 Sum of Mulliken charges =  -0.00000

 Dipole moment (field-independent basis, Debye):
    X=             -0.0200    Y=             -0.0121    Z=              0.0038  Tot=              0.0237
 Quadrupole moment (field-independent basis, Debye-Ang):
   XX=             -8.5989   YY=             -8.4164   ZZ=             -8.5288
   XY=             -0.0283   XZ=             -0.0398   YZ=             -0.0055

 Normal termination of Gaussian 16 at Fri Sep 22 17:12:17 2023.
