 Gaussian 16, Revision A.03,
 Gaussian 16:  ES64L-G16RevA.03 25-Dec-2016

 ------------------------------------------------------------------
 # 6-31+g(d) scrf=(solvent=water,pcm) int=ultrafine m062x scf=tight
 ------------------------------------------------------------------

 -----------------------
 tmpdir/M2_conf_82_9.gjf
 -----------------------
 Symbolic Z-matrix:
 Charge =  0 Multiplicity = 1

                         Standard orientation:
 ---------------------------------------------------------------------
 Center     Atomic      Atomic             Coordinates (Angstroms)
 Number     Number       Type             X           Y           Z
 ---------------------------------------------------------------------
      1          1           0       -1.075459    1.217215   -0.000000
      2          6           0        0.009406    1.137356   -0.000000
      3         17           0        0.009406   -0.660145    0.000000
      4          1           0        0.429560    1.590554    0.895200
      5          1           0        0.429560    1.590554   -0.895200
 ---------------------------------------------------------------------

 SCF Done:  E(RM062X) =  -500.043045291     A.U. after   11 cycles

 The electronic state is 1-A'.
 Alpha  occ. eigenvalues -- -102.66301 -10.60019  -9.81042  -7.53438  -7.52786
 Alpha  occ. eigenvalues --   -7.52773  -0.95587  -0.76651  -0.52410  -0.51635
 Alpha  occ. eigenvalues --   -0.46988  -0.37022  -0.36234
 Alpha virt. eigenvalues --    0.02649   0.03504   0.06867   0.06952   0.09109
 Alpha virt. eigenvalues --    0.10925   0.11092   0.11996   0.17741   0.21615
 Alpha virt. eigenvalues --    0.22501   0.29287   0.60322   0.63325   0.64644

 Mulliken charges:
               1
     1  H    0.253375
     2  C   -0.693702
     3  Cl  -0.089014
     4  H    0.264670
     5  H    0.264670
 Sum of Mulliken charges =  -0.00000

 Dipole moment (field-independent basis, Debye):
    X=             -0.1270    Y=              2.6077    Z=              0.0000  Tot=              2.6108
 Quadrupole moment (field-independent basis, Debye-Ang):
   XX=            -20.1714   YY=            -18.0968   ZZ=            -20.0283
   XY=              0.4363   XZ=              0.0000   YZ=              0.0000

 Normal termination of Gaussian 16 at Fri Sep 22 17:17:15 2023.
