 Gaussian 16, Revision A.03,
 Gaussian 16:  ES64L-G16RevA.03 25-Dec-2016

 ------------------------------------------------------------------
 # 6-31+g(d) scrf=(solvent=water,pcm) int=ultrafine m062x scf=tight
 ------------------------------------------------------------------

 ------------------------
 tmpdir/M2_conf_103_4.gjf
 ------------------------
 Symbolic Z-matrix:
 Charge =  0 Multiplicity = 1

                         Standard orientation:
 ---------------------------------------------------------------------
 Center     Atomic      Atomic             Coordinates (Angstroms)
 Number     Number       Type             X           Y           Z
 ---------------------------------------------------------------------
      1          6           0       -0.000000   -1.491379    0.000000
      2         17           0       -0.000000    0.849321    0.000000
      3          1           0       -1.033730   -1.830059    0.000000
      4          1           0        0.516870   -1.830059    0.895240
      5          1           0        0.516870   -1.830059   -0.895240
 ---------------------------------------------------------------------

 SCF Done:  E(RM062X) =  -499.997341719     A.U. after   11 cycles

 The electronic state is 1-A'.
 Alpha  occ. eigenvalues -- -102.66113 -10.64913  -9.80397  -7.52765  -7.52155
 Alpha  occ. eigenvalues --   -7.52155  -0.88449  -0.80822  -0.51810  -0.51810
 Alpha  occ. eigenvalues --   -0.41083  -0.37079  -0.37079
 Alpha virt. eigenvalues --   -0.07969   0.03683   0.06816   0.06973   0.06974
 Alpha virt. eigenvalues --    0.10201   0.10854   0.10854   0.16362   0.21546
 Alpha virt. eigenvalues --    0.21547   0.29871   0.60980   0.60981   0.61831

 Mulliken charges:
               1
     1  C   -0.539650
     2  Cl  -0.308523
     3  H    0.282735
     4  H    0.282719
     5  H    0.282719
 Sum of Mulliken charges =  -0.00000

 Dipole moment (field-independent basis, Debye):
    X=              0.0001    Y=             -4.8830    Z=              0.0000  Tot=              4.8830
 Quadrupole moment (field-independent basis, Debye-Ang):
   XX=            -20.5212   YY=            -14.6578   ZZ=            -20.5211
   XY=              0.0002   XZ=              0.0000   YZ=             -0.0000

 Normal termination of Gaussian 16 at Fri Sep 22 17:19:43 2023.
