 Gaussian 16, Revision A.03,
 Gaussian 16:  ES64L-G16RevA.03 25-Dec-2016

 ------------------------------------------------------------------
 # 6-31+g(d) scrf=(solvent=water,pcm) int=ultrafine m062x scf=tight
 ------------------------------------------------------------------

 -----------------------
 tmpdir/M2_conf_81_5.gjf
 -----------------------
 Symbolic Z-matrix:
 Charge =  0 Multiplicity = 1

                         Standard orientation:
 ---------------------------------------------------------------------
 Center     Atomic      Atomic             Coordinates (Angstroms)
 Number     Number       Type             X           Y           Z
 ---------------------------------------------------------------------
      1          1           0        1.040862   -0.000056   -0.377236
      2          6           0        0.014543   -0.013517   -0.016963
      3          1           0       -0.796967   -0.173928   -0.723375
      4          1           0       -0.112344   -0.766089    0.758175
      5          1           0       -0.218811    1.021173    0.444212
 ---------------------------------------------------------------------

 SCF Done:  E(RM062X) =  -40.4789474136     A.U. after    9 cycles

 The electronic state is 1-A.
 Alpha  occ. eigenvalues --  -10.53207  -0.78222  -0.47415  -0.45209  -0.43359
 Alpha virt. eigenvalues --    0.03922   0.07053   0.07208   0.07385   0.20719
 Alpha virt. eigenvalues --    0.22669   0.24431   0.30578   0.68961   0.69239
 Alpha virt. eigenvalues --    0.70533   0.95342   0.98988   1.02897   1.11154

 Mulliken charges:
               1
     1  H    0.215259
     2  C   -0.831493
     3  H    0.213211
     4  H    0.210615
     5  H    0.192407
 Sum of Mulliken charges =  -0.00000

 Dipole moment (field-independent basis, Debye):
    X=             -0.0461    Y=             -0.0203    Z=              0.0326  Tot=              0.0600
 Quadrupole moment (field-independent basis, Debye-Ang):
   XX=             -8.1624   YY=             -8.6000   ZZ=             -8.8036
   XY=              0.0436   XZ=              0.0108   YZ=             -0.0898

 Normal termination of Gaussian 16 at Fri Sep 22 17:17:06 2023.
