 Gaussian 16, Revision A.03,
 Gaussian 16:  ES64L-G16RevA.03 25-Dec-2016

 ------------------------------------------------------------------
 # 6-31+g(d) scrf=(solvent=water,pcm) int=ultrafine m062x scf=tight
 ------------------------------------------------------------------

 -----------------------
 tmpdir/M2_conf_67_7.gjf
 -----------------------
 Symbolic Z-matrix:
 Charge =  0 Multiplicity = 1

                         Standard orientation:
 ---------------------------------------------------------------------
 Center     Atomic      Atomic             Coordinates (Angstroms)
 Number     Number       Type             X           Y           Z
 ---------------------------------------------------------------------
      1          1           0        1.068063    1.307988    0.000000
      2          6           0       -0.006165    1.136693    0.000000
      3         17           0       -0.006165   -0.660802   -0.000000
      4          1           0       -0.463132    1.552746    0.895200
      5          1           0       -0.463132    1.552746   -0.895200
 ---------------------------------------------------------------------

 SCF Done:  E(RM062X) =  -500.047600154     A.U. after   10 cycles

 The electronic state is 1-A'.
 Alpha  occ. eigenvalues -- -102.66275 -10.60040  -9.81010  -7.53404  -7.52754
 Alpha  occ. eigenvalues --   -7.52746  -0.95465  -0.76677  -0.52085  -0.51666
 Alpha  occ. eigenvalues --   -0.47214  -0.36927  -0.36484
 Alpha virt. eigenvalues --    0.02745   0.03495   0.06889   0.06943   0.09121
 Alpha virt. eigenvalues --    0.11029   0.11098   0.12106   0.17771   0.21687
 Alpha virt. eigenvalues --    0.22305   0.29537   0.60484   0.63463   0.64273

 Mulliken charges:
               1
     1  H    0.257098
     2  C   -0.698214
     3  Cl  -0.086672
     4  H    0.263894
     5  H    0.263894
 Sum of Mulliken charges =  -0.00000

 Dipole moment (field-independent basis, Debye):
    X=              0.0815    Y=              2.6223    Z=              0.0000  Tot=              2.6235
 Quadrupole moment (field-independent basis, Debye-Ang):
   XX=            -20.1038   YY=            -18.1173   ZZ=            -20.0362
   XY=             -0.2924   XZ=             -0.0000   YZ=              0.0000

 Normal termination of Gaussian 16 at Fri Sep 22 17:15:32 2023.
