 Gaussian 16, Revision A.03,
 Gaussian 16:  ES64L-G16RevA.03 25-Dec-2016

 ------------------------------------------------------------------
 # 6-31+g(d) scrf=(solvent=water,pcm) int=ultrafine m062x scf=tight
 ------------------------------------------------------------------

 -----------------------
 tmpdir/M2_conf_92_5.gjf
 -----------------------
 Symbolic Z-matrix:
 Charge =  0 Multiplicity = 1

                         Standard orientation:
 ---------------------------------------------------------------------
 Center     Atomic      Atomic             Coordinates (Angstroms)
 Number     Number       Type             X           Y           Z
 ---------------------------------------------------------------------
      1          1           0        1.043036   -0.002205   -0.374092
      2          6           0        0.015281   -0.013519   -0.017860
      3          1           0       -0.801723   -0.162949   -0.720349
      4          1           0       -0.118413   -0.772076    0.750268
      5          1           0       -0.214588    1.018343    0.451332
 ---------------------------------------------------------------------

 SCF Done:  E(RM062X) =  -40.4786245456     A.U. after    9 cycles

 The electronic state is 1-A.
 Alpha  occ. eigenvalues --  -10.53209  -0.78229  -0.47510  -0.45179  -0.43284
 Alpha virt. eigenvalues --    0.03921   0.07046   0.07211   0.07388   0.20664
 Alpha virt. eigenvalues --    0.22638   0.24509   0.30566   0.68963   0.69269
 Alpha virt. eigenvalues --    0.70535   0.95218   0.98920   1.03041   1.11215

 Mulliken charges:
               1
     1  H    0.215595
     2  C   -0.831954
     3  H    0.213426
     4  H    0.210580
     5  H    0.192352
 Sum of Mulliken charges =   0.00000

 Dipole moment (field-independent basis, Debye):
    X=             -0.0495    Y=             -0.0201    Z=              0.0353  Tot=              0.0640
 Quadrupole moment (field-independent basis, Debye-Ang):
   XX=             -8.1409   YY=             -8.6011   ZZ=             -8.8268
   XY=              0.0425   XZ=              0.0102   YZ=             -0.0912

 Normal termination of Gaussian 16 at Fri Sep 22 17:18:24 2023.
