 Gaussian 16, Revision A.03,
 Gaussian 16:  ES64L-G16RevA.03 25-Dec-2016

 ------------------------------------------------------------------
 # 6-31+g(d) scrf=(solvent=water,pcm) int=ultrafine m062x scf=tight
 ------------------------------------------------------------------

 -----------------------
 tmpdir/M2_conf_48_4.gjf
 -----------------------
 Symbolic Z-matrix:
 Charge =  0 Multiplicity = 1

                         Standard orientation:
 ---------------------------------------------------------------------
 Center     Atomic      Atomic             Coordinates (Angstroms)
 Number     Number       Type             X           Y           Z
 ---------------------------------------------------------------------
      1          6           0       -0.000000   -1.229972    0.000000
      2         17           0       -0.000000    0.710928    0.000000
      3          1           0       -1.033730   -1.568652    0.000000
      4          1           0        0.516870   -1.568652    0.895240
      5          1           0        0.516870   -1.568652   -0.895240
 ---------------------------------------------------------------------

 SCF Done:  E(RM062X) =  -500.044374461     A.U. after   10 cycles

 The electronic state is 1-A'.
 Alpha  occ. eigenvalues -- -102.66428 -10.61424  -9.80973  -7.53361  -7.52719
 Alpha  occ. eigenvalues --   -7.52719  -0.92723  -0.77947  -0.51253  -0.51253
 Alpha  occ. eigenvalues --   -0.45632  -0.37202  -0.37202
 Alpha virt. eigenvalues --    0.00457   0.03587   0.07010   0.07010   0.08713
 Alpha virt. eigenvalues --    0.09906   0.11017   0.11017   0.17377   0.21951
 Alpha virt. eigenvalues --    0.21952   0.29862   0.61108   0.62586   0.62586

 Mulliken charges:
               1
     1  C   -0.665616
     2  Cl  -0.141787
     3  H    0.269141
     4  H    0.269131
     5  H    0.269131
 Sum of Mulliken charges =  -0.00000

 Dipole moment (field-independent basis, Debye):
    X=              0.0001    Y=             -3.1423    Z=              0.0000  Tot=              3.1423
 Quadrupole moment (field-independent basis, Debye-Ang):
   XX=            -20.2104   YY=            -17.2928   ZZ=            -20.2104
   XY=              0.0001   XZ=              0.0000   YZ=             -0.0000

 Normal termination of Gaussian 16 at Fri Sep 22 17:13:25 2023.
