 Gaussian 16, Revision A.03,
 Gaussian 16:  ES64L-G16RevA.03 25-Dec-2016

 ------------------------------------------------------------------
 # 6-31+g(d) scrf=(solvent=water,pcm) int=ultrafine m062x scf=tight
 ------------------------------------------------------------------

 -----------------------
 tmpdir/M2_conf_15_8.gjf
 -----------------------
 Symbolic Z-matrix:
 Charge =  0 Multiplicity = 1

                         Standard orientation:
 ---------------------------------------------------------------------
 Center     Atomic      Atomic             Coordinates (Angstroms)
 Number     Number       Type             X           Y           Z
 ---------------------------------------------------------------------
      1          1           0        0.352488    0.972109   -0.352062
      2          6           0        0.014096    0.000037   -0.000102
      3          1           0        0.349317   -0.790800   -0.667574
      4          1           0        0.356114   -0.182714    1.016229
      5          1           0       -1.142494    0.001184    0.004020
 ---------------------------------------------------------------------

 SCF Done:  E(RM062X) =  -40.4813482738     A.U. after    9 cycles

 The electronic state is 1-A.
 Alpha  occ. eigenvalues --  -10.53191  -0.78171  -0.45985  -0.45973  -0.44090
 Alpha virt. eigenvalues --    0.03929   0.07153   0.07154   0.07351   0.21194
 Alpha virt. eigenvalues --    0.23330   0.23339   0.30699   0.68992   0.68993
 Alpha virt. eigenvalues --    0.70529   0.96520   1.00487   1.00508   1.10740

 Mulliken charges:
               1
     1  H    0.211531
     2  C   -0.828074
     3  H    0.211499
     4  H    0.211500
     5  H    0.193544
 Sum of Mulliken charges =   0.00000

 Dipole moment (field-independent basis, Debye):
    X=              0.0261    Y=             -0.0002    Z=              0.0001  Tot=              0.0261
 Quadrupole moment (field-independent basis, Debye-Ang):
   XX=             -8.5941   YY=             -8.4727   ZZ=             -8.4753
   XY=              0.0003   XZ=              0.0009   YZ=             -0.0001

 Normal termination of Gaussian 16 at Fri Sep 22 17:09:45 2023.
