 Gaussian 16, Revision A.03,
 Gaussian 16:  ES64L-G16RevA.03 25-Dec-2016

 ------------------------------------------------------------------
 # 6-31+g(d) scrf=(solvent=water,pcm) int=ultrafine m062x scf=tight
 ------------------------------------------------------------------

 -----------------------
 tmpdir/M2_conf_41_1.gjf
 -----------------------
 Symbolic Z-matrix:
 Charge =  0 Multiplicity = 1

                         Standard orientation:
 ---------------------------------------------------------------------
 Center     Atomic      Atomic             Coordinates (Angstroms)
 Number     Number       Type             X           Y           Z
 ---------------------------------------------------------------------
      1          6           0       -0.014205    0.000012    0.001170
      2          1           0       -0.306228    0.000302    1.043017
      3          1           0       -0.376256   -0.894630   -0.500678
      4          1           0       -0.373593    0.895859   -0.500430
      5          1           0        1.141307   -0.001603   -0.048926
 ---------------------------------------------------------------------

 SCF Done:  E(RM062X) =  -40.4813037534     A.U. after    9 cycles

 The electronic state is 1-A.
 Alpha  occ. eigenvalues --  -10.53129  -0.78223  -0.46067  -0.45971  -0.44096
 Alpha virt. eigenvalues --    0.03931   0.07145   0.07157   0.07352   0.21206
 Alpha virt. eigenvalues --    0.23334   0.23459   0.30760   0.68876   0.69007
 Alpha virt. eigenvalues --    0.70528   0.96541   1.00498   1.00751   1.10836

 Mulliken charges:
               1
     1  C   -0.828496
     2  H    0.212564
     3  H    0.211296
     4  H    0.211296
     5  H    0.193340
 Sum of Mulliken charges =  -0.00000

 Dipole moment (field-independent basis, Debye):
    X=             -0.0275    Y=              0.0001    Z=              0.0048  Tot=              0.0279
 Quadrupole moment (field-independent basis, Debye-Ang):
   XX=             -8.5880   YY=             -8.4686   ZZ=             -8.4721
   XY=              0.0004   XZ=              0.0058   YZ=             -0.0000

 Normal termination of Gaussian 16 at Fri Sep 22 17:12:38 2023.
