 Gaussian 16, Revision A.03,
 Gaussian 16:  ES64L-G16RevA.03 25-Dec-2016

 ------------------------------------------------------------------
 # 6-31+g(d) scrf=(solvent=water,pcm) int=ultrafine m062x scf=tight
 ------------------------------------------------------------------

 -----------------------
 tmpdir/M2_conf_83_7.gjf
 -----------------------
 Symbolic Z-matrix:
 Charge =  0 Multiplicity = 1

                         Standard orientation:
 ---------------------------------------------------------------------
 Center     Atomic      Atomic             Coordinates (Angstroms)
 Number     Number       Type             X           Y           Z
 ---------------------------------------------------------------------
      1          1           0        1.075682    1.211018   -0.000000
      2          6           0       -0.009624    1.137410   -0.000000
      3         17           0       -0.009624   -0.660090    0.000000
      4          1           0       -0.427161    1.593021    0.895200
      5          1           0       -0.427161    1.593021   -0.895200
 ---------------------------------------------------------------------

 SCF Done:  E(RM062X) =  -500.042661289     A.U. after   11 cycles

 The electronic state is 1-A'.
 Alpha  occ. eigenvalues -- -102.66303 -10.60017  -9.81045  -7.53441  -7.52789
 Alpha  occ. eigenvalues --   -7.52775  -0.95598  -0.76648  -0.52435  -0.51633
 Alpha  occ. eigenvalues --   -0.46971  -0.37029  -0.36214
 Alpha virt. eigenvalues --    0.02641   0.03505   0.06865   0.06952   0.09108
 Alpha virt. eigenvalues --    0.10916   0.11092   0.11989   0.17738   0.21611
 Alpha virt. eigenvalues --    0.22514   0.29268   0.60310   0.63316   0.64668

 Mulliken charges:
               1
     1  H    0.253101
     2  C   -0.693359
     3  Cl  -0.089184
     4  H    0.264721
     5  H    0.264721
 Sum of Mulliken charges =   0.00000

 Dipole moment (field-independent basis, Debye):
    X=              0.1302    Y=              2.6064    Z=             -0.0000  Tot=              2.6096
 Quadrupole moment (field-independent basis, Debye-Ang):
   XX=            -20.1770   YY=            -18.0952   ZZ=            -20.0277
   XY=             -0.4456   XZ=              0.0000   YZ=             -0.0000

 Normal termination of Gaussian 16 at Fri Sep 22 17:17:22 2023.
