 Gaussian 16, Revision A.03,
 Gaussian 16:  ES64L-G16RevA.03 25-Dec-2016

 ------------------------------------------------------------------
 # 6-31+g(d) scrf=(solvent=water,pcm) int=ultrafine m062x scf=tight
 ------------------------------------------------------------------

 ------------------------
 tmpdir/M2_conf_78_10.gjf
 ------------------------
 Symbolic Z-matrix:
 Charge =  0 Multiplicity = 1

                         Standard orientation:
 ---------------------------------------------------------------------
 Center     Atomic      Atomic             Coordinates (Angstroms)
 Number     Number       Type             X           Y           Z
 ---------------------------------------------------------------------
      1          1           0        1.074184    1.242347    0.000000
      2          6           0       -0.008516    1.137143    0.000000
      3         17           0       -0.008516   -0.660353   -0.000000
      4          1           0       -0.439153    1.580393    0.895200
      5          1           0       -0.439153    1.580393   -0.895200
 ---------------------------------------------------------------------

 SCF Done:  E(RM062X) =  -500.044506018     A.U. after   11 cycles

 The electronic state is 1-A'.
 Alpha  occ. eigenvalues -- -102.66292 -10.60026  -9.81031  -7.53426  -7.52775
 Alpha  occ. eigenvalues --   -7.52763  -0.95547  -0.76659  -0.52312  -0.51643
 Alpha  occ. eigenvalues --   -0.47056  -0.36995  -0.36311
 Alpha virt. eigenvalues --    0.02679   0.03501   0.06873   0.06949   0.09113
 Alpha virt. eigenvalues --    0.10959   0.11094   0.12027   0.17751   0.21632
 Alpha virt. eigenvalues --    0.22447   0.29363   0.60370   0.63363   0.64542

 Mulliken charges:
               1
     1  H    0.254464
     2  C   -0.695060
     3  Cl  -0.088326
     4  H    0.264461
     5  H    0.264461
 Sum of Mulliken charges =  -0.00000

 Dipole moment (field-independent basis, Debye):
    X=              0.1143    Y=              2.6126    Z=             -0.0000  Tot=              2.6151
 Quadrupole moment (field-independent basis, Debye-Ang):
   XX=            -20.1502   YY=            -18.1031   ZZ=            -20.0307
   XY=             -0.3978   XZ=              0.0000   YZ=             -0.0000

 Normal termination of Gaussian 16 at Fri Sep 22 17:16:46 2023.
