 Gaussian 16, Revision A.03,
 Gaussian 16:  ES64L-G16RevA.03 25-Dec-2016

 ------------------------------------------------------------------
 # 6-31+g(d) scrf=(solvent=water,pcm) int=ultrafine m062x scf=tight
 ------------------------------------------------------------------

 ------------------------
 tmpdir/M2_conf_101_8.gjf
 ------------------------
 Symbolic Z-matrix:
 Charge =  0 Multiplicity = 1

                         Standard orientation:
 ---------------------------------------------------------------------
 Center     Atomic      Atomic             Coordinates (Angstroms)
 Number     Number       Type             X           Y           Z
 ---------------------------------------------------------------------
      1          1           0        1.042403   -0.001674   -0.375023
      2          6           0        0.015067   -0.013519   -0.017602
      3          1           0       -0.800403   -0.165954   -0.721230
      4          1           0       -0.116736   -0.770412    0.752492
      5          1           0       -0.215667    1.019154    0.449375
 ---------------------------------------------------------------------

 SCF Done:  E(RM062X) =  -40.4787196962     A.U. after    9 cycles

 The electronic state is 1-A.
 Alpha  occ. eigenvalues --  -10.53209  -0.78227  -0.47482  -0.45188  -0.43306
 Alpha virt. eigenvalues --    0.03922   0.07048   0.07210   0.07387   0.20680
 Alpha virt. eigenvalues --    0.22646   0.24486   0.30569   0.68962   0.69260
 Alpha virt. eigenvalues --    0.70534   0.95255   0.98939   1.03000   1.11197

 Mulliken charges:
               1
     1  H    0.215498
     2  C   -0.831817
     3  H    0.213362
     4  H    0.210590
     5  H    0.192368
 Sum of Mulliken charges =  -0.00000

 Dipole moment (field-independent basis, Debye):
    X=             -0.0485    Y=             -0.0201    Z=              0.0345  Tot=              0.0629
 Quadrupole moment (field-independent basis, Debye-Ang):
   XX=             -8.1470   YY=             -8.6008   ZZ=             -8.8201
   XY=              0.0428   XZ=              0.0104   YZ=             -0.0908

 Normal termination of Gaussian 16 at Fri Sep 22 17:19:27 2023.
