 Gaussian 16, Revision A.03,
 Gaussian 16:  ES64L-G16RevA.03 25-Dec-2016

 ------------------------------------------------------------------
 # 6-31+g(d) scrf=(solvent=water,pcm) int=ultrafine m062x scf=tight
 ------------------------------------------------------------------

 ------------------------
 tmpdir/M2_conf_105_7.gjf
 ------------------------
 Symbolic Z-matrix:
 Charge =  0 Multiplicity = 1

                         Standard orientation:
 ---------------------------------------------------------------------
 Center     Atomic      Atomic             Coordinates (Angstroms)
 Number     Number       Type             X           Y           Z
 ---------------------------------------------------------------------
      1          1           0        1.070694    1.065818    0.000000
      2          6           0       -0.014638    1.139050    0.000000
      3         17           0       -0.014638   -0.658448   -0.000000
      4          1           0       -0.367009    1.646744    0.895200
      5          1           0       -0.367009    1.646744   -0.895200
 ---------------------------------------------------------------------

 SCF Done:  E(RM062X) =  -500.030835588     A.U. after   11 cycles

 The electronic state is 1-A'.
 Alpha  occ. eigenvalues -- -102.66388 -10.59940  -9.81149  -7.53548  -7.52887
 Alpha  occ. eigenvalues --   -7.52868  -0.95948  -0.76575  -0.53112  -0.51597
 Alpha  occ. eigenvalues --   -0.46551  -0.37205  -0.35628
 Alpha virt. eigenvalues --    0.02408   0.03526   0.06824   0.06964   0.09078
 Alpha virt. eigenvalues --    0.10642   0.11075   0.11837   0.17660   0.21530
 Alpha virt. eigenvalues --    0.22816   0.28784   0.60025   0.63116   0.65136

 Mulliken charges:
               1
     1  H    0.246281
     2  C   -0.685369
     3  Cl  -0.092645
     4  H    0.265866
     5  H    0.265866
 Sum of Mulliken charges =   0.00000

 Dipole moment (field-independent basis, Debye):
    X=              0.2070    Y=              2.5587    Z=              0.0000  Tot=              2.5670
 Quadrupole moment (field-independent basis, Debye-Ang):
   XX=            -20.3372   YY=            -18.0533   ZZ=            -20.0113
   XY=             -0.6392   XZ=             -0.0000   YZ=              0.0000

 Normal termination of Gaussian 16 at Fri Sep 22 17:19:57 2023.
