 Gaussian 16, Revision A.03,
 Gaussian 16:  ES64L-G16RevA.03 25-Dec-2016

 ------------------------------------------------------------------
 # 6-31+g(d) scrf=(solvent=water,pcm) int=ultrafine m062x scf=tight
 ------------------------------------------------------------------

 ------------------------
 tmpdir/M2_conf_102_4.gjf
 ------------------------
 Symbolic Z-matrix:
 Charge =  0 Multiplicity = 1

                         Standard orientation:
 ---------------------------------------------------------------------
 Center     Atomic      Atomic             Coordinates (Angstroms)
 Number     Number       Type             X           Y           Z
 ---------------------------------------------------------------------
      1          6           0       -0.000000   -1.486802    0.000000
      2         17           0       -0.000000    0.846898   -0.000000
      3          1           0       -1.033730   -1.825482    0.000000
      4          1           0        0.516870   -1.825482    0.895240
      5          1           0        0.516870   -1.825482   -0.895240
 ---------------------------------------------------------------------

 SCF Done:  E(RM062X) =  -499.998243562     A.U. after   11 cycles

 The electronic state is 1-A'.
 Alpha  occ. eigenvalues -- -102.66127 -10.64857  -9.80413  -7.52781  -7.52171
 Alpha  occ. eigenvalues --   -7.52171  -0.88498  -0.80778  -0.51787  -0.51787
 Alpha  occ. eigenvalues --   -0.41152  -0.37091  -0.37091
 Alpha virt. eigenvalues --   -0.07842   0.03683   0.06828   0.06976   0.06977
 Alpha virt. eigenvalues --    0.10191   0.10856   0.10856   0.16378   0.21557
 Alpha virt. eigenvalues --    0.21557   0.29875   0.60990   0.60991   0.61804

 Mulliken charges:
               1
     1  C   -0.541823
     2  Cl  -0.305748
     3  H    0.282534
     4  H    0.282518
     5  H    0.282518
 Sum of Mulliken charges =  -0.00000

 Dipole moment (field-independent basis, Debye):
    X=              0.0001    Y=             -4.8490    Z=             -0.0000  Tot=              4.8490
 Quadrupole moment (field-independent basis, Debye-Ang):
   XX=            -20.5172   YY=            -14.7072   ZZ=            -20.5171
   XY=              0.0002   XZ=              0.0000   YZ=             -0.0000

 Normal termination of Gaussian 16 at Fri Sep 22 17:19:36 2023.
