 Gaussian 16, Revision A.03,
 Gaussian 16:  ES64L-G16RevA.03 25-Dec-2016

 ------------------------------------------------------------------
 # 6-31+g(d) scrf=(solvent=water,pcm) int=ultrafine m062x scf=tight
 ------------------------------------------------------------------

 -----------------------
 tmpdir/M2_conf_41_9.gjf
 -----------------------
 Symbolic Z-matrix:
 Charge =  0 Multiplicity = 1

                         Standard orientation:
 ---------------------------------------------------------------------
 Center     Atomic      Atomic             Coordinates (Angstroms)
 Number     Number       Type             X           Y           Z
 ---------------------------------------------------------------------
      1          1           0       -1.045242    1.431879    0.000000
      2          6           0        0.001614    1.136239    0.000000
      3         17           0        0.001614   -0.661259    0.000000
      4          1           0        0.504064    1.496047    0.895200
      5          1           0        0.504064    1.496047   -0.895200
 ---------------------------------------------------------------------

 SCF Done:  E(RM062X) =  -500.050672722     A.U. after   10 cycles

 The electronic state is 1-A'.
 Alpha  occ. eigenvalues -- -102.66260 -10.60050  -9.80990  -7.53383  -7.52734
 Alpha  occ. eigenvalues --   -7.52732  -0.95387  -0.76693  -0.51801  -0.51726
 Alpha  occ. eigenvalues --   -0.47395  -0.36802  -0.36710
 Alpha virt. eigenvalues --    0.02813   0.03489   0.06914   0.06928   0.09129
 Alpha virt. eigenvalues --    0.11094   0.11100   0.12212   0.17791   0.21853
 Alpha virt. eigenvalues --    0.22033   0.29730   0.60621   0.63672   0.63846

 Mulliken charges:
               1
     1  H    0.261113
     2  C   -0.701713
     3  Cl  -0.084755
     4  H    0.262677
     5  H    0.262677
 Sum of Mulliken charges =  -0.00000

 Dipole moment (field-independent basis, Debye):
    X=             -0.0207    Y=              2.6306    Z=              0.0000  Tot=              2.6307
 Quadrupole moment (field-independent basis, Debye-Ang):
   XX=            -20.0531   YY=            -18.1328   ZZ=            -20.0450
   XY=              0.0778   XZ=              0.0000   YZ=              0.0000

 Normal termination of Gaussian 16 at Fri Sep 22 17:12:39 2023.
