 Gaussian 16, Revision A.03,
 Gaussian 16:  ES64L-G16RevA.03 25-Dec-2016

 ------------------------------------------------------------------
 # 6-31+g(d) scrf=(solvent=water,pcm) int=ultrafine m062x scf=tight
 ------------------------------------------------------------------

 -------------------
 tmpdir/M2_ref_6.gjf
 -------------------
 Symbolic Z-matrix:
 Charge =  0 Multiplicity = 1

                         Standard orientation:
 ---------------------------------------------------------------------
 Center     Atomic      Atomic             Coordinates (Angstroms)
 Number     Number       Type             X           Y           Z
 ---------------------------------------------------------------------
      1          1           0        0.000000    1.033725    0.352734
      2          6           0        0.000000    0.000000    0.014054
      3          1           0       -0.895232   -0.516863    0.352734
      4          1           0        0.895232   -0.516863    0.352734
      5          1           0        0.000000    0.000000   -1.142527
 ---------------------------------------------------------------------

 SCF Done:  E(RM062X) =  -40.4813505853     A.U. after    9 cycles

 The electronic state is 1-A.
 Alpha  occ. eigenvalues --  -10.53190  -0.78172  -0.45978  -0.45978  -0.44093
 Alpha virt. eigenvalues --    0.03928   0.07154   0.07154   0.07350   0.21195
 Alpha virt. eigenvalues --    0.23334   0.23334   0.30700   0.68992   0.68992
 Alpha virt. eigenvalues --    0.70529   0.96524   1.00496   1.00496   1.10740

 Mulliken charges:
               1
     1  H    0.211510
     2  C   -0.828098
     3  H    0.211515
     4  H    0.211515
     5  H    0.193558
 Sum of Mulliken charges =  -0.00000

 Dipole moment (field-independent basis, Debye):
    X=             -0.0000    Y=             -0.0000    Z=              0.0263  Tot=              0.0263
 Quadrupole moment (field-independent basis, Debye-Ang):
   XX=             -8.4742   YY=             -8.4742   ZZ=             -8.5935
   XY=              0.0000   XZ=             -0.0000   YZ=             -0.0000

 Normal termination of Gaussian 16 at Fri Sep 22 17:07:55 2023.
