 Gaussian 16, Revision A.03,
 Gaussian 16:  ES64L-G16RevA.03 25-Dec-2016

 ------------------------------------------------------------------
 # 6-31+g(d) scrf=(solvent=water,pcm) int=ultrafine m062x scf=tight
 ------------------------------------------------------------------

 -------------------
 tmpdir/M2_ref_9.gjf
 -------------------
 Symbolic Z-matrix:
 Charge =  0 Multiplicity = 1

                         Standard orientation:
 ---------------------------------------------------------------------
 Center     Atomic      Atomic             Coordinates (Angstroms)
 Number     Number       Type             X           Y           Z
 ---------------------------------------------------------------------
      1          1           0        0.000000    1.033725   -1.474862
      2          6           0       -0.000000   -0.000000   -1.136183
      3         17           0       -0.000000   -0.000000    0.661275
      4          1           0        0.895232   -0.516863   -1.474862
      5          1           0       -0.895232   -0.516863   -1.474862
 ---------------------------------------------------------------------

 SCF Done:  E(RM062X) =  -500.050895767     A.U. after   10 cycles

 The electronic state is 1-A1.
 Alpha  occ. eigenvalues -- -102.66257 -10.60049  -9.80988  -7.53380  -7.52730
 Alpha  occ. eigenvalues --   -7.52730  -0.95381  -0.76692  -0.51754  -0.51754
 Alpha  occ. eigenvalues --   -0.47409  -0.36759  -0.36758
 Alpha virt. eigenvalues --    0.02819   0.03489   0.06921   0.06922   0.09130
 Alpha virt. eigenvalues --    0.11099   0.11100   0.12223   0.17792   0.21939
 Alpha virt. eigenvalues --    0.21940   0.29745   0.60633   0.63751   0.63752

 Mulliken charges:
               1
     1  H    0.262193
     2  C   -0.701985
     3  Cl  -0.084595
     4  H    0.262193
     5  H    0.262193
 Sum of Mulliken charges =   0.00000

 Dipole moment (field-independent basis, Debye):
    X=             -0.0000    Y=             -0.0000    Z=             -2.6311  Tot=              2.6311
 Quadrupole moment (field-independent basis, Debye-Ang):
   XX=            -20.0474   YY=            -20.0474   ZZ=            -18.1347
   XY=             -0.0000   XZ=              0.0000   YZ=              0.0000

 Normal termination of Gaussian 16 at Fri Sep 22 17:07:56 2023.
