 Gaussian 16, Revision A.03,
 Gaussian 16:  ES64L-G16RevA.03 25-Dec-2016

 ------------------------------------------------------------------
 # 6-31+g(d) scrf=(solvent=water,pcm) int=ultrafine m062x scf=tight
 ------------------------------------------------------------------

 -------------------
 tmpdir/M2_ref_0.gjf
 -------------------
 Symbolic Z-matrix:
 Charge = -1 Multiplicity = 1

                         Standard orientation:
 ---------------------------------------------------------------------
 Center     Atomic      Atomic             Coordinates (Angstroms)
 Number     Number       Type             X           Y           Z
 ---------------------------------------------------------------------
      1          7           0        0.000000    0.000000    0.542839
      2          6           0        0.000000    0.000000   -0.633312
 ---------------------------------------------------------------------

 SCF Done:  E(RM062X) =  -92.9322870793     A.U. after   10 cycles

 The electronic state is 1-SG.
 Alpha  occ. eigenvalues --  -14.69806 -10.49664  -0.93278  -0.43987  -0.34243
 Alpha  occ. eigenvalues --   -0.34243  -0.30681
 Alpha virt. eigenvalues --    0.04909   0.06833   0.06833   0.08734   0.14072
 Alpha virt. eigenvalues --    0.14072   0.16497   0.22715   0.22715   0.27837
 Alpha virt. eigenvalues --    0.52399   0.77403   0.77403   0.84148   1.00322

 Mulliken charges:
               1
     1  N   -0.668575
     2  C   -0.331425
 Sum of Mulliken charges =  -1.00000

 Dipole moment (field-independent basis, Debye):
    X=              0.0000    Y=              0.0000    Z=              0.4104  Tot=              0.4104
 Quadrupole moment (field-independent basis, Debye-Ang):
   XX=            -14.6469   YY=            -14.6469   ZZ=            -19.5020
   XY=              0.0000   XZ=              0.0000   YZ=              0.0000

 Normal termination of Gaussian 16 at Fri Sep 22 17:07:53 2023.
