 Gaussian 16, Revision A.03,
 Gaussian 16:  ES64L-G16RevA.03 25-Dec-2016

 ----------
 # hf/3-21g
 ----------

 ------------------------
 tmpdir/M1_conf_174_0.gjf
 ------------------------
 Symbolic Z-matrix:
 Charge =  0 Multiplicity = 1

                         Standard orientation:
 ---------------------------------------------------------------------
 Center     Atomic      Atomic             Coordinates (Angstroms)
 Number     Number       Type             X           Y           Z
 ---------------------------------------------------------------------
      1          6           0        0.192598   -0.105278   -0.061103
      2          1           0        0.613101    0.957610   -0.135681
      3          1           0        0.079852   -0.374163    0.915304
      4          1           0       -0.560105   -0.512739   -0.619805
      5          1           0       -1.288439    0.560961    0.206800
 ---------------------------------------------------------------------

 SCF Done:  E(RHF) =  -39.8197211506     A.U. after   11 cycles

 The electronic state is 1-A.
 Alpha  occ. eigenvalues --  -11.19968  -0.95557  -0.60889  -0.57086  -0.37438
 Alpha virt. eigenvalues --    0.12994   0.27835   0.35052   0.36284   0.86648
 Alpha virt. eigenvalues --    0.95863   1.03590   1.18947   1.26212   1.38929
 Alpha virt. eigenvalues --    1.40816   1.87283

 Mulliken charges:
               1
     1  C   -0.693794
     2  H    0.236087
     3  H    0.251316
     4  H    0.269359
     5  H   -0.062968
 Sum of Mulliken charges =   0.00000

 Dipole moment (field-independent basis, Debye):
    X=             -0.0321    Y=              0.0697    Z=              0.1694  Tot=              0.1860
 Quadrupole moment (field-independent basis, Debye-Ang):
   XX=             -9.6300   YY=             -8.9055   ZZ=             -8.9467
   XY=              1.3109   XZ=              0.6278   YZ=             -0.2253

 Normal termination of Gaussian 16 at Fri Sep 22 17:14:47 2023.
