 Gaussian 16, Revision A.03,
 Gaussian 16:  ES64L-G16RevA.03 25-Dec-2016

 ----------
 # hf/3-21g
 ----------

 -----------------------
 tmpdir/M1_conf_63_1.gjf
 -----------------------
 Symbolic Z-matrix:
 Charge =  0 Multiplicity = 1

                         Standard orientation:
 ---------------------------------------------------------------------
 Center     Atomic      Atomic             Coordinates (Angstroms)
 Number     Number       Type             X           Y           Z
 ---------------------------------------------------------------------
      1         17           0        0.000000   -0.000000    0.091220
      2          1           0        0.000000    0.000000   -1.550741
 ---------------------------------------------------------------------

 SCF Done:  E(RHF) =  -457.833110084     A.U. after    8 cycles

 The electronic state is 1-SG.
 Alpha  occ. eigenvalues -- -104.12948 -10.51863  -7.98217  -7.97836  -7.97836
 Alpha  occ. eigenvalues --   -1.07738  -0.54559  -0.47212  -0.47212
 Alpha virt. eigenvalues --    0.05010   0.70311   0.78695   0.78695   0.86153
 Alpha virt. eigenvalues --    1.09088

 Mulliken charges:
               1
     1  Cl  -0.242178
     2  H    0.242178
 Sum of Mulliken charges =  -0.00000

 Dipole moment (field-independent basis, Debye):
    X=              0.0000    Y=              0.0000    Z=             -2.0385  Tot=              2.0385
 Quadrupole moment (field-independent basis, Debye-Ang):
   XX=            -14.4972   YY=            -14.4972   ZZ=             -9.7561
   XY=             -0.0000   XZ=             -0.0000   YZ=             -0.0000

 Normal termination of Gaussian 16 at Fri Sep 22 17:12:24 2023.
