 Gaussian 16, Revision A.03,
 Gaussian 16:  ES64L-G16RevA.03 25-Dec-2016

 ----------
 # hf/3-21g
 ----------

 ------------------------
 tmpdir/M1_conf_233_0.gjf
 ------------------------
 Symbolic Z-matrix:
 Charge =  0 Multiplicity = 1

                         Standard orientation:
 ---------------------------------------------------------------------
 Center     Atomic      Atomic             Coordinates (Angstroms)
 Number     Number       Type             X           Y           Z
 ---------------------------------------------------------------------
      1          6           0       -0.243158    0.019948    0.085433
      2          1           0       -0.629409   -0.715262   -0.609893
      3          1           0        0.436465   -0.258038    0.747123
      4          1           0       -0.194007    0.923641   -0.301086
      5          1           0        1.845897   -0.070032   -0.348739
 ---------------------------------------------------------------------

 SCF Done:  E(RHF) =  -39.7559972089     A.U. after   12 cycles

 The electronic state is 1-A.
 Alpha  occ. eigenvalues --  -11.21823  -0.96901  -0.64382  -0.60901  -0.31782
 Alpha virt. eigenvalues --    0.04733   0.29787   0.34934   0.37202   0.84997
 Alpha virt. eigenvalues --    0.89264   1.02203   1.17892   1.28347   1.36329
 Alpha virt. eigenvalues --    1.44658   1.76661

 Mulliken charges:
               1
     1  C   -0.585593
     2  H    0.230483
     3  H    0.281448
     4  H    0.260217
     5  H   -0.186556
 Sum of Mulliken charges =   0.00000

 Dipole moment (field-independent basis, Debye):
    X=             -1.4454    Y=              0.0597    Z=              0.1185  Tot=              1.4515
 Quadrupole moment (field-independent basis, Debye-Ang):
   XX=            -11.3921   YY=             -8.4597   ZZ=             -9.0480
   XY=              0.1735   XZ=              1.4372   YZ=             -0.1313

 Normal termination of Gaussian 16 at Fri Sep 22 17:15:57 2023.
