 Gaussian 16, Revision A.03,
 Gaussian 16:  ES64L-G16RevA.03 25-Dec-2016

 ----------
 # hf/3-21g
 ----------

 ------------------------
 tmpdir/M1_conf_269_0.gjf
 ------------------------
 Symbolic Z-matrix:
 Charge =  0 Multiplicity = 1

                         Standard orientation:
 ---------------------------------------------------------------------
 Center     Atomic      Atomic             Coordinates (Angstroms)
 Number     Number       Type             X           Y           Z
 ---------------------------------------------------------------------
      1          6           0        0.330105   -0.033619   -0.123930
      2          1           0        0.472772   -0.466800    0.986884
      3          1           0       -0.553311   -0.589280   -0.561932
      4          1           0        0.226065    1.120424    0.061821
      5          1           0       -2.126155    0.137369    0.256807
 ---------------------------------------------------------------------

 SCF Done:  E(RHF) =  -39.6964644436     A.U. after   13 cycles

 The electronic state is 1-A.
 Alpha  occ. eigenvalues --  -11.26792  -0.92351  -0.58994  -0.54505  -0.30525
 Alpha virt. eigenvalues --   -0.01118   0.25573   0.28356   0.32736   0.93990
 Alpha virt. eigenvalues --    0.95267   0.98944   1.14495   1.21850   1.28072
 Alpha virt. eigenvalues --    1.28551   1.72138

 Mulliken charges:
               1
     1  C   -0.532279
     2  H    0.204257
     3  H    0.265255
     4  H    0.238590
     5  H   -0.175822
 Sum of Mulliken charges =  -0.00000

 Dipole moment (field-independent basis, Debye):
    X=              1.2460    Y=              0.0931    Z=              0.3616  Tot=              1.3008
 Quadrupole moment (field-independent basis, Debye-Ang):
   XX=            -12.6376   YY=             -8.7693   ZZ=             -9.6217
   XY=              0.6416   XZ=              1.0554   YZ=              0.0828

 Normal termination of Gaussian 16 at Fri Sep 22 17:16:39 2023.
