 Gaussian 16, Revision A.03,
 Gaussian 16:  ES64L-G16RevA.03 25-Dec-2016

 ----------
 # hf/3-21g
 ----------

 ------------------------
 tmpdir/M1_conf_270_1.gjf
 ------------------------
 Symbolic Z-matrix:
 Charge =  0 Multiplicity = 1

                         Standard orientation:
 ---------------------------------------------------------------------
 Center     Atomic      Atomic             Coordinates (Angstroms)
 Number     Number       Type             X           Y           Z
 ---------------------------------------------------------------------
      1         17           0        0.000000    0.000000    0.162108
      2          1           0       -0.000000   -0.000000   -2.755834
 ---------------------------------------------------------------------

 SCF Done:  E(RHF) =  -457.649992307     A.U. after   10 cycles

 The electronic state is 1-SG.
 Alpha  occ. eigenvalues -- -104.10678 -10.49315  -7.95645  -7.95340  -7.95340
 Alpha  occ. eigenvalues --   -1.02406  -0.44214  -0.44214  -0.39086
 Alpha virt. eigenvalues --   -0.14248   0.67992   0.81393   0.81393   0.81621
 Alpha virt. eigenvalues --    1.08922

 Mulliken charges:
               1
     1  Cl  -0.280174
     2  H    0.280174
 Sum of Mulliken charges =  -0.00000

 Dipole moment (field-independent basis, Debye):
    X=             -0.0000    Y=             -0.0000    Z=             -3.8345  Tot=              3.8345
 Quadrupole moment (field-independent basis, Debye-Ang):
   XX=            -14.8126   YY=            -14.8126   ZZ=             -2.1306
   XY=              0.0000   XZ=              0.0000   YZ=              0.0000

 Normal termination of Gaussian 16 at Fri Sep 22 17:16:40 2023.
