 Gaussian 16, Revision A.03,
 Gaussian 16:  ES64L-G16RevA.03 25-Dec-2016

 ----------
 # hf/3-21g
 ----------

 -----------------------
 tmpdir/M1_conf_11_0.gjf
 -----------------------
 Symbolic Z-matrix:
 Charge =  0 Multiplicity = 1

                         Standard orientation:
 ---------------------------------------------------------------------
 Center     Atomic      Atomic             Coordinates (Angstroms)
 Number     Number       Type             X           Y           Z
 ---------------------------------------------------------------------
      1          6           0       -0.038755   -0.005892    0.000392
      2          1           0       -0.805461   -0.594071   -0.505910
      3          1           0       -0.284262    0.079876    0.982772
      4          1           0        0.101569    1.007931   -0.408301
      5          1           0        1.220684   -0.458383   -0.070914
 ---------------------------------------------------------------------

 SCF Done:  E(RHF) =  -39.9419476108     A.U. after    9 cycles

 The electronic state is 1-A.
 Alpha  occ. eigenvalues --  -11.16907  -0.93576  -0.55926  -0.55746  -0.47776
 Alpha virt. eigenvalues --    0.25060   0.31255   0.35153   0.36421   0.88673
 Alpha virt. eigenvalues --    0.93790   1.03285   1.19900   1.30849   1.34773
 Alpha virt. eigenvalues --    1.40951   1.92840

 Mulliken charges:
               1
     1  C   -0.741707
     2  H    0.202970
     3  H    0.223361
     4  H    0.199872
     5  H    0.115504
 Sum of Mulliken charges =   0.00000

 Dipole moment (field-independent basis, Debye):
    X=             -0.1962    Y=              0.1685    Z=              0.0946  Tot=              0.2753
 Quadrupole moment (field-independent basis, Debye-Ang):
   XX=             -8.2583   YY=             -8.6889   ZZ=             -8.6926
   XY=              0.2841   XZ=              0.0024   YZ=              0.0213

 Normal termination of Gaussian 16 at Fri Sep 22 17:11:23 2023.
