 Gaussian 16, Revision A.03,
 Gaussian 16:  ES64L-G16RevA.03 25-Dec-2016

 ----------
 # hf/3-21g
 ----------

 ------------------------
 tmpdir/M1_conf_186_0.gjf
 ------------------------
 Symbolic Z-matrix:
 Charge =  0 Multiplicity = 1

                         Standard orientation:
 ---------------------------------------------------------------------
 Center     Atomic      Atomic             Coordinates (Angstroms)
 Number     Number       Type             X           Y           Z
 ---------------------------------------------------------------------
      1          6           0       -0.239301    0.068168    0.044881
      2          1           0        0.226075   -0.343176    0.958442
      3          1           0        0.100176    1.022643   -0.318942
      4          1           0       -0.401324   -0.898215   -0.655149
      5          1           0        1.510878   -0.190260   -0.253637
 ---------------------------------------------------------------------

 SCF Done:  E(RHF) =  -39.8026469128     A.U. after   11 cycles

 The electronic state is 1-A.
 Alpha  occ. eigenvalues --  -11.22954  -0.92568  -0.60093  -0.54154  -0.35916
 Alpha virt. eigenvalues --    0.10136   0.25925   0.31651   0.34711   0.92020
 Alpha virt. eigenvalues --    0.97582   1.02267   1.21660   1.23325   1.29153
 Alpha virt. eigenvalues --    1.33243   1.80855

 Mulliken charges:
               1
     1  C   -0.638789
     2  H    0.253966
     3  H    0.266506
     4  H    0.222168
     5  H   -0.103851
 Sum of Mulliken charges =  -0.00000

 Dipole moment (field-independent basis, Debye):
    X=             -0.1822    Y=             -0.0554    Z=              0.0206  Tot=              0.1916
 Quadrupole moment (field-independent basis, Debye-Ang):
   XX=            -11.0303   YY=             -8.1068   ZZ=             -9.0857
   XY=              0.5185   XZ=              0.7129   YZ=             -0.2543

 Normal termination of Gaussian 16 at Fri Sep 22 17:15:01 2023.
