 Gaussian 16, Revision A.03,
 Gaussian 16:  ES64L-G16RevA.03 25-Dec-2016

 ----------
 # hf/3-21g
 ----------

 ------------------------
 tmpdir/M1_conf_218_0.gjf
 ------------------------
 Symbolic Z-matrix:
 Charge =  0 Multiplicity = 1

                         Standard orientation:
 ---------------------------------------------------------------------
 Center     Atomic      Atomic             Coordinates (Angstroms)
 Number     Number       Type             X           Y           Z
 ---------------------------------------------------------------------
      1          6           0       -0.300380   -0.061541    0.075397
      2          1           0       -0.045988   -0.958079   -0.394511
      3          1           0        0.582764    0.243464    0.780209
      4          1           0       -0.418904    1.009132   -0.510975
      5          1           0        1.684410    0.074728   -0.327107
 ---------------------------------------------------------------------

 SCF Done:  E(RHF) =  -39.7404050036     A.U. after   12 cycles

 The electronic state is 1-A.
 Alpha  occ. eigenvalues --  -11.24301  -0.93073  -0.60323  -0.52953  -0.34039
 Alpha virt. eigenvalues --    0.04492   0.25371   0.30330   0.34475   0.90591
 Alpha virt. eigenvalues --    0.97980   1.01863   1.18010   1.24424   1.27936
 Alpha virt. eigenvalues --    1.32994   1.74916

 Mulliken charges:
               1
     1  C   -0.575240
     2  H    0.261865
     3  H    0.237019
     4  H    0.210126
     5  H   -0.133771
 Sum of Mulliken charges =   0.00000

 Dipole moment (field-independent basis, Debye):
    X=             -0.3457    Y=              0.0847    Z=             -0.2738  Tot=              0.4490
 Quadrupole moment (field-independent basis, Debye-Ang):
   XX=            -10.9916   YY=             -8.2749   ZZ=            -10.0768
   XY=             -0.1563   XZ=              1.1078   YZ=              0.2256

 Normal termination of Gaussian 16 at Fri Sep 22 17:15:39 2023.
