 Gaussian 16, Revision A.03,
 Gaussian 16:  ES64L-G16RevA.03 25-Dec-2016

 ----------
 # hf/3-21g
 ----------

 -----------------------
 tmpdir/M1_conf_77_0.gjf
 -----------------------
 Symbolic Z-matrix:
 Charge =  0 Multiplicity = 1

                         Standard orientation:
 ---------------------------------------------------------------------
 Center     Atomic      Atomic             Coordinates (Angstroms)
 Number     Number       Type             X           Y           Z
 ---------------------------------------------------------------------
      1          6           0        0.034241    0.027617    0.000822
      2          1           0        1.091598   -0.356607   -0.452250
      3          1           0       -0.237608    1.176493   -0.076628
      4          1           0        0.003234   -0.360456    0.968269
      5          1           0       -1.062672   -0.625130   -0.444322
 ---------------------------------------------------------------------

 SCF Done:  E(RHF) =  -39.9222428339     A.U. after    9 cycles

 The electronic state is 1-A.
 Alpha  occ. eigenvalues --  -11.19603  -0.91311  -0.55155  -0.52611  -0.46736
 Alpha virt. eigenvalues --    0.23756   0.28558   0.32042   0.35294   0.91179
 Alpha virt. eigenvalues --    1.00739   1.04921   1.19005   1.22287   1.26746
 Alpha virt. eigenvalues --    1.37679   1.89711

 Mulliken charges:
               1
     1  C   -0.708102
     2  H    0.178609
     3  H    0.190994
     4  H    0.227341
     5  H    0.111157
 Sum of Mulliken charges =  -0.00000

 Dipole moment (field-independent basis, Debye):
    X=              0.0816    Y=              0.0131    Z=              0.2932  Tot=              0.3046
 Quadrupole moment (field-independent basis, Debye-Ang):
   XX=             -8.4070   YY=             -8.4876   ZZ=             -9.2371
   XY=             -0.2573   XZ=             -0.1826   YZ=             -0.2186

 Normal termination of Gaussian 16 at Fri Sep 22 17:12:46 2023.
