 Gaussian 16, Revision A.03,
 Gaussian 16:  ES64L-G16RevA.03 25-Dec-2016

 ----------
 # hf/3-21g
 ----------

 ------------------------
 tmpdir/M1_conf_207_0.gjf
 ------------------------
 Symbolic Z-matrix:
 Charge =  0 Multiplicity = 1

                         Standard orientation:
 ---------------------------------------------------------------------
 Center     Atomic      Atomic             Coordinates (Angstroms)
 Number     Number       Type             X           Y           Z
 ---------------------------------------------------------------------
      1          6           0        0.242244   -0.053800   -0.050205
      2          1           0        0.349362    0.002389    0.978161
      3          1           0       -0.256064   -0.991803   -0.431053
      4          1           0        0.142020    1.113960   -0.433891
      5          1           0       -1.688783    0.198254    0.188015
 ---------------------------------------------------------------------

 SCF Done:  E(RHF) =  -39.7799086435     A.U. after   11 cycles

 The electronic state is 1-A.
 Alpha  occ. eigenvalues --  -11.23949  -0.92433  -0.59725  -0.55330  -0.33864
 Alpha virt. eigenvalues --    0.08085   0.24172   0.32288   0.34436   0.89116
 Alpha virt. eigenvalues --    1.01178   1.02470   1.17720   1.25880   1.27629
 Alpha virt. eigenvalues --    1.34958   1.76190

 Mulliken charges:
               1
     1  C   -0.610963
     2  H    0.251769
     3  H    0.269262
     4  H    0.236986
     5  H   -0.147054
 Sum of Mulliken charges =   0.00000

 Dipole moment (field-independent basis, Debye):
    X=              0.7692    Y=             -0.0557    Z=              0.1018  Tot=              0.7779
 Quadrupole moment (field-independent basis, Debye-Ang):
   XX=            -11.5318   YY=             -7.7698   ZZ=             -9.1914
   XY=              0.6891   XZ=              0.7532   YZ=              0.0175

 Normal termination of Gaussian 16 at Fri Sep 22 17:15:26 2023.
