 Gaussian 16, Revision A.03,
 Gaussian 16:  ES64L-G16RevA.03 25-Dec-2016

 ----------
 # hf/3-21g
 ----------

 ------------------------
 tmpdir/M1_conf_194_0.gjf
 ------------------------
 Symbolic Z-matrix:
 Charge =  0 Multiplicity = 1

                         Standard orientation:
 ---------------------------------------------------------------------
 Center     Atomic      Atomic             Coordinates (Angstroms)
 Number     Number       Type             X           Y           Z
 ---------------------------------------------------------------------
      1          6           0        0.303632   -0.022104    0.056428
      2          1           0        0.058107    1.056584   -0.228840
      3          1           0       -0.361081   -0.306293    0.757084
      4          1           0        0.057658   -0.676481   -0.723712
      5          1           0       -1.576476    0.058814   -0.143100
 ---------------------------------------------------------------------

 SCF Done:  E(RHF) =  -39.7556584432     A.U. after   11 cycles

 The electronic state is 1-A.
 Alpha  occ. eigenvalues --  -11.21378  -0.96918  -0.58310  -0.57738  -0.35837
 Alpha virt. eigenvalues --    0.05286   0.28963   0.34073   0.35690   0.85454
 Alpha virt. eigenvalues --    0.92187   1.02756   1.22150   1.27074   1.34343
 Alpha virt. eigenvalues --    1.44621   1.83655

 Mulliken charges:
               1
     1  C   -0.637254
     2  H    0.230375
     3  H    0.263768
     4  H    0.244827
     5  H   -0.101717
 Sum of Mulliken charges =  -0.00000

 Dipole moment (field-independent basis, Debye):
    X=             -0.0947    Y=             -0.0097    Z=             -0.2079  Tot=              0.2287
 Quadrupole moment (field-independent basis, Debye-Ang):
   XX=            -10.7953   YY=             -8.5426   ZZ=             -9.2624
   XY=              0.1748   XZ=             -0.5639   YZ=              0.0081

 Normal termination of Gaussian 16 at Fri Sep 22 17:15:10 2023.
