 Gaussian 16, Revision A.03,
 Gaussian 16:  ES64L-G16RevA.03 25-Dec-2016

 ----------
 # hf/3-21g
 ----------

 ------------------------
 tmpdir/M1_conf_120_0.gjf
 ------------------------
 Symbolic Z-matrix:
 Charge =  0 Multiplicity = 1

                         Standard orientation:
 ---------------------------------------------------------------------
 Center     Atomic      Atomic             Coordinates (Angstroms)
 Number     Number       Type             X           Y           Z
 ---------------------------------------------------------------------
      1          6           0       -0.065454    0.071261    0.021224
      2          1           0        0.100914   -0.373330    0.980877
      3          1           0        0.242215    1.003758   -0.151032
      4          1           0       -0.959850   -0.452202   -0.463194
      5          1           0        1.009445   -0.605790   -0.493998
 ---------------------------------------------------------------------

 SCF Done:  E(RHF) =  -39.9218028496     A.U. after    9 cycles

 The electronic state is 1-A.
 Alpha  occ. eigenvalues --  -11.17506  -0.93597  -0.60416  -0.54358  -0.44453
 Alpha virt. eigenvalues --    0.24257   0.29385   0.34104   0.37684   0.90267
 Alpha virt. eigenvalues --    0.94382   1.02290   1.19427   1.27343   1.35091
 Alpha virt. eigenvalues --    1.43711   1.93702

 Mulliken charges:
               1
     1  C   -0.744786
     2  H    0.223501
     3  H    0.240409
     4  H    0.205907
     5  H    0.074968
 Sum of Mulliken charges =   0.00000

 Dipole moment (field-independent basis, Debye):
    X=             -0.0583    Y=              0.0252    Z=              0.1499  Tot=              0.1628
 Quadrupole moment (field-independent basis, Debye-Ang):
   XX=             -8.6678   YY=             -8.3232   ZZ=             -8.9322
   XY=              0.4942   XZ=              0.3850   YZ=             -0.3152

 Normal termination of Gaussian 16 at Fri Sep 22 17:13:37 2023.
