 Gaussian 16, Revision A.03,
 Gaussian 16:  ES64L-G16RevA.03 25-Dec-2016

 ----------
 # hf/3-21g
 ----------

 ------------------------
 tmpdir/M1_conf_176_0.gjf
 ------------------------
 Symbolic Z-matrix:
 Charge =  0 Multiplicity = 1

                         Standard orientation:
 ---------------------------------------------------------------------
 Center     Atomic      Atomic             Coordinates (Angstroms)
 Number     Number       Type             X           Y           Z
 ---------------------------------------------------------------------
      1          6           0        0.184095   -0.123070   -0.054343
      2          1           0        0.720893    0.822504   -0.355137
      3          1           0        0.139060   -0.212442    0.998291
      4          1           0       -0.777904   -0.673182   -0.487018
      5          1           0       -1.186621    0.801541    0.169923
 ---------------------------------------------------------------------

 SCF Done:  E(RHF) =  -39.8211032027     A.U. after   10 cycles

 The electronic state is 1-A.
 Alpha  occ. eigenvalues --  -11.21858  -0.92721  -0.58626  -0.55291  -0.37134
 Alpha virt. eigenvalues --    0.13315   0.24776   0.33405   0.34583   0.89886
 Alpha virt. eigenvalues --    1.01886   1.03078   1.19209   1.25300   1.28206
 Alpha virt. eigenvalues --    1.35318   1.85852

 Mulliken charges:
               1
     1  C   -0.681766
     2  H    0.251300
     3  H    0.246086
     4  H    0.253379
     5  H   -0.068998
 Sum of Mulliken charges =  -0.00000

 Dipole moment (field-independent basis, Debye):
    X=             -0.0145    Y=              0.0527    Z=              0.1746  Tot=              0.1830
 Quadrupole moment (field-independent basis, Debye-Ang):
   XX=             -9.1541   YY=             -9.4416   ZZ=             -9.1283
   XY=              1.6853   XZ=              0.4119   YZ=             -0.3432

 Normal termination of Gaussian 16 at Fri Sep 22 17:14:49 2023.
