 Gaussian 16, Revision A.03,
 Gaussian 16:  ES64L-G16RevA.03 25-Dec-2016

 ----------
 # hf/3-21g
 ----------

 -----------------------
 tmpdir/M1_conf_50_0.gjf
 -----------------------
 Symbolic Z-matrix:
 Charge =  0 Multiplicity = 1

                         Standard orientation:
 ---------------------------------------------------------------------
 Center     Atomic      Atomic             Coordinates (Angstroms)
 Number     Number       Type             X           Y           Z
 ---------------------------------------------------------------------
      1          6           0        0.047524   -0.002115   -0.025118
      2          1           0       -0.121415    0.936823   -0.508258
      3          1           0        0.615692    0.213971    0.801938
      4          1           0        0.400582   -0.860666   -0.453633
      5          1           0       -1.179999   -0.277437    0.310660
 ---------------------------------------------------------------------

 SCF Done:  E(RHF) =  -39.9422998608     A.U. after    9 cycles

 The electronic state is 1-A.
 Alpha  occ. eigenvalues --  -11.15539  -0.94677  -0.59440  -0.55286  -0.47319
 Alpha virt. eigenvalues --    0.26483   0.31312   0.36013   0.37640   0.87738
 Alpha virt. eigenvalues --    0.93950   1.00557   1.21380   1.32592   1.40103
 Alpha virt. eigenvalues --    1.42916   1.93649

 Mulliken charges:
               1
     1  C   -0.769340
     2  H    0.214944
     3  H    0.215925
     4  H    0.223817
     5  H    0.114654
 Sum of Mulliken charges =   0.00000

 Dipole moment (field-independent basis, Debye):
    X=              0.1796    Y=              0.0766    Z=             -0.0018  Tot=              0.1953
 Quadrupole moment (field-independent basis, Debye-Ang):
   XX=             -8.4738   YY=             -8.0492   ZZ=             -8.9089
   XY=             -0.2191   XZ=              0.2198   YZ=              0.1095

 Normal termination of Gaussian 16 at Fri Sep 22 17:12:09 2023.
