 Gaussian 16, Revision A.03,
 Gaussian 16:  ES64L-G16RevA.03 25-Dec-2016

 ----------
 # hf/3-21g
 ----------

 ------------------------
 tmpdir/M1_conf_210_0.gjf
 ------------------------
 Symbolic Z-matrix:
 Charge =  0 Multiplicity = 1

                         Standard orientation:
 ---------------------------------------------------------------------
 Center     Atomic      Atomic             Coordinates (Angstroms)
 Number     Number       Type             X           Y           Z
 ---------------------------------------------------------------------
      1          6           0       -0.258331    0.070218   -0.022634
      2          1           0       -0.202449   -0.398149    0.955335
      3          1           0        0.290306    1.021683   -0.145343
      4          1           0       -0.229466   -0.780339   -0.698035
      5          1           0        1.691595   -0.264502    0.023849
 ---------------------------------------------------------------------

 SCF Done:  E(RHF) =  -39.7867183532     A.U. after   10 cycles

 The electronic state is 1-A.
 Alpha  occ. eigenvalues --  -11.22957  -0.93749  -0.61044  -0.56487  -0.33909
 Alpha virt. eigenvalues --    0.07043   0.27574   0.32848   0.34486   0.88947
 Alpha virt. eigenvalues --    0.96182   1.02517   1.21814   1.27014   1.30568
 Alpha virt. eigenvalues --    1.34374   1.76647

 Mulliken charges:
               1
     1  C   -0.623150
     2  H    0.243824
     3  H    0.271415
     4  H    0.255671
     5  H   -0.147760
 Sum of Mulliken charges =  -0.00000

 Dipole moment (field-independent basis, Debye):
    X=             -0.7025    Y=             -0.0165    Z=              0.0660  Tot=              0.7058
 Quadrupole moment (field-independent basis, Debye-Ang):
   XX=            -11.4363   YY=             -8.1579   ZZ=             -8.9696
   XY=              1.0043   XZ=             -0.1088   YZ=              0.0277

 Normal termination of Gaussian 16 at Fri Sep 22 17:15:29 2023.
