 Gaussian 16, Revision A.03,
 Gaussian 16:  ES64L-G16RevA.03 25-Dec-2016

 ----------
 # hf/3-21g
 ----------

 ------------------------
 tmpdir/M1_conf_159_0.gjf
 ------------------------
 Symbolic Z-matrix:
 Charge =  0 Multiplicity = 1

                         Standard orientation:
 ---------------------------------------------------------------------
 Center     Atomic      Atomic             Coordinates (Angstroms)
 Number     Number       Type             X           Y           Z
 ---------------------------------------------------------------------
      1          6           0       -0.101885   -0.095750   -0.036856
      2          1           0        0.528630   -0.702153   -0.589036
      3          1           0       -0.194633   -0.275936    1.021467
      4          1           0       -0.868845    0.754625   -0.362203
      5          1           0        1.146158    0.797963    0.150909
 ---------------------------------------------------------------------

 SCF Done:  E(RHF) =  -39.8786135550     A.U. after   10 cycles

 The electronic state is 1-A.
 Alpha  occ. eigenvalues --  -11.20254  -0.92419  -0.60281  -0.54447  -0.40178
 Alpha virt. eigenvalues --    0.18906   0.26767   0.33447   0.36582   0.90992
 Alpha virt. eigenvalues --    0.98182   1.03311   1.20182   1.22596   1.32504
 Alpha virt. eigenvalues --    1.39002   1.87603

 Mulliken charges:
               1
     1  C   -0.696503
     2  H    0.256930
     3  H    0.232455
     4  H    0.215913
     5  H   -0.008796
 Sum of Mulliken charges =  -0.00000

 Dipole moment (field-independent basis, Debye):
    X=             -0.2232    Y=             -0.2039    Z=              0.0320  Tot=              0.3040
 Quadrupole moment (field-independent basis, Debye-Ang):
   XX=             -8.9398   YY=             -9.0704   ZZ=             -8.6661
   XY=             -1.1584   XZ=             -0.3256   YZ=             -0.0629

 Normal termination of Gaussian 16 at Fri Sep 22 17:14:29 2023.
