 Gaussian 16, Revision A.03,
 Gaussian 16:  ES64L-G16RevA.03 25-Dec-2016

 ----------
 # hf/3-21g
 ----------

 ------------------------
 tmpdir/M1_conf_212_1.gjf
 ------------------------
 Symbolic Z-matrix:
 Charge =  0 Multiplicity = 1

                         Standard orientation:
 ---------------------------------------------------------------------
 Center     Atomic      Atomic             Coordinates (Angstroms)
 Number     Number       Type             X           Y           Z
 ---------------------------------------------------------------------
      1         17           0        0.000000   -0.000000    0.129647
      2          1           0       -0.000000    0.000000   -2.203995
 ---------------------------------------------------------------------

 SCF Done:  E(RHF) =  -457.720704112     A.U. after    9 cycles

 The electronic state is 1-SG.
 Alpha  occ. eigenvalues -- -104.12248 -10.50800  -7.97127  -7.96818  -7.96818
 Alpha  occ. eigenvalues --   -1.03953  -0.45451  -0.45451  -0.44268
 Alpha virt. eigenvalues --   -0.08353   0.68732   0.80226   0.80226   0.85572
 Alpha virt. eigenvalues --    1.10286

 Mulliken charges:
               1
     1  Cl  -0.263065
     2  H    0.263065
 Sum of Mulliken charges =   0.00000

 Dipole moment (field-independent basis, Debye):
    X=             -0.0000    Y=              0.0000    Z=             -2.8812  Tot=              2.8812
 Quadrupole moment (field-independent basis, Debye-Ang):
   XX=            -14.7651   YY=            -14.7651   ZZ=             -6.0251
   XY=              0.0000   XZ=              0.0000   YZ=             -0.0000

 Normal termination of Gaussian 16 at Fri Sep 22 17:15:32 2023.
