 Gaussian 16, Revision A.03,
 Gaussian 16:  ES64L-G16RevA.03 25-Dec-2016

 ----------
 # hf/3-21g
 ----------

 ------------------------
 tmpdir/M1_conf_213_0.gjf
 ------------------------
 Symbolic Z-matrix:
 Charge =  0 Multiplicity = 1

                         Standard orientation:
 ---------------------------------------------------------------------
 Center     Atomic      Atomic             Coordinates (Angstroms)
 Number     Number       Type             X           Y           Z
 ---------------------------------------------------------------------
      1          6           0       -0.280294   -0.029016   -0.052991
      2          1           0       -0.056204    1.066502   -0.068508
      3          1           0        0.294860   -0.566782   -0.664018
      4          1           0       -0.256568   -0.374046    0.860137
      5          1           0        1.699676    0.048420    0.190335
 ---------------------------------------------------------------------

 SCF Done:  E(RHF) =  -39.7595244140     A.U. after   12 cycles

 The electronic state is 1-A.
 Alpha  occ. eigenvalues --  -11.21049  -0.97022  -0.62245  -0.58882  -0.33927
 Alpha virt. eigenvalues --    0.05359   0.29691   0.34958   0.36898   0.84252
 Alpha virt. eigenvalues --    0.90049   1.03090   1.23974   1.28251   1.38502
 Alpha virt. eigenvalues --    1.42548   1.80796

 Mulliken charges:
               1
     1  C   -0.623869
     2  H    0.238959
     3  H    0.270464
     4  H    0.256915
     5  H   -0.142469
 Sum of Mulliken charges =  -0.00000

 Dipole moment (field-independent basis, Debye):
    X=             -0.6095    Y=             -0.0006    Z=              0.1151  Tot=              0.6202
 Quadrupole moment (field-independent basis, Debye-Ang):
   XX=            -11.1422   YY=             -8.3718   ZZ=             -8.8880
   XY=             -0.1653   XZ=             -0.7745   YZ=              0.0155

 Normal termination of Gaussian 16 at Fri Sep 22 17:15:33 2023.
