 Gaussian 16, Revision A.03,
 Gaussian 16:  ES64L-G16RevA.03 25-Dec-2016

 ----------
 # hf/3-21g
 ----------

 ------------------------
 tmpdir/M1_conf_190_0.gjf
 ------------------------
 Symbolic Z-matrix:
 Charge =  0 Multiplicity = 1

                         Standard orientation:
 ---------------------------------------------------------------------
 Center     Atomic      Atomic             Coordinates (Angstroms)
 Number     Number       Type             X           Y           Z
 ---------------------------------------------------------------------
      1          6           0       -0.273191    0.079225    0.035176
      2          1           0        0.073861   -0.486411    0.821470
      3          1           0        0.371081    0.979255   -0.165777
      4          1           0       -0.337028   -0.687771   -0.741705
      5          1           0        1.531230   -0.280424   -0.125046
 ---------------------------------------------------------------------

 SCF Done:  E(RHF) =  -39.7800864914     A.U. after   11 cycles

 The electronic state is 1-A.
 Alpha  occ. eigenvalues --  -11.21687  -0.95361  -0.59313  -0.56681  -0.35792
 Alpha virt. eigenvalues --    0.07391   0.28240   0.33667   0.34571   0.87178
 Alpha virt. eigenvalues --    0.94802   1.02806   1.22231   1.28217   1.31327
 Alpha virt. eigenvalues --    1.38918   1.82758

 Mulliken charges:
               1
     1  C   -0.644931
     2  H    0.258811
     3  H    0.255616
     4  H    0.235592
     5  H   -0.105088
 Sum of Mulliken charges =  -0.00000

 Dipole moment (field-independent basis, Debye):
    X=             -0.0143    Y=             -0.2013    Z=             -0.0561  Tot=              0.2094
 Quadrupole moment (field-independent basis, Debye-Ang):
   XX=            -10.7539   YY=             -8.4905   ZZ=             -9.1885
   XY=              0.9371   XZ=              0.3703   YZ=             -0.1688

 Normal termination of Gaussian 16 at Fri Sep 22 17:15:05 2023.
