 Gaussian 16, Revision A.03,
 Gaussian 16:  ES64L-G16RevA.03 25-Dec-2016

 ----------
 # hf/3-21g
 ----------

 ------------------------
 tmpdir/M1_conf_138_0.gjf
 ------------------------
 Symbolic Z-matrix:
 Charge =  0 Multiplicity = 1

                         Standard orientation:
 ---------------------------------------------------------------------
 Center     Atomic      Atomic             Coordinates (Angstroms)
 Number     Number       Type             X           Y           Z
 ---------------------------------------------------------------------
      1          6           0        0.102504   -0.078004   -0.061679
      2          1           0        0.904519    0.779160   -0.175532
      3          1           0        0.214780   -0.818460    0.676496
      4          1           0       -0.824323   -0.225684   -0.790168
      5          1           0       -0.910002    0.733007    0.659280
 ---------------------------------------------------------------------

 SCF Done:  E(RHF) =  -39.8825968244     A.U. after   10 cycles

 The electronic state is 1-A.
 Alpha  occ. eigenvalues --  -11.20844  -0.91227  -0.57055  -0.55271  -0.40651
 Alpha virt. eigenvalues --    0.20401   0.25402   0.32785   0.35287   0.92731
 Alpha virt. eigenvalues --    1.01428   1.01987   1.18332   1.22848   1.27192
 Alpha virt. eigenvalues --    1.36202   1.88841

 Mulliken charges:
               1
     1  C   -0.698283
     2  H    0.218869
     3  H    0.241632
     4  H    0.218017
     5  H    0.019766
 Sum of Mulliken charges =   0.00000

 Dipole moment (field-independent basis, Debye):
    X=              0.0087    Y=             -0.0661    Z=             -0.0116  Tot=              0.0677
 Quadrupole moment (field-independent basis, Debye-Ang):
   XX=             -8.4248   YY=             -8.8886   ZZ=             -9.4141
   XY=              0.6617   XZ=              0.6691   YZ=             -0.6827

 Normal termination of Gaussian 16 at Fri Sep 22 17:14:04 2023.
