 Gaussian 16, Revision A.03,
 Gaussian 16:  ES64L-G16RevA.03 25-Dec-2016

 ----------
 # hf/3-21g
 ----------

 ------------------------
 tmpdir/M1_conf_280_0.gjf
 ------------------------
 Symbolic Z-matrix:
 Charge =  0 Multiplicity = 1

                         Standard orientation:
 ---------------------------------------------------------------------
 Center     Atomic      Atomic             Coordinates (Angstroms)
 Number     Number       Type             X           Y           Z
 ---------------------------------------------------------------------
      1          6           0        0.297528   -0.015897    0.068238
      2          1           0        0.403010    1.181995   -0.212937
      3          1           0       -0.504344   -0.340318    0.724408
      4          1           0        0.472378   -0.847903   -0.630111
      5          1           0       -2.156213    0.101606   -0.290788
 ---------------------------------------------------------------------

 SCF Done:  E(RHF) =  -39.7131206595     A.U. after   13 cycles

 The electronic state is 1-A.
 Alpha  occ. eigenvalues --  -11.26776  -0.93334  -0.59739  -0.58770  -0.28907
 Alpha virt. eigenvalues --    0.00995   0.23207   0.31329   0.33321   0.88381
 Alpha virt. eigenvalues --    0.98547   1.00235   1.09244   1.25458   1.29023
 Alpha virt. eigenvalues --    1.31428   1.68019

 Mulliken charges:
               1
     1  C   -0.544645
     2  H    0.245836
     3  H    0.281619
     4  H    0.248513
     5  H   -0.231323
 Sum of Mulliken charges =  -0.00000

 Dipole moment (field-independent basis, Debye):
    X=              2.1180    Y=             -0.0985    Z=              0.0673  Tot=              2.1214
 Quadrupole moment (field-independent basis, Debye-Ang):
   XX=            -13.7807   YY=             -7.8233   ZZ=             -9.6600
   XY=              0.4796   XZ=             -1.3904   YZ=             -0.0016

 Normal termination of Gaussian 16 at Fri Sep 22 17:16:52 2023.
