 Gaussian 16, Revision A.03,
 Gaussian 16:  ES64L-G16RevA.03 25-Dec-2016

 ----------
 # hf/3-21g
 ----------

 -----------------------
 tmpdir/M1_conf_56_0.gjf
 -----------------------
 Symbolic Z-matrix:
 Charge =  0 Multiplicity = 1

                         Standard orientation:
 ---------------------------------------------------------------------
 Center     Atomic      Atomic             Coordinates (Angstroms)
 Number     Number       Type             X           Y           Z
 ---------------------------------------------------------------------
      1          6           0       -0.032890    0.012653   -0.004562
      2          1           0        0.163960   -0.777454    0.806180
      3          1           0       -0.526671    1.051813    0.291190
      4          1           0       -0.688169   -0.578992   -0.700206
      5          1           0        1.248219    0.228713   -0.369791
 ---------------------------------------------------------------------

 SCF Done:  E(RHF) =  -39.9273054120     A.U. after    9 cycles

 The electronic state is 1-A.
 Alpha  occ. eigenvalues --  -11.19844  -0.90675  -0.54552  -0.52902  -0.46621
 Alpha virt. eigenvalues --    0.24042   0.28433   0.33151   0.33547   0.93743
 Alpha virt. eigenvalues --    1.00369   1.04334   1.18257   1.23569   1.28869
 Alpha virt. eigenvalues --    1.31118   1.88306

 Mulliken charges:
               1
     1  C   -0.707956
     2  H    0.193054
     3  H    0.189288
     4  H    0.201746
     5  H    0.123867
 Sum of Mulliken charges =   0.00000

 Dipole moment (field-independent basis, Debye):
    X=             -0.1437    Y=             -0.1461    Z=              0.1041  Tot=              0.2299
 Quadrupole moment (field-independent basis, Debye-Ang):
   XX=             -8.4710   YY=             -8.3001   ZZ=             -9.3938
   XY=             -0.0800   XZ=              0.1976   YZ=              0.0747

 Normal termination of Gaussian 16 at Fri Sep 22 17:12:16 2023.
