 Gaussian 16, Revision A.03,
 Gaussian 16:  ES64L-G16RevA.03 25-Dec-2016

 ----------
 # hf/3-21g
 ----------

 -----------------------
 tmpdir/M1_conf_84_0.gjf
 -----------------------
 Symbolic Z-matrix:
 Charge =  0 Multiplicity = 1

                         Standard orientation:
 ---------------------------------------------------------------------
 Center     Atomic      Atomic             Coordinates (Angstroms)
 Number     Number       Type             X           Y           Z
 ---------------------------------------------------------------------
      1          6           0        0.029330   -0.001509   -0.007789
      2          1           0        0.274735    0.431784    0.956647
      3          1           0        0.831313   -0.731421   -0.315059
      4          1           0       -0.153890    0.860075   -0.688344
      5          1           0       -1.128136   -0.551384    0.093490
 ---------------------------------------------------------------------

 SCF Done:  E(RHF) =  -39.9535842898     A.U. after    9 cycles

 The electronic state is 1-A.
 Alpha  occ. eigenvalues --  -11.17675  -0.92333  -0.55235  -0.53701  -0.49134
 Alpha virt. eigenvalues --    0.26324   0.30857   0.34431   0.34612   0.91896
 Alpha virt. eigenvalues --    0.95818   1.01633   1.20799   1.28134   1.33038
 Alpha virt. eigenvalues --    1.34453   1.92299

 Mulliken charges:
               1
     1  C   -0.740739
     2  H    0.206034
     3  H    0.197898
     4  H    0.199933
     5  H    0.136875
 Sum of Mulliken charges =  -0.00000

 Dipole moment (field-independent basis, Debye):
    X=              0.1058    Y=              0.1396    Z=              0.0378  Tot=              0.1792
 Quadrupole moment (field-independent basis, Debye-Ang):
   XX=             -8.4286   YY=             -8.5434   ZZ=             -8.8094
   XY=             -0.2197   XZ=              0.0480   YZ=              0.0424

 Normal termination of Gaussian 16 at Fri Sep 22 17:12:54 2023.
