 Gaussian 16, Revision A.03,
 Gaussian 16:  ES64L-G16RevA.03 25-Dec-2016

 ----------
 # hf/3-21g
 ----------

 ------------------------
 tmpdir/M1_conf_184_0.gjf
 ------------------------
 Symbolic Z-matrix:
 Charge =  0 Multiplicity = 1

                         Standard orientation:
 ---------------------------------------------------------------------
 Center     Atomic      Atomic             Coordinates (Angstroms)
 Number     Number       Type             X           Y           Z
 ---------------------------------------------------------------------
      1          6           0        0.230827   -0.006217   -0.033189
      2          1           0       -0.263085   -0.849108   -0.627544
      3          1           0        0.133408    0.935414   -0.366166
      4          1           0        0.251985   -0.235004    0.982041
      5          1           0       -1.507270    0.186000    0.210806
 ---------------------------------------------------------------------

 SCF Done:  E(RHF) =  -39.8200463675     A.U. after   11 cycles

 The electronic state is 1-A.
 Alpha  occ. eigenvalues --  -11.20822  -0.94591  -0.62202  -0.56844  -0.36193
 Alpha virt. eigenvalues --    0.11393   0.28554   0.33732   0.36868   0.89458
 Alpha virt. eigenvalues --    0.91927   1.02873   1.22046   1.26945   1.32427
 Alpha virt. eigenvalues --    1.41867   1.84361

 Mulliken charges:
               1
     1  C   -0.658712
     2  H    0.238757
     3  H    0.264311
     4  H    0.253889
     5  H   -0.098244
 Sum of Mulliken charges =   0.00000

 Dipole moment (field-independent basis, Debye):
    X=              0.3445    Y=             -0.0582    Z=             -0.0004  Tot=              0.3494
 Quadrupole moment (field-independent basis, Debye-Ang):
   XX=            -10.7107   YY=             -8.3049   ZZ=             -8.6070
   XY=              0.5528   XZ=              0.6227   YZ=             -0.2092

 Normal termination of Gaussian 16 at Fri Sep 22 17:14:58 2023.
