 Gaussian 16, Revision A.03,
 Gaussian 16:  ES64L-G16RevA.03 25-Dec-2016

 ----------
 # hf/3-21g
 ----------

 -----------------------
 tmpdir/M1_conf_79_0.gjf
 -----------------------
 Symbolic Z-matrix:
 Charge =  0 Multiplicity = 1

                         Standard orientation:
 ---------------------------------------------------------------------
 Center     Atomic      Atomic             Coordinates (Angstroms)
 Number     Number       Type             X           Y           Z
 ---------------------------------------------------------------------
      1          6           0        0.028977    0.036457   -0.005564
      2          1           0        0.848503   -0.484677   -0.580706
      3          1           0        0.056082    1.102670    0.046162
      4          1           0        0.139616   -0.498001    0.871255
      5          1           0       -1.218063   -0.338735   -0.303325
 ---------------------------------------------------------------------

 SCF Done:  E(RHF) =  -39.9354812985     A.U. after    9 cycles

 The electronic state is 1-A.
 Alpha  occ. eigenvalues --  -11.17128  -0.93493  -0.58566  -0.52722  -0.47578
 Alpha virt. eigenvalues --    0.24891   0.31137   0.34013   0.36707   0.89600
 Alpha virt. eigenvalues --    0.94439   1.03770   1.20028   1.29464   1.33390
 Alpha virt. eigenvalues --    1.41556   1.91736

 Mulliken charges:
               1
     1  C   -0.746040
     2  H    0.191969
     3  H    0.214799
     4  H    0.223899
     5  H    0.115374
 Sum of Mulliken charges =  -0.00000

 Dipole moment (field-independent basis, Debye):
    X=              0.2082    Y=             -0.0450    Z=              0.2536  Tot=              0.3312
 Quadrupole moment (field-independent basis, Debye-Ang):
   XX=             -8.3788   YY=             -8.1402   ZZ=             -9.1949
   XY=             -0.1736   XZ=             -0.1260   YZ=             -0.1226

 Normal termination of Gaussian 16 at Fri Sep 22 17:12:48 2023.
