 Gaussian 16, Revision A.03,
 Gaussian 16:  ES64L-G16RevA.03 25-Dec-2016

 ----------
 # hf/3-21g
 ----------

 -----------------------
 tmpdir/M1_conf_32_0.gjf
 -----------------------
 Symbolic Z-matrix:
 Charge =  0 Multiplicity = 1

                         Standard orientation:
 ---------------------------------------------------------------------
 Center     Atomic      Atomic             Coordinates (Angstroms)
 Number     Number       Type             X           Y           Z
 ---------------------------------------------------------------------
      1          6           0       -0.008233    0.007055   -0.001817
      2          1           0        0.078976    0.941162   -0.450852
      3          1           0        0.129899    0.132504    0.969775
      4          1           0        0.894605   -0.650459   -0.321217
      5          1           0       -1.054084   -0.465534   -0.186803
 ---------------------------------------------------------------------

 SCF Done:  E(RHF) =  -39.9585578501     A.U. after    9 cycles

 The electronic state is 1-A.
 Alpha  occ. eigenvalues --  -11.14698  -0.95045  -0.56462  -0.53828  -0.52558
 Alpha virt. eigenvalues --    0.28488   0.33180   0.35108   0.37436   0.87066
 Alpha virt. eigenvalues --    0.92552   0.99142   1.26689   1.30146   1.39540
 Alpha virt. eigenvalues --    1.45487   1.95809

 Mulliken charges:
               1
     1  C   -0.786997
     2  H    0.211189
     3  H    0.227245
     4  H    0.172181
     5  H    0.176382
 Sum of Mulliken charges =  -0.00000

 Dipole moment (field-independent basis, Debye):
    X=              0.0509    Y=              0.1227    Z=              0.1466  Tot=              0.1979
 Quadrupole moment (field-independent basis, Debye-Ang):
   XX=             -8.1323   YY=             -8.4517   ZZ=             -8.6338
   XY=              0.0447   XZ=              0.0503   YZ=             -0.0634

 Normal termination of Gaussian 16 at Fri Sep 22 17:11:48 2023.
