 Gaussian 16, Revision A.03,
 Gaussian 16:  ES64L-G16RevA.03 25-Dec-2016

 ----------
 # hf/3-21g
 ----------

 ------------------------
 tmpdir/M1_conf_104_0.gjf
 ------------------------
 Symbolic Z-matrix:
 Charge =  0 Multiplicity = 1

                         Standard orientation:
 ---------------------------------------------------------------------
 Center     Atomic      Atomic             Coordinates (Angstroms)
 Number     Number       Type             X           Y           Z
 ---------------------------------------------------------------------
      1          6           0       -0.005385    0.001486   -0.011393
      2          1           0        0.746864   -0.224219   -0.715531
      3          1           0        0.066547    1.104164    0.229063
      4          1           0        0.356748   -0.613782    0.769507
      5          1           0       -1.137849   -0.275077   -0.214679
 ---------------------------------------------------------------------

 SCF Done:  E(RHF) =  -39.9602590677     A.U. after    9 cycles

 The electronic state is 1-A.
 Alpha  occ. eigenvalues --  -11.15569  -0.94142  -0.56144  -0.54117  -0.50836
 Alpha virt. eigenvalues --    0.28252   0.32277   0.35445   0.35679   0.89224
 Alpha virt. eigenvalues --    0.94759   0.99391   1.25172   1.30765   1.35517
 Alpha virt. eigenvalues --    1.40792   1.93317

 Mulliken charges:
               1
     1  C   -0.782733
     2  H    0.210845
     3  H    0.187583
     4  H    0.207323
     5  H    0.176983
 Sum of Mulliken charges =  -0.00000

 Dipole moment (field-independent basis, Debye):
    X=              0.1525    Y=             -0.0711    Z=              0.0605  Tot=              0.1788
 Quadrupole moment (field-independent basis, Debye-Ang):
   XX=             -8.0159   YY=             -8.3561   ZZ=             -9.0256
   XY=             -0.0808   XZ=             -0.0553   YZ=             -0.0324

 Normal termination of Gaussian 16 at Fri Sep 22 17:13:18 2023.
