 Gaussian 16, Revision A.03,
 Gaussian 16:  ES64L-G16RevA.03 25-Dec-2016

 ----------
 # hf/3-21g
 ----------

 -----------------------
 tmpdir/M1_conf_69_0.gjf
 -----------------------
 Symbolic Z-matrix:
 Charge =  0 Multiplicity = 1

                         Standard orientation:
 ---------------------------------------------------------------------
 Center     Atomic      Atomic             Coordinates (Angstroms)
 Number     Number       Type             X           Y           Z
 ---------------------------------------------------------------------
      1          6           0        0.070918   -0.079403   -0.035654
      2          1           0        0.955585    0.527161   -0.315123
      3          1           0        0.045261   -0.152785    1.034048
      4          1           0       -0.482645   -0.795432   -0.449139
      5          1           0       -0.943711    0.897475   -0.055865
 ---------------------------------------------------------------------

 SCF Done:  E(RHF) =  -39.9112992333     A.U. after    9 cycles

 The electronic state is 1-A.
 Alpha  occ. eigenvalues --  -11.17529  -0.93976  -0.61339  -0.54187  -0.43629
 Alpha virt. eigenvalues --    0.23215   0.29262   0.34182   0.37999   0.88501
 Alpha virt. eigenvalues --    0.97799   1.02518   1.18900   1.28682   1.35672
 Alpha virt. eigenvalues --    1.44990   1.93789

 Mulliken charges:
               1
     1  C   -0.757861
     2  H    0.230771
     3  H    0.217907
     4  H    0.252734
     5  H    0.056448
 Sum of Mulliken charges =  -0.00000

 Dipole moment (field-independent basis, Debye):
    X=              0.1111    Y=             -0.1436    Z=              0.1402  Tot=              0.2294
 Quadrupole moment (field-independent basis, Debye-Ang):
   XX=             -8.4431   YY=             -8.7623   ZZ=             -8.7665
   XY=              0.8594   XZ=             -0.0200   YZ=              0.1456

 Normal termination of Gaussian 16 at Fri Sep 22 17:12:32 2023.
