 Gaussian 16, Revision A.03,
 Gaussian 16:  ES64L-G16RevA.03 25-Dec-2016

 ----------
 # hf/3-21g
 ----------

 ------------------------
 tmpdir/M1_conf_273_0.gjf
 ------------------------
 Symbolic Z-matrix:
 Charge =  0 Multiplicity = 1

                         Standard orientation:
 ---------------------------------------------------------------------
 Center     Atomic      Atomic             Coordinates (Angstroms)
 Number     Number       Type             X           Y           Z
 ---------------------------------------------------------------------
      1          6           0       -0.294991    0.017697    0.071348
      2          1           0       -0.436829   -0.830019   -0.569216
      3          1           0        0.358353   -0.129383    0.833650
      4          1           0       -0.313191    0.860356   -0.434722
      5          1           0        2.161614   -0.007139   -0.257798
 ---------------------------------------------------------------------

 SCF Done:  E(RHF) =  -39.7216067635     A.U. after   13 cycles

 The electronic state is 1-A.
 Alpha  occ. eigenvalues --  -11.23416  -0.97567  -0.65244  -0.61353  -0.29146
 Alpha virt. eigenvalues --    0.00754   0.29339   0.33814   0.36282   0.85016
 Alpha virt. eigenvalues --    0.87410   0.99333   1.14724   1.31386   1.34522
 Alpha virt. eigenvalues --    1.42335   1.75293

 Mulliken charges:
               1
     1  C   -0.567348
     2  H    0.241800
     3  H    0.283671
     4  H    0.263868
     5  H   -0.221992
 Sum of Mulliken charges =  -0.00000

 Dipole moment (field-independent basis, Debye):
    X=             -2.1018    Y=             -0.0101    Z=              0.0634  Tot=              2.1028
 Quadrupole moment (field-independent basis, Debye-Ang):
   XX=            -13.2875   YY=             -8.4834   ZZ=             -8.7239
   XY=             -0.0245   XZ=              1.2709   YZ=             -0.0894

 Normal termination of Gaussian 16 at Fri Sep 22 17:16:44 2023.
