 Gaussian 16, Revision A.03,
 Gaussian 16:  ES64L-G16RevA.03 25-Dec-2016

 ----------
 # hf/3-21g
 ----------

 -----------------------
 tmpdir/M1_conf_80_0.gjf
 -----------------------
 Symbolic Z-matrix:
 Charge =  0 Multiplicity = 1

                         Standard orientation:
 ---------------------------------------------------------------------
 Center     Atomic      Atomic             Coordinates (Angstroms)
 Number     Number       Type             X           Y           Z
 ---------------------------------------------------------------------
      1          6           0        0.031622    0.041977   -0.006147
      2          1           0        0.695402   -0.423830   -0.679264
      3          1           0        0.181536    1.013483    0.177904
      4          1           0        0.190977   -0.659621    0.771872
      5          1           0       -1.257645   -0.181893   -0.233628
 ---------------------------------------------------------------------

 SCF Done:  E(RHF) =  -39.9334542888     A.U. after    9 cycles

 The electronic state is 1-A.
 Alpha  occ. eigenvalues --  -11.15737  -0.94859  -0.60369  -0.53277  -0.47798
 Alpha virt. eigenvalues --    0.25511   0.32008   0.35125   0.37861   0.89145
 Alpha virt. eigenvalues --    0.90489   1.02774   1.20348   1.34382   1.37380
 Alpha virt. eigenvalues --    1.44938   1.93345

 Mulliken charges:
               1
     1  C   -0.760877
     2  H    0.209601
     3  H    0.224578
     4  H    0.210016
     5  H    0.116681
 Sum of Mulliken charges =  -0.00000

 Dipole moment (field-independent basis, Debye):
    X=              0.2666    Y=             -0.1014    Z=              0.1526  Tot=              0.3235
 Quadrupole moment (field-independent basis, Debye-Ang):
   XX=             -8.3055   YY=             -8.0354   ZZ=             -9.1198
   XY=             -0.0927   XZ=             -0.1542   YZ=              0.0307

 Normal termination of Gaussian 16 at Fri Sep 22 17:12:50 2023.
