 Gaussian 16, Revision A.03,
 Gaussian 16:  ES64L-G16RevA.03 25-Dec-2016

 ----------
 # hf/3-21g
 ----------

 ------------------------
 tmpdir/M1_conf_101_0.gjf
 ------------------------
 Symbolic Z-matrix:
 Charge =  0 Multiplicity = 1

                         Standard orientation:
 ---------------------------------------------------------------------
 Center     Atomic      Atomic             Coordinates (Angstroms)
 Number     Number       Type             X           Y           Z
 ---------------------------------------------------------------------
      1          6           0        0.004572    0.025552   -0.001559
      2          1           0       -0.551603    0.093161    0.829877
      3          1           0        0.364013    0.869432   -0.325065
      4          1           0       -0.795312   -0.457176   -0.599464
      5          1           0        0.955467   -0.658729    0.104004
 ---------------------------------------------------------------------

 SCF Done:  E(RHF) =  -39.9468703982     A.U. after    9 cycles

 The electronic state is 1-A.
 Alpha  occ. eigenvalues --  -11.13678  -0.96025  -0.60620  -0.52877  -0.51301
 Alpha virt. eigenvalues --    0.29051   0.33076   0.35678   0.38617   0.87167
 Alpha virt. eigenvalues --    0.90128   0.99194   1.27311   1.32334   1.42934
 Alpha virt. eigenvalues --    1.48166   1.94627

 Mulliken charges:
               1
     1  C   -0.798632
     2  H    0.220079
     3  H    0.227430
     4  H    0.185701
     5  H    0.165421
 Sum of Mulliken charges =   0.00000

 Dipole moment (field-independent basis, Debye):
    X=             -0.1190    Y=              0.0852    Z=              0.0632  Tot=              0.1594
 Quadrupole moment (field-independent basis, Debye-Ang):
   XX=             -7.7997   YY=             -8.4345   ZZ=             -8.8140
   XY=              0.1750   XZ=             -0.1852   YZ=             -0.0881

 Normal termination of Gaussian 16 at Fri Sep 22 17:13:15 2023.
