 Gaussian 16, Revision A.03,
 Gaussian 16:  ES64L-G16RevA.03 25-Dec-2016

 ----------
 # hf/3-21g
 ----------

 ------------------------
 tmpdir/M1_conf_243_0.gjf
 ------------------------
 Symbolic Z-matrix:
 Charge =  0 Multiplicity = 1

                         Standard orientation:
 ---------------------------------------------------------------------
 Center     Atomic      Atomic             Coordinates (Angstroms)
 Number     Number       Type             X           Y           Z
 ---------------------------------------------------------------------
      1          6           0        0.323941   -0.025928    0.052564
      2          1           0        0.220543    0.955125   -0.376772
      3          1           0       -0.360357   -0.061688    0.781521
      4          1           0        0.141903   -0.775121   -0.545413
      5          1           0       -1.945734    0.037255   -0.174716
 ---------------------------------------------------------------------

 SCF Done:  E(RHF) =  -39.7147765301     A.U. after   13 cycles

 The electronic state is 1-A.
 Alpha  occ. eigenvalues --  -11.21830  -0.98187  -0.62985  -0.59531  -0.31619
 Alpha virt. eigenvalues --    0.00776   0.30213   0.35437   0.36571   0.83062
 Alpha virt. eigenvalues --    0.87870   1.01323   1.21587   1.32085   1.40515
 Alpha virt. eigenvalues --    1.41178   1.79064

 Mulliken charges:
               1
     1  C   -0.602701
     2  H    0.243033
     3  H    0.271020
     4  H    0.262493
     5  H   -0.173845
 Sum of Mulliken charges =  -0.00000

 Dipole moment (field-independent basis, Debye):
    X=              1.0899    Y=              0.0170    Z=             -0.0996  Tot=              1.0946
 Quadrupole moment (field-independent basis, Debye-Ang):
   XX=            -11.8659   YY=             -8.4029   ZZ=             -9.1086
   XY=              0.1104   XZ=             -0.7322   YZ=              0.0780

 Normal termination of Gaussian 16 at Fri Sep 22 17:16:08 2023.
