 Gaussian 16, Revision A.03,
 Gaussian 16:  ES64L-G16RevA.03 25-Dec-2016

 ----------
 # hf/3-21g
 ----------

 ------------------------
 tmpdir/M1_conf_272_0.gjf
 ------------------------
 Symbolic Z-matrix:
 Charge =  0 Multiplicity = 1

                         Standard orientation:
 ---------------------------------------------------------------------
 Center     Atomic      Atomic             Coordinates (Angstroms)
 Number     Number       Type             X           Y           Z
 ---------------------------------------------------------------------
      1          6           0        0.300595   -0.041682    0.083917
      2          1           0        0.457086    0.932370   -0.509365
      3          1           0       -0.389600    0.069569    0.832834
      4          1           0        0.283557   -0.797254   -0.564300
      5          1           0       -2.154613    0.045403   -0.262672
 ---------------------------------------------------------------------

 SCF Done:  E(RHF) =  -39.7146794331     A.U. after   13 cycles

 The electronic state is 1-A.
 Alpha  occ. eigenvalues --  -11.24315  -0.96487  -0.65144  -0.58328  -0.29361
 Alpha virt. eigenvalues --    0.00225   0.27675   0.32430   0.36276   0.86436
 Alpha virt. eigenvalues --    0.89804   0.99149   1.15133   1.26951   1.32709
 Alpha virt. eigenvalues --    1.41317   1.74430

 Mulliken charges:
               1
     1  C   -0.563201
     2  H    0.223068
     3  H    0.285561
     4  H    0.267844
     5  H   -0.213272
 Sum of Mulliken charges =   0.00000

 Dipole moment (field-independent basis, Debye):
    X=              1.9113    Y=              0.0052    Z=             -0.0156  Tot=              1.9114
 Quadrupole moment (field-independent basis, Debye-Ang):
   XX=            -13.2328   YY=             -8.6528   ZZ=             -8.7669
   XY=              0.1083   XZ=             -1.2757   YZ=              0.1667

 Normal termination of Gaussian 16 at Fri Sep 22 17:16:43 2023.
