 Gaussian 16, Revision A.03,
 Gaussian 16:  ES64L-G16RevA.03 25-Dec-2016

 ----------
 # hf/3-21g
 ----------

 -----------------------
 tmpdir/M1_conf_23_0.gjf
 -----------------------
 Symbolic Z-matrix:
 Charge =  0 Multiplicity = 1

                         Standard orientation:
 ---------------------------------------------------------------------
 Center     Atomic      Atomic             Coordinates (Angstroms)
 Number     Number       Type             X           Y           Z
 ---------------------------------------------------------------------
      1          6           0        0.017786   -0.049515    0.021645
      2          1           0       -0.583888   -0.027930    0.845374
      3          1           0       -0.207164   -0.857007   -0.563935
      4          1           0        1.194737    0.243229    0.096493
      5          1           0       -0.510399    0.938795   -0.507804
 ---------------------------------------------------------------------

 SCF Done:  E(RHF) =  -39.9404524811     A.U. after    9 cycles

 The electronic state is 1-A.
 Alpha  occ. eigenvalues --  -11.16431  -0.94032  -0.57629  -0.54606  -0.47850
 Alpha virt. eigenvalues --    0.27266   0.29320   0.35241   0.37108   0.88038
 Alpha virt. eigenvalues --    0.95243   1.01999   1.22950   1.24223   1.40582
 Alpha virt. eigenvalues --    1.41800   1.94281

 Mulliken charges:
               1
     1  C   -0.763350
     2  H    0.227628
     3  H    0.223264
     4  H    0.176160
     5  H    0.136297
 Sum of Mulliken charges =  -0.00000

 Dipole moment (field-independent basis, Debye):
    X=             -0.1421    Y=             -0.0376    Z=              0.0371  Tot=              0.1516
 Quadrupole moment (field-independent basis, Debye-Ang):
   XX=             -8.0623   YY=             -8.6205   ZZ=             -8.9038
   XY=              0.1761   XZ=             -0.1973   YZ=              0.2953

 Normal termination of Gaussian 16 at Fri Sep 22 17:11:37 2023.
