 Gaussian 16, Revision A.03,
 Gaussian 16:  ES64L-G16RevA.03 25-Dec-2016

 ----------
 # hf/3-21g
 ----------

 ------------------------
 tmpdir/M1_conf_225_1.gjf
 ------------------------
 Symbolic Z-matrix:
 Charge =  0 Multiplicity = 1

                         Standard orientation:
 ---------------------------------------------------------------------
 Center     Atomic      Atomic             Coordinates (Angstroms)
 Number     Number       Type             X           Y           Z
 ---------------------------------------------------------------------
      1         17           0        0.000000    0.000000    0.133964
      2          1           0       -0.000000    0.000000   -2.277393
 ---------------------------------------------------------------------

 SCF Done:  E(RHF) =  -457.709614676     A.U. after    9 cycles

 The electronic state is 1-SG.
 Alpha  occ. eigenvalues -- -104.12047 -10.50605  -7.96932  -7.96624  -7.96624
 Alpha  occ. eigenvalues --   -1.03702  -0.45271  -0.45271  -0.43422
 Alpha virt. eigenvalues --   -0.09337   0.68576   0.80396   0.80396   0.85014
 Alpha virt. eigenvalues --    1.10282

 Mulliken charges:
               1
     1  Cl  -0.265711
     2  H    0.265711
 Sum of Mulliken charges =   0.00000

 Dipole moment (field-independent basis, Debye):
    X=             -0.0000    Y=              0.0000    Z=             -3.0030  Tot=              3.0030
 Quadrupole moment (field-independent basis, Debye-Ang):
   XX=            -14.7753   YY=            -14.7753   ZZ=             -5.5322
   XY=              0.0000   XZ=             -0.0000   YZ=             -0.0000

 Normal termination of Gaussian 16 at Fri Sep 22 17:15:47 2023.
