 Gaussian 16, Revision A.03,
 Gaussian 16:  ES64L-G16RevA.03 25-Dec-2016

 ----------
 # hf/3-21g
 ----------

 ------------------------
 tmpdir/M1_conf_260_0.gjf
 ------------------------
 Symbolic Z-matrix:
 Charge =  0 Multiplicity = 1

                         Standard orientation:
 ---------------------------------------------------------------------
 Center     Atomic      Atomic             Coordinates (Angstroms)
 Number     Number       Type             X           Y           Z
 ---------------------------------------------------------------------
      1          6           0       -0.321797   -0.023637   -0.106005
      2          1           0       -0.505726    1.046769    0.403761
      3          1           0        0.654671   -0.085862   -0.595990
      4          1           0       -0.324498   -0.931872    0.557375
      5          1           0        2.106332    0.112784    0.270881
 ---------------------------------------------------------------------

 SCF Done:  E(RHF) =  -39.7041863520     A.U. after   13 cycles

 The electronic state is 1-A.
 Alpha  occ. eigenvalues --  -11.26004  -0.93555  -0.58759  -0.57638  -0.30254
 Alpha virt. eigenvalues --   -0.00542   0.25034   0.30947   0.35431   0.89201
 Alpha virt. eigenvalues --    0.96947   0.98602   1.13611   1.24415   1.27989
 Alpha virt. eigenvalues --    1.32900   1.70972

 Mulliken charges:
               1
     1  C   -0.532145
     2  H    0.224464
     3  H    0.262479
     4  H    0.234311
     5  H   -0.189108
 Sum of Mulliken charges =  -0.00000

 Dipole moment (field-independent basis, Debye):
    X=             -1.5797    Y=             -0.0608    Z=              0.3826  Tot=              1.6265
 Quadrupole moment (field-independent basis, Debye-Ang):
   XX=            -12.5950   YY=             -8.4378   ZZ=             -9.9883
   XY=             -0.4365   XZ=             -1.0638   YZ=             -0.0105

 Normal termination of Gaussian 16 at Fri Sep 22 17:16:29 2023.
