 Gaussian 16, Revision A.03,
 Gaussian 16:  ES64L-G16RevA.03 25-Dec-2016

 ----------
 # hf/3-21g
 ----------

 -----------------------
 tmpdir/M1_conf_73_1.gjf
 -----------------------
 Symbolic Z-matrix:
 Charge =  0 Multiplicity = 1

                         Standard orientation:
 ---------------------------------------------------------------------
 Center     Atomic      Atomic             Coordinates (Angstroms)
 Number     Number       Type             X           Y           Z
 ---------------------------------------------------------------------
      1         17           0        0.000000    0.000000    0.090468
      2          1           0       -0.000000   -0.000000   -1.537956
 ---------------------------------------------------------------------

 SCF Done:  E(RHF) =  -457.835221651     A.U. after    8 cycles

 The electronic state is 1-SG.
 Alpha  occ. eigenvalues -- -104.12920 -10.51857  -7.98212  -7.97828  -7.97828
 Alpha  occ. eigenvalues --   -1.07863  -0.54809  -0.47244  -0.47244
 Alpha virt. eigenvalues --    0.05390   0.70350   0.78672   0.78672   0.86127
 Alpha virt. eigenvalues --    1.08880

 Mulliken charges:
               1
     1  Cl  -0.241670
     2  H    0.241670
 Sum of Mulliken charges =   0.00000

 Dipole moment (field-independent basis, Debye):
    X=             -0.0000    Y=             -0.0000    Z=             -2.0286  Tot=              2.0286
 Quadrupole moment (field-independent basis, Debye-Ang):
   XX=            -14.4862   YY=            -14.4862   ZZ=             -9.8104
   XY=             -0.0000   XZ=             -0.0000   YZ=             -0.0000

 Normal termination of Gaussian 16 at Fri Sep 22 17:12:41 2023.
