 Gaussian 16, Revision A.03,
 Gaussian 16:  ES64L-G16RevA.03 25-Dec-2016

 ----------
 # hf/3-21g
 ----------

 ------------------------
 tmpdir/M1_conf_197_0.gjf
 ------------------------
 Symbolic Z-matrix:
 Charge =  0 Multiplicity = 1

                         Standard orientation:
 ---------------------------------------------------------------------
 Center     Atomic      Atomic             Coordinates (Angstroms)
 Number     Number       Type             X           Y           Z
 ---------------------------------------------------------------------
      1          6           0       -0.306923    0.022995    0.061969
      2          1           0       -0.378479   -0.817646   -0.570759
      3          1           0        0.490780   -0.181126    0.849677
      4          1           0        0.165444    1.090096   -0.356634
      5          1           0        1.563791   -0.229296   -0.294096
 ---------------------------------------------------------------------

 SCF Done:  E(RHF) =  -39.7545133550     A.U. after   12 cycles

 The electronic state is 1-A.
 Alpha  occ. eigenvalues --  -11.23773  -0.93422  -0.59861  -0.52461  -0.35440
 Alpha virt. eigenvalues --    0.05906   0.25486   0.30629   0.34405   0.90429
 Alpha virt. eigenvalues --    0.97379   1.02124   1.20417   1.22760   1.30275
 Alpha virt. eigenvalues --    1.32175   1.79025

 Mulliken charges:
               1
     1  C   -0.592737
     2  H    0.252810
     3  H    0.238812
     4  H    0.214731
     5  H   -0.113616
 Sum of Mulliken charges =   0.00000

 Dipole moment (field-independent basis, Debye):
    X=              0.0126    Y=             -0.0782    Z=             -0.2186  Tot=              0.2325
 Quadrupole moment (field-independent basis, Debye-Ang):
   XX=            -10.7228   YY=             -8.6210   ZZ=             -9.7280
   XY=              0.7414   XZ=              1.0105   YZ=              0.0017

 Normal termination of Gaussian 16 at Fri Sep 22 17:15:14 2023.
