 Gaussian 16, Revision A.03,
 Gaussian 16:  ES64L-G16RevA.03 25-Dec-2016

 ----------
 # hf/3-21g
 ----------

 ------------------------
 tmpdir/M1_conf_284_0.gjf
 ------------------------
 Symbolic Z-matrix:
 Charge =  0 Multiplicity = 1

                         Standard orientation:
 ---------------------------------------------------------------------
 Center     Atomic      Atomic             Coordinates (Angstroms)
 Number     Number       Type             X           Y           Z
 ---------------------------------------------------------------------
      1          6           0        0.316799    0.014151    0.084988
      2          1           0        0.310216    0.885878   -0.372597
      3          1           0       -0.599851   -0.122679    0.605728
      4          1           0        0.541059   -0.817076   -0.475942
      5          1           0       -2.152220   -0.031031   -0.267119
 ---------------------------------------------------------------------

 SCF Done:  E(RHF) =  -39.7044826080     A.U. after   13 cycles

 The electronic state is 1-A.
 Alpha  occ. eigenvalues --  -11.22955  -0.98000  -0.64511  -0.60733  -0.29399
 Alpha virt. eigenvalues --   -0.00599   0.30099   0.35336   0.36332   0.84549
 Alpha virt. eigenvalues --    0.86749   0.98510   1.19926   1.29301   1.36758
 Alpha virt. eigenvalues --    1.40466   1.75886

 Mulliken charges:
               1
     1  C   -0.558867
     2  H    0.255685
     3  H    0.268193
     4  H    0.243227
     5  H   -0.208238
 Sum of Mulliken charges =  -0.00000

 Dipole moment (field-independent basis, Debye):
    X=              1.9641    Y=              0.0325    Z=             -0.2381  Tot=              1.9788
 Quadrupole moment (field-independent basis, Debye-Ang):
   XX=            -12.6945   YY=             -8.4352   ZZ=             -9.5620
   XY=             -0.1139   XZ=             -1.1646   YZ=             -0.0056

 Normal termination of Gaussian 16 at Fri Sep 22 17:16:57 2023.
