 Gaussian 16, Revision A.03,
 Gaussian 16:  ES64L-G16RevA.03 25-Dec-2016

 ----------
 # hf/3-21g
 ----------

 -----------------------
 tmpdir/M1_conf_15_0.gjf
 -----------------------
 Symbolic Z-matrix:
 Charge =  0 Multiplicity = 1

                         Standard orientation:
 ---------------------------------------------------------------------
 Center     Atomic      Atomic             Coordinates (Angstroms)
 Number     Number       Type             X           Y           Z
 ---------------------------------------------------------------------
      1          6           0       -0.005416   -0.054449    0.021704
      2          1           0        0.656936   -0.147325    0.834115
      3          1           0       -0.722195   -0.851394   -0.274798
      4          1           0        0.816768    0.282025   -0.808385
      5          1           0       -0.719011    1.043389    0.118843
 ---------------------------------------------------------------------

 SCF Done:  E(RHF) =  -39.9343232941     A.U. after    9 cycles

 The electronic state is 1-A.
 Alpha  occ. eigenvalues --  -11.18653  -0.91881  -0.58165  -0.51055  -0.47346
 Alpha virt. eigenvalues --    0.25727   0.28631   0.32341   0.36151   0.92389
 Alpha virt. eigenvalues --    0.97481   1.03388   1.19953   1.24443   1.28709
 Alpha virt. eigenvalues --    1.38547   1.90895

 Mulliken charges:
               1
     1  C   -0.727056
     2  H    0.225998
     3  H    0.212064
     4  H    0.162284
     5  H    0.126709
 Sum of Mulliken charges =  -0.00000

 Dipole moment (field-independent basis, Debye):
    X=              0.1269    Y=             -0.0935    Z=              0.0278  Tot=              0.1600
 Quadrupole moment (field-independent basis, Debye-Ang):
   XX=             -8.2300   YY=             -8.6810   ZZ=             -9.0823
   XY=              0.2888   XZ=              0.3154   YZ=              0.0005

 Normal termination of Gaussian 16 at Fri Sep 22 17:11:28 2023.
