 Gaussian 16, Revision A.03,
 Gaussian 16:  ES64L-G16RevA.03 25-Dec-2016

 ----------
 # hf/3-21g
 ----------

 ------------------------
 tmpdir/M1_conf_254_0.gjf
 ------------------------
 Symbolic Z-matrix:
 Charge =  0 Multiplicity = 1

                         Standard orientation:
 ---------------------------------------------------------------------
 Center     Atomic      Atomic             Coordinates (Angstroms)
 Number     Number       Type             X           Y           Z
 ---------------------------------------------------------------------
      1          6           0       -0.288263   -0.008600   -0.086019
      2          1           0       -0.314837    0.958438    0.182843
      3          1           0        0.510966   -0.348726   -0.655762
      4          1           0       -0.550589   -0.617997    0.689783
      5          1           0        2.084039    0.059885    0.299250
 ---------------------------------------------------------------------

 SCF Done:  E(RHF) =  -39.7246283069     A.U. after   13 cycles

 The electronic state is 1-A.
 Alpha  occ. eigenvalues --  -11.22877  -0.97633  -0.63645  -0.62364  -0.29722
 Alpha virt. eigenvalues --    0.01008   0.30069   0.34616   0.36220   0.84862
 Alpha virt. eigenvalues --    0.87386   0.99781   1.17410   1.30375   1.37206
 Alpha virt. eigenvalues --    1.40046   1.75122

 Mulliken charges:
               1
     1  C   -0.566131
     2  H    0.256288
     3  H    0.280702
     4  H    0.242429
     5  H   -0.213288
 Sum of Mulliken charges =   0.00000

 Dipole moment (field-independent basis, Debye):
    X=             -1.9240    Y=             -0.0045    Z=              0.0421  Tot=              1.9245
 Quadrupole moment (field-independent basis, Debye-Ang):
   XX=            -12.5521   YY=             -8.4989   ZZ=             -9.1875
   XY=             -0.3275   XZ=             -1.3956   YZ=              0.0012

 Normal termination of Gaussian 16 at Fri Sep 22 17:16:21 2023.
