 Gaussian 16, Revision A.03,
 Gaussian 16:  ES64L-G16RevA.03 25-Dec-2016

 ----------
 # hf/3-21g
 ----------

 ------------------------
 tmpdir/M1_conf_276_0.gjf
 ------------------------
 Symbolic Z-matrix:
 Charge =  0 Multiplicity = 1

                         Standard orientation:
 ---------------------------------------------------------------------
 Center     Atomic      Atomic             Coordinates (Angstroms)
 Number     Number       Type             X           Y           Z
 ---------------------------------------------------------------------
      1          6           0       -0.289821   -0.033315    0.048553
      2          1           0       -0.402573   -0.815573   -0.530999
      3          1           0        0.407748   -0.051738    0.893694
      4          1           0       -0.428655    1.031581   -0.355263
      5          1           0        2.162403    0.035622   -0.298752
 ---------------------------------------------------------------------

 SCF Done:  E(RHF) =  -39.7272458880     A.U. after   13 cycles

 The electronic state is 1-A.
 Alpha  occ. eigenvalues --  -11.25074  -0.95595  -0.64750  -0.58901  -0.28971
 Alpha virt. eigenvalues --    0.01548   0.26988   0.31776   0.35260   0.86946
 Alpha virt. eigenvalues --    0.91742   0.99214   1.11426   1.27202   1.31410
 Alpha virt. eigenvalues --    1.38464   1.72823

 Mulliken charges:
               1
     1  C   -0.551963
     2  H    0.265382
     3  H    0.278163
     4  H    0.239483
     5  H   -0.231066
 Sum of Mulliken charges =  -0.00000

 Dipole moment (field-independent basis, Debye):
    X=             -2.2110    Y=              0.0055    Z=              0.2265  Tot=              2.2226
 Quadrupole moment (field-independent basis, Debye-Ang):
   XX=            -13.5508   YY=             -8.2528   ZZ=             -9.0033
   XY=             -0.0948   XZ=              1.4830   YZ=              0.1272

 Normal termination of Gaussian 16 at Fri Sep 22 17:16:48 2023.
