 Gaussian 16, Revision A.03,
 Gaussian 16:  ES64L-G16RevA.03 25-Dec-2016

 ----------
 # hf/3-21g
 ----------

 -----------------------
 tmpdir/M1_conf_47_0.gjf
 -----------------------
 Symbolic Z-matrix:
 Charge =  0 Multiplicity = 1

                         Standard orientation:
 ---------------------------------------------------------------------
 Center     Atomic      Atomic             Coordinates (Angstroms)
 Number     Number       Type             X           Y           Z
 ---------------------------------------------------------------------
      1          6           0        0.014905   -0.021902   -0.063775
      2          1           0        0.808407    0.753319   -0.350976
      3          1           0        0.610670   -0.814951    0.585746
      4          1           0       -0.787276   -0.452226   -0.581275
      5          1           0       -0.721230    0.645273    0.729153
 ---------------------------------------------------------------------

 SCF Done:  E(RHF) =  -39.9341253572     A.U. after    9 cycles

 The electronic state is 1-A.
 Alpha  occ. eigenvalues --  -11.18251  -0.92125  -0.58989  -0.51250  -0.46773
 Alpha virt. eigenvalues --    0.26612   0.28600   0.31515   0.36826   0.93202
 Alpha virt. eigenvalues --    0.98685   1.02862   1.21933   1.24682   1.27417
 Alpha virt. eigenvalues --    1.38845   1.90981

 Mulliken charges:
               1
     1  C   -0.752740
     2  H    0.212300
     3  H    0.177411
     4  H    0.236186
     5  H    0.126843
 Sum of Mulliken charges =  -0.00000

 Dipole moment (field-independent basis, Debye):
    X=             -0.0322    Y=              0.0016    Z=             -0.0042  Tot=              0.0325
 Quadrupole moment (field-independent basis, Debye-Ang):
   XX=             -8.0288   YY=             -8.6080   ZZ=             -9.3276
   XY=              0.3549   XZ=              0.2801   YZ=             -0.1029

 Normal termination of Gaussian 16 at Fri Sep 22 17:12:06 2023.
