 Gaussian 16, Revision A.03,
 Gaussian 16:  ES64L-G16RevA.03 25-Dec-2016

 ----------
 # hf/3-21g
 ----------

 ----------------------
 tmpdir/M1_conf_7_0.gjf
 ----------------------
 Symbolic Z-matrix:
 Charge =  0 Multiplicity = 1

                         Standard orientation:
 ---------------------------------------------------------------------
 Center     Atomic      Atomic             Coordinates (Angstroms)
 Number     Number       Type             X           Y           Z
 ---------------------------------------------------------------------
      1          6           0       -0.035100   -0.002542   -0.059334
      2          1           0       -0.874496   -0.702762   -0.258309
      3          1           0       -0.430584    0.571138    0.883217
      4          1           0        0.405005    0.754330   -0.624344
      5          1           0        1.110672   -0.607454    0.355438
 ---------------------------------------------------------------------

 SCF Done:  E(RHF) =  -39.9243558823     A.U. after    9 cycles

 The electronic state is 1-A.
 Alpha  occ. eigenvalues --  -11.18559  -0.92290  -0.59602  -0.50158  -0.46849
 Alpha virt. eigenvalues --    0.24447   0.29798   0.31114   0.37051   0.91997
 Alpha virt. eigenvalues --    0.97546   1.04663   1.19934   1.27119   1.27644
 Alpha virt. eigenvalues --    1.40088   1.90621

 Mulliken charges:
               1
     1  C   -0.737430
     2  H    0.219864
     3  H    0.171871
     4  H    0.239144
     5  H    0.106550
 Sum of Mulliken charges =  -0.00000

 Dipole moment (field-independent basis, Debye):
    X=             -0.1657    Y=              0.2105    Z=             -0.0137  Tot=              0.2682
 Quadrupole moment (field-independent basis, Debye-Ang):
   XX=             -8.1724   YY=             -8.6203   ZZ=             -9.2106
   XY=              0.5151   XZ=             -0.1593   YZ=             -0.0735

 Normal termination of Gaussian 16 at Fri Sep 22 17:11:18 2023.
