 Gaussian 16, Revision A.03,
 Gaussian 16:  ES64L-G16RevA.03 25-Dec-2016

 ----------
 # hf/3-21g
 ----------

 ------------------------
 tmpdir/M1_conf_246_1.gjf
 ------------------------
 Symbolic Z-matrix:
 Charge =  0 Multiplicity = 1

                         Standard orientation:
 ---------------------------------------------------------------------
 Center     Atomic      Atomic             Coordinates (Angstroms)
 Number     Number       Type             X           Y           Z
 ---------------------------------------------------------------------
      1         17           0        0.000000   -0.000000    0.151229
      2          1           0       -0.000000    0.000000   -2.570886
 ---------------------------------------------------------------------

 SCF Done:  E(RHF) =  -457.670466443     A.U. after    9 cycles

 The electronic state is 1-SG.
 Alpha  occ. eigenvalues -- -104.11209 -10.49812  -7.96140  -7.95835  -7.95835
 Alpha  occ. eigenvalues --   -1.02856  -0.44604  -0.44604  -0.40550
 Alpha virt. eigenvalues --   -0.12623   0.68085   0.81028   0.81028   0.82628
 Alpha virt. eigenvalues --    1.09902

 Mulliken charges:
               1
     1  Cl  -0.275296
     2  H    0.275296
 Sum of Mulliken charges =  -0.00000

 Dipole moment (field-independent basis, Debye):
    X=             -0.0000    Y=              0.0000    Z=             -3.5086  Tot=              3.5086
 Quadrupole moment (field-independent basis, Debye-Ang):
   XX=            -14.8027   YY=            -14.8027   ZZ=             -3.4848
   XY=              0.0000   XZ=              0.0000   YZ=             -0.0000

 Normal termination of Gaussian 16 at Fri Sep 22 17:16:12 2023.
