 Gaussian 16, Revision A.03,
 Gaussian 16:  ES64L-G16RevA.03 25-Dec-2016

 ----------
 # hf/3-21g
 ----------

 ----------------------
 tmpdir/M1_conf_6_0.gjf
 ----------------------
 Symbolic Z-matrix:
 Charge =  0 Multiplicity = 1

                         Standard orientation:
 ---------------------------------------------------------------------
 Center     Atomic      Atomic             Coordinates (Angstroms)
 Number     Number       Type             X           Y           Z
 ---------------------------------------------------------------------
      1          6           0       -0.042806    0.012492   -0.059100
      2          1           0       -0.890177   -0.516900   -0.443917
      3          1           0       -0.429332    0.363756    0.971906
      4          1           0        0.574864    0.888536   -0.423262
      5          1           0        1.001478   -0.810342    0.249875
 ---------------------------------------------------------------------

 SCF Done:  E(RHF) =  -39.9241907509     A.U. after    9 cycles

 The electronic state is 1-A.
 Alpha  occ. eigenvalues --  -11.18972  -0.91783  -0.59030  -0.50542  -0.46224
 Alpha virt. eigenvalues --    0.24468   0.28708   0.31538   0.36512   0.92268
 Alpha virt. eigenvalues --    1.00085   1.03623   1.19820   1.26305   1.28299
 Alpha virt. eigenvalues --    1.36612   1.90330

 Mulliken charges:
               1
     1  C   -0.735327
     2  H    0.229739
     3  H    0.180573
     4  H    0.220329
     5  H    0.104687
 Sum of Mulliken charges =  -0.00000

 Dipole moment (field-independent basis, Debye):
    X=             -0.1524    Y=              0.1878    Z=              0.0710  Tot=              0.2521
 Quadrupole moment (field-independent basis, Debye-Ang):
   XX=             -8.1134   YY=             -8.7368   ZZ=             -9.2302
   XY=              0.5517   XZ=             -0.0087   YZ=              0.0748

 Normal termination of Gaussian 16 at Fri Sep 22 17:11:17 2023.
