 Gaussian 16, Revision A.03,
 Gaussian 16:  ES64L-G16RevA.03 25-Dec-2016

 ----------
 # hf/3-21g
 ----------

 -----------------------
 tmpdir/M1_conf_78_0.gjf
 -----------------------
 Symbolic Z-matrix:
 Charge =  0 Multiplicity = 1

                         Standard orientation:
 ---------------------------------------------------------------------
 Center     Atomic      Atomic             Coordinates (Angstroms)
 Number     Number       Type             X           Y           Z
 ---------------------------------------------------------------------
      1          6           0        0.028795    0.031462   -0.002392
      2          1           0        0.998243   -0.430554   -0.506113
      3          1           0       -0.114372    1.158547   -0.034495
      4          1           0        0.083934   -0.399158    0.926630
      5          1           0       -1.140573   -0.517608   -0.371669
 ---------------------------------------------------------------------

 SCF Done:  E(RHF) =  -39.9283091170     A.U. after    9 cycles

 The electronic state is 1-A.
 Alpha  occ. eigenvalues --  -11.18531  -0.92303  -0.56706  -0.52430  -0.47214
 Alpha virt. eigenvalues --    0.24232   0.29666   0.32836   0.36022   0.90005
 Alpha virt. eigenvalues --    0.98438   1.04717   1.19592   1.24593   1.29151
 Alpha virt. eigenvalues --    1.40193   1.90623

 Mulliken charges:
               1
     1  C   -0.725374
     2  H    0.180203
     3  H    0.201505
     4  H    0.229992
     5  H    0.113673
 Sum of Mulliken charges =  -0.00000

 Dipole moment (field-independent basis, Debye):
    X=              0.1355    Y=              0.0002    Z=              0.2980  Tot=              0.3274
 Quadrupole moment (field-independent basis, Debye-Ang):
   XX=             -8.4123   YY=             -8.3136   ZZ=             -9.2246
   XY=             -0.2346   XZ=             -0.1293   YZ=             -0.1961

 Normal termination of Gaussian 16 at Fri Sep 22 17:12:47 2023.
