 Gaussian 16, Revision A.03,
 Gaussian 16:  ES64L-G16RevA.03 25-Dec-2016

 ----------
 # hf/3-21g
 ----------

 ------------------------
 tmpdir/M1_conf_100_0.gjf
 ------------------------
 Symbolic Z-matrix:
 Charge =  0 Multiplicity = 1

                         Standard orientation:
 ---------------------------------------------------------------------
 Center     Atomic      Atomic             Coordinates (Angstroms)
 Number     Number       Type             X           Y           Z
 ---------------------------------------------------------------------
      1          6           0        0.003391    0.026046   -0.007690
      2          1           0       -0.621420   -0.048955    0.879303
      3          1           0        0.476002    0.890451   -0.134795
      4          1           0       -0.772520   -0.263927   -0.741019
      5          1           0        0.897593   -0.733847    0.042650
 ---------------------------------------------------------------------

 SCF Done:  E(RHF) =  -39.9575840331     A.U. after    9 cycles

 The electronic state is 1-A.
 Alpha  occ. eigenvalues --  -11.14870  -0.94685  -0.59482  -0.51742  -0.51574
 Alpha virt. eigenvalues --    0.28799   0.33252   0.33768   0.37793   0.89402
 Alpha virt. eigenvalues --    0.91834   0.99302   1.27155   1.31899   1.34738
 Alpha virt. eigenvalues --    1.44736   1.93634

 Mulliken charges:
               1
     1  C   -0.786813
     2  H    0.198496
     3  H    0.226621
     4  H    0.194349
     5  H    0.167347
 Sum of Mulliken charges =   0.00000

 Dipole moment (field-independent basis, Debye):
    X=             -0.0623    Y=              0.0615    Z=              0.0317  Tot=              0.0931
 Quadrupole moment (field-independent basis, Debye-Ang):
   XX=             -7.8674   YY=             -8.5943   ZZ=             -8.8209
   XY=              0.2281   XZ=             -0.0438   YZ=             -0.0345

 Normal termination of Gaussian 16 at Fri Sep 22 17:13:13 2023.
