 Gaussian 16, Revision A.03,
 Gaussian 16:  ES64L-G16RevA.03 25-Dec-2016

 ----------
 # hf/3-21g
 ----------

 ------------------------
 tmpdir/M1_conf_137_0.gjf
 ------------------------
 Symbolic Z-matrix:
 Charge =  0 Multiplicity = 1

                         Standard orientation:
 ---------------------------------------------------------------------
 Center     Atomic      Atomic             Coordinates (Angstroms)
 Number     Number       Type             X           Y           Z
 ---------------------------------------------------------------------
      1          6           0        0.082613   -0.086731   -0.056242
      2          1           0        1.050094    0.635753   -0.161000
      3          1           0        0.048000   -0.814193    0.744964
      4          1           0       -0.771209   -0.208288   -0.809796
      5          1           0       -0.822566    0.907114    0.563283
 ---------------------------------------------------------------------

 SCF Done:  E(RHF) =  -39.8873775608     A.U. after   10 cycles

 The electronic state is 1-A.
 Alpha  occ. eigenvalues --  -11.21012  -0.90861  -0.55941  -0.55489  -0.41141
 Alpha virt. eigenvalues --    0.20802   0.25160   0.33363   0.34379   0.93176
 Alpha virt. eigenvalues --    1.01509   1.02921   1.18894   1.21284   1.29232
 Alpha virt. eigenvalues --    1.33434   1.88399

 Mulliken charges:
               1
     1  C   -0.697612
     2  H    0.212278
     3  H    0.232404
     4  H    0.228367
     5  H    0.024563
 Sum of Mulliken charges =  -0.00000

 Dipole moment (field-independent basis, Debye):
    X=              0.0154    Y=             -0.1161    Z=             -0.0340  Tot=              0.1219
 Quadrupole moment (field-independent basis, Debye-Ang):
   XX=             -8.3261   YY=             -9.1267   ZZ=             -9.2365
   XY=              0.7329   XZ=              0.5274   YZ=             -0.6322

 Normal termination of Gaussian 16 at Fri Sep 22 17:14:03 2023.
