 Gaussian 16, Revision A.03,
 Gaussian 16:  ES64L-G16RevA.03 25-Dec-2016

 ----------
 # hf/3-21g
 ----------

 -----------------------
 tmpdir/M1_conf_10_0.gjf
 -----------------------
 Symbolic Z-matrix:
 Charge =  0 Multiplicity = 1

                         Standard orientation:
 ---------------------------------------------------------------------
 Center     Atomic      Atomic             Coordinates (Angstroms)
 Number     Number       Type             X           Y           Z
 ---------------------------------------------------------------------
      1          6           0        0.034033    0.000606   -0.021083
      2          1           0        0.855050    0.757313   -0.154707
      3          1           0        0.319065   -0.587960    0.823434
      4          1           0       -0.178189   -0.653341   -0.760211
      5          1           0       -1.200126    0.480354    0.217980
 ---------------------------------------------------------------------

 SCF Done:  E(RHF) =  -39.9366257945     A.U. after    9 cycles

 The electronic state is 1-A.
 Alpha  occ. eigenvalues --  -11.16891  -0.93770  -0.57929  -0.53597  -0.47867
 Alpha virt. eigenvalues --    0.24824   0.31352   0.34344   0.37105   0.88538
 Alpha virt. eigenvalues --    0.93629   1.04160   1.19992   1.29261   1.35897
 Alpha virt. eigenvalues --    1.42319   1.92615

 Mulliken charges:
               1
     1  C   -0.744231
     2  H    0.197108
     3  H    0.206289
     4  H    0.229510
     5  H    0.111325
 Sum of Mulliken charges =   0.00000

 Dipole moment (field-independent basis, Debye):
    X=              0.1869    Y=             -0.2470    Z=             -0.0317  Tot=              0.3114
 Quadrupole moment (field-independent basis, Debye-Ang):
   XX=             -8.1846   YY=             -8.6139   ZZ=             -8.8437
   XY=              0.2926   XZ=              0.1734   YZ=              0.0376

 Normal termination of Gaussian 16 at Fri Sep 22 17:11:22 2023.
