 Gaussian 16, Revision A.03,
 Gaussian 16:  ES64L-G16RevA.03 25-Dec-2016

 ----------
 # hf/3-21g
 ----------

 ------------------------
 tmpdir/M1_conf_134_0.gjf
 ------------------------
 Symbolic Z-matrix:
 Charge =  0 Multiplicity = 1

                         Standard orientation:
 ---------------------------------------------------------------------
 Center     Atomic      Atomic             Coordinates (Angstroms)
 Number     Number       Type             X           Y           Z
 ---------------------------------------------------------------------
      1          6           0        0.098301    0.018292   -0.039695
      2          1           0        0.222542    1.080963    0.015265
      3          1           0        0.403668   -0.556936    0.866826
      4          1           0        0.138529   -0.592746   -0.805129
      5          1           0       -1.354543   -0.041033    0.161207
 ---------------------------------------------------------------------

 SCF Done:  E(RHF) =  -39.9062008458     A.U. after    9 cycles

 The electronic state is 1-A.
 Alpha  occ. eigenvalues --  -11.18009  -0.93817  -0.61369  -0.54753  -0.42918
 Alpha virt. eigenvalues --    0.21800   0.29810   0.34137   0.38020   0.88773
 Alpha virt. eigenvalues --    0.95480   1.02516   1.19229   1.28377   1.32993
 Alpha virt. eigenvalues --    1.46590   1.91797

 Mulliken charges:
               1
     1  C   -0.720282
     2  H    0.231922
     3  H    0.203491
     4  H    0.249383
     5  H    0.035486
 Sum of Mulliken charges =   0.00000

 Dipole moment (field-independent basis, Debye):
    X=              0.3337    Y=             -0.0350    Z=             -0.0420  Tot=              0.3381
 Quadrupole moment (field-independent basis, Debye-Ang):
   XX=             -9.4283   YY=             -7.9558   ZZ=             -8.6612
   XY=             -0.0331   XZ=              0.1439   YZ=              0.1663

 Normal termination of Gaussian 16 at Fri Sep 22 17:13:59 2023.
