 Gaussian 16, Revision A.03,
 Gaussian 16:  ES64L-G16RevA.03 25-Dec-2016

 ----------
 # hf/3-21g
 ----------

 ------------------------
 tmpdir/M1_conf_110_0.gjf
 ------------------------
 Symbolic Z-matrix:
 Charge =  0 Multiplicity = 1

                         Standard orientation:
 ---------------------------------------------------------------------
 Center     Atomic      Atomic             Coordinates (Angstroms)
 Number     Number       Type             X           Y           Z
 ---------------------------------------------------------------------
      1          6           0        0.038916   -0.004710   -0.005845
      2          1           0        0.948543    0.479762   -0.392672
      3          1           0        0.295370   -0.557502    0.788887
      4          1           0       -0.595407   -0.683233   -0.620087
      5          1           0       -0.882001    0.789236    0.258942
 ---------------------------------------------------------------------

 SCF Done:  E(RHF) =  -39.9481186101     A.U. after    9 cycles

 The electronic state is 1-A.
 Alpha  occ. eigenvalues --  -11.15984  -0.94060  -0.56892  -0.55527  -0.48287
 Alpha virt. eigenvalues --    0.27430   0.30676   0.35524   0.36636   0.87983
 Alpha virt. eigenvalues --    0.96263   1.00261   1.23488   1.29194   1.35244
 Alpha virt. eigenvalues --    1.43152   1.93345

 Mulliken charges:
               1
     1  C   -0.772855
     2  H    0.202431
     3  H    0.226518
     4  H    0.197806
     5  H    0.146100
 Sum of Mulliken charges =   0.00000

 Dipole moment (field-independent basis, Debye):
    X=              0.0128    Y=             -0.1670    Z=              0.0477  Tot=              0.1741
 Quadrupole moment (field-independent basis, Debye-Ang):
   XX=             -7.9047   YY=             -8.6243   ZZ=             -8.9606
   XY=              0.1911   XZ=              0.1008   YZ=             -0.2055

 Normal termination of Gaussian 16 at Fri Sep 22 17:13:25 2023.
