 Gaussian 16, Revision A.03,
 Gaussian 16:  ES64L-G16RevA.03 25-Dec-2016

 ----------
 # hf/3-21g
 ----------

 -----------------------
 tmpdir/M1_conf_56_1.gjf
 -----------------------
 Symbolic Z-matrix:
 Charge =  0 Multiplicity = 1

                         Standard orientation:
 ---------------------------------------------------------------------
 Center     Atomic      Atomic             Coordinates (Angstroms)
 Number     Number       Type             X           Y           Z
 ---------------------------------------------------------------------
      1         17           0        0.000000   -0.000000    0.087922
      2          1           0       -0.000000    0.000000   -1.494678
 ---------------------------------------------------------------------

 SCF Done:  E(RHF) =  -457.842165267     A.U. after    8 cycles

 The electronic state is 1-SG.
 Alpha  occ. eigenvalues -- -104.12810 -10.51823  -7.98183  -7.97789  -7.97789
 Alpha  occ. eigenvalues --   -1.08311  -0.55668  -0.47351  -0.47351
 Alpha virt. eigenvalues --    0.06719   0.70483   0.78600   0.78600   0.85968
 Alpha virt. eigenvalues --    1.08169

 Mulliken charges:
               1
     1  Cl  -0.239706
     2  H    0.239706
 Sum of Mulliken charges =   0.00000

 Dipole moment (field-independent basis, Debye):
    X=             -0.0000    Y=              0.0000    Z=             -1.9971  Tot=              1.9971
 Quadrupole moment (field-independent basis, Debye-Ang):
   XX=            -14.4465   YY=            -14.4465   ZZ=             -9.9867
   XY=             -0.0000   XZ=              0.0000   YZ=             -0.0000

 Normal termination of Gaussian 16 at Fri Sep 22 17:12:16 2023.
