 Gaussian 16, Revision A.03,
 Gaussian 16:  ES64L-G16RevA.03 25-Dec-2016

 ----------
 # hf/3-21g
 ----------

 -----------------------
 tmpdir/M1_conf_29_0.gjf
 -----------------------
 Symbolic Z-matrix:
 Charge =  0 Multiplicity = 1

                         Standard orientation:
 ---------------------------------------------------------------------
 Center     Atomic      Atomic             Coordinates (Angstroms)
 Number     Number       Type             X           Y           Z
 ---------------------------------------------------------------------
      1          6           0        0.021613   -0.025752   -0.039185
      2          1           0       -0.440939    0.935270   -0.434725
      3          1           0        0.607002    0.403227    0.798570
      4          1           0        0.633856   -0.594612   -0.505941
      5          1           0       -0.929594   -0.589371    0.377203
 ---------------------------------------------------------------------

 SCF Done:  E(RHF) =  -39.9457186089     A.U. after    9 cycles

 The electronic state is 1-A.
 Alpha  occ. eigenvalues --  -11.15197  -0.94771  -0.60063  -0.52691  -0.49552
 Alpha virt. eigenvalues --    0.28708   0.31524   0.33691   0.38563   0.88097
 Alpha virt. eigenvalues --    0.95753   0.97619   1.27031   1.29207   1.33662
 Alpha virt. eigenvalues --    1.48225   1.95367

 Mulliken charges:
               1
     1  C   -0.784875
     2  H    0.193446
     3  H    0.188110
     4  H    0.233714
     5  H    0.169604
 Sum of Mulliken charges =   0.00000

 Dipole moment (field-independent basis, Debye):
    X=              0.0785    Y=              0.0736    Z=              0.0558  Tot=              0.1212
 Quadrupole moment (field-independent basis, Debye-Ang):
   XX=             -8.1406   YY=             -8.2336   ZZ=             -8.9777
   XY=             -0.2122   XZ=             -0.1119   YZ=              0.1614

 Normal termination of Gaussian 16 at Fri Sep 22 17:11:44 2023.
