 Gaussian 16, Revision A.03,
 Gaussian 16:  ES64L-G16RevA.03 25-Dec-2016

 ----------
 # hf/3-21g
 ----------

 -----------------------
 tmpdir/M1_conf_64_1.gjf
 -----------------------
 Symbolic Z-matrix:
 Charge =  0 Multiplicity = 1

                         Standard orientation:
 ---------------------------------------------------------------------
 Center     Atomic      Atomic             Coordinates (Angstroms)
 Number     Number       Type             X           Y           Z
 ---------------------------------------------------------------------
      1         17           0       -0.000000   -0.000000    0.091440
      2          1           0        0.000000    0.000000   -1.554477
 ---------------------------------------------------------------------

 SCF Done:  E(RHF) =  -457.832488659     A.U. after    8 cycles

 The electronic state is 1-SG.
 Alpha  occ. eigenvalues -- -104.12955 -10.51865  -7.98218  -7.97838  -7.97838
 Alpha  occ. eigenvalues --   -1.07703  -0.54486  -0.47202  -0.47202
 Alpha virt. eigenvalues --    0.04900   0.70300   0.78702   0.78702   0.86159
 Alpha virt. eigenvalues --    1.09148

 Mulliken charges:
               1
     1  Cl  -0.242321
     2  H    0.242321
 Sum of Mulliken charges =   0.00000

 Dipole moment (field-independent basis, Debye):
    X=              0.0000    Y=              0.0000    Z=             -2.0415  Tot=              2.0415
 Quadrupole moment (field-independent basis, Debye-Ang):
   XX=            -14.5004   YY=            -14.5004   ZZ=             -9.7400
   XY=             -0.0000   XZ=             -0.0000   YZ=              0.0000

 Normal termination of Gaussian 16 at Fri Sep 22 17:12:26 2023.
