 Gaussian 16, Revision A.03,
 Gaussian 16:  ES64L-G16RevA.03 25-Dec-2016

 ----------
 # hf/3-21g
 ----------

 -----------------------
 tmpdir/M1_conf_51_0.gjf
 -----------------------
 Symbolic Z-matrix:
 Charge =  0 Multiplicity = 1

                         Standard orientation:
 ---------------------------------------------------------------------
 Center     Atomic      Atomic             Coordinates (Angstroms)
 Number     Number       Type             X           Y           Z
 ---------------------------------------------------------------------
      1          6           0       -0.042053   -0.015323   -0.009185
      2          1           0        0.227162   -0.785100   -0.624633
      3          1           0       -0.445873   -0.400952    0.798523
      4          1           0       -0.680857    0.805565   -0.345077
      5          1           0        1.151884    0.472425    0.226296
 ---------------------------------------------------------------------

 SCF Done:  E(RHF) =  -39.9374815657     A.U. after    9 cycles

 The electronic state is 1-A.
 Alpha  occ. eigenvalues --  -11.15351  -0.95093  -0.58453  -0.56227  -0.47644
 Alpha virt. eigenvalues --    0.26229   0.31493   0.36559   0.37690   0.86302
 Alpha virt. eigenvalues --    0.93150   1.01481   1.21088   1.31646   1.42012
 Alpha virt. eigenvalues --    1.45164   1.94149

 Mulliken charges:
               1
     1  C   -0.763058
     2  H    0.222125
     3  H    0.226485
     4  H    0.201288
     5  H    0.113160
 Sum of Mulliken charges =  -0.00000

 Dipole moment (field-independent basis, Debye):
    X=             -0.1705    Y=             -0.1714    Z=             -0.0055  Tot=              0.2418
 Quadrupole moment (field-independent basis, Debye-Ang):
   XX=             -8.2907   YY=             -8.2831   ZZ=             -8.7937
   XY=             -0.2661   XZ=             -0.2383   YZ=             -0.0598

 Normal termination of Gaussian 16 at Fri Sep 22 17:12:10 2023.
