 Gaussian 16, Revision A.03,
 Gaussian 16:  ES64L-G16RevA.03 25-Dec-2016

 ----------
 # hf/3-21g
 ----------

 ------------------------
 tmpdir/M1_conf_193_1.gjf
 ------------------------
 Symbolic Z-matrix:
 Charge =  0 Multiplicity = 1

                         Standard orientation:
 ---------------------------------------------------------------------
 Center     Atomic      Atomic             Coordinates (Angstroms)
 Number     Number       Type             X           Y           Z
 ---------------------------------------------------------------------
      1         17           0        0.000000    0.000000    0.122550
      2          1           0       -0.000000   -0.000000   -2.083343
 ---------------------------------------------------------------------

 SCF Done:  E(RHF) =  -457.739992492     A.U. after    9 cycles

 The electronic state is 1-SG.
 Alpha  occ. eigenvalues -- -104.12558 -10.51111  -7.97439  -7.97125  -7.97125
 Alpha  occ. eigenvalues --   -1.04413  -0.45784  -0.45759  -0.45759
 Alpha virt. eigenvalues --   -0.06563   0.68999   0.79936   0.79936   0.86238
 Alpha virt. eigenvalues --    1.10414

 Mulliken charges:
               1
     1  Cl  -0.258686
     2  H    0.258686
 Sum of Mulliken charges =   0.00000

 Dipole moment (field-independent basis, Debye):
    X=             -0.0000    Y=             -0.0000    Z=             -2.6880  Tot=              2.6880
 Quadrupole moment (field-independent basis, Debye-Ang):
   XX=            -14.7435   YY=            -14.7435   ZZ=             -6.8144
   XY=             -0.0000   XZ=              0.0000   YZ=              0.0000

 Normal termination of Gaussian 16 at Fri Sep 22 17:15:09 2023.
