 Gaussian 16, Revision A.03,
 Gaussian 16:  ES64L-G16RevA.03 25-Dec-2016

 ----------
 # hf/3-21g
 ----------

 ------------------------
 tmpdir/M1_conf_160_0.gjf
 ------------------------
 Symbolic Z-matrix:
 Charge =  0 Multiplicity = 1

                         Standard orientation:
 ---------------------------------------------------------------------
 Center     Atomic      Atomic             Coordinates (Angstroms)
 Number     Number       Type             X           Y           Z
 ---------------------------------------------------------------------
      1          6           0       -0.128666   -0.062665   -0.052407
      2          1           0        0.320582   -0.535685   -0.786332
      3          1           0       -0.186571   -0.522287    0.931000
      4          1           0       -0.648043    0.940093   -0.086341
      5          1           0        1.286030    0.493869    0.256115
 ---------------------------------------------------------------------

 SCF Done:  E(RHF) =  -39.8771594963     A.U. after   10 cycles

 The electronic state is 1-A.
 Alpha  occ. eigenvalues --  -11.19265  -0.93697  -0.61503  -0.55844  -0.39969
 Alpha virt. eigenvalues --    0.18486   0.28646   0.33921   0.37610   0.90128
 Alpha virt. eigenvalues --    0.94705   1.02771   1.19223   1.26084   1.32975
 Alpha virt. eigenvalues --    1.44541   1.89332

 Mulliken charges:
               1
     1  C   -0.701420
     2  H    0.260596
     3  H    0.230407
     4  H    0.226025
     5  H   -0.015607
 Sum of Mulliken charges =  -0.00000

 Dipole moment (field-independent basis, Debye):
    X=             -0.2663    Y=             -0.1300    Z=             -0.0291  Tot=              0.2978
 Quadrupole moment (field-independent basis, Debye-Ang):
   XX=             -9.5008   YY=             -8.6110   ZZ=             -8.4627
   XY=             -0.8653   XZ=             -0.5081   YZ=             -0.0620

 Normal termination of Gaussian 16 at Fri Sep 22 17:14:30 2023.
