 Gaussian 16, Revision A.03,
 Gaussian 16:  ES64L-G16RevA.03 25-Dec-2016

 ----------
 # hf/3-21g
 ----------

 ----------------------
 tmpdir/M1_conf_5_0.gjf
 ----------------------
 Symbolic Z-matrix:
 Charge =  0 Multiplicity = 1

                         Standard orientation:
 ---------------------------------------------------------------------
 Center     Atomic      Atomic             Coordinates (Angstroms)
 Number     Number       Type             X           Y           Z
 ---------------------------------------------------------------------
      1          6           0        0.048932   -0.031052   -0.052090
      2          1           0        0.912630    0.278348   -0.529309
      3          1           0        0.393478   -0.250732    0.985526
      4          1           0       -0.789554   -0.858842   -0.282954
      5          1           0       -0.810147    1.017540    0.139275
 ---------------------------------------------------------------------

 SCF Done:  E(RHF) =  -39.9188227279     A.U. after    9 cycles

 The electronic state is 1-A.
 Alpha  occ. eigenvalues --  -11.18883  -0.92141  -0.58671  -0.51528  -0.45643
 Alpha virt. eigenvalues --    0.24506   0.27430   0.32678   0.36721   0.90407
 Alpha virt. eigenvalues --    1.01977   1.02922   1.19764   1.23549   1.31262
 Alpha virt. eigenvalues --    1.38537   1.90912

 Mulliken charges:
               1
     1  C   -0.732121
     2  H    0.234583
     3  H    0.196641
     4  H    0.201232
     5  H    0.099665
 Sum of Mulliken charges =   0.00000

 Dipole moment (field-independent basis, Debye):
    X=              0.1456    Y=             -0.1644    Z=              0.1325  Tot=              0.2565
 Quadrupole moment (field-independent basis, Debye-Ang):
   XX=             -7.9788   YY=             -8.9440   ZZ=             -9.1288
   XY=              0.4645   XZ=             -0.0910   YZ=             -0.1126

 Normal termination of Gaussian 16 at Fri Sep 22 17:11:16 2023.
