 Gaussian 16, Revision A.03,
 Gaussian 16:  ES64L-G16RevA.03 25-Dec-2016

 ----------
 # hf/3-21g
 ----------

 ------------------------
 tmpdir/M1_conf_290_1.gjf
 ------------------------
 Symbolic Z-matrix:
 Charge =  0 Multiplicity = 1

                         Standard orientation:
 ---------------------------------------------------------------------
 Center     Atomic      Atomic             Coordinates (Angstroms)
 Number     Number       Type             X           Y           Z
 ---------------------------------------------------------------------
      1         17           0       -0.000000    0.000000    0.163850
      2          1           0        0.000000   -0.000000   -2.785442
 ---------------------------------------------------------------------

 SCF Done:  E(RHF) =  -457.646998588     A.U. after   10 cycles

 The electronic state is 1-SG.
 Alpha  occ. eigenvalues -- -104.10594 -10.49236  -7.95566  -7.95261  -7.95261
 Alpha  occ. eigenvalues --   -1.02337  -0.44153  -0.44153  -0.38872
 Alpha virt. eigenvalues --   -0.14481   0.67997   0.81450   0.81450   0.81512
 Alpha virt. eigenvalues --    1.08715

 Mulliken charges:
               1
     1  Cl  -0.280866
     2  H    0.280866
 Sum of Mulliken charges =   0.00000

 Dipole moment (field-independent basis, Debye):
    X=              0.0000    Y=             -0.0000    Z=             -3.8869  Tot=              3.8869
 Quadrupole moment (field-independent basis, Debye-Ang):
   XX=            -14.8138   YY=            -14.8138   ZZ=             -1.9084
   XY=              0.0000   XZ=             -0.0000   YZ=              0.0000

 Normal termination of Gaussian 16 at Fri Sep 22 17:17:04 2023.
