 Gaussian 16, Revision A.03,
 Gaussian 16:  ES64L-G16RevA.03 25-Dec-2016

 ----------
 # hf/3-21g
 ----------

 -----------------------
 tmpdir/M1_conf_24_0.gjf
 -----------------------
 Symbolic Z-matrix:
 Charge =  0 Multiplicity = 1

                         Standard orientation:
 ---------------------------------------------------------------------
 Center     Atomic      Atomic             Coordinates (Angstroms)
 Number     Number       Type             X           Y           Z
 ---------------------------------------------------------------------
      1          6           0        0.017625   -0.035750    0.031215
      2          1           0       -0.655552    0.024221    0.795380
      3          1           0       -0.255491   -0.911441   -0.544293
      4          1           0        1.229006    0.153450    0.116961
      5          1           0       -0.423716    0.948269   -0.555336
 ---------------------------------------------------------------------

 SCF Done:  E(RHF) =  -39.9393095912     A.U. after    9 cycles

 The electronic state is 1-A.
 Alpha  occ. eigenvalues --  -11.17118  -0.93362  -0.56647  -0.53883  -0.47961
 Alpha virt. eigenvalues --    0.26796   0.29194   0.34310   0.36492   0.89248
 Alpha virt. eigenvalues --    0.96770   1.03355   1.21479   1.24745   1.34743
 Alpha virt. eigenvalues --    1.41934   1.92988

 Mulliken charges:
               1
     1  C   -0.762153
     2  H    0.231797
     3  H    0.207540
     4  H    0.178721
     5  H    0.144094
 Sum of Mulliken charges =  -0.00000

 Dipole moment (field-independent basis, Debye):
    X=             -0.1576    Y=             -0.0147    Z=              0.0277  Tot=              0.1607
 Quadrupole moment (field-independent basis, Debye-Ang):
   XX=             -7.9226   YY=             -8.6571   ZZ=             -9.1192
   XY=              0.1159   XZ=             -0.2003   YZ=              0.2341

 Normal termination of Gaussian 16 at Fri Sep 22 17:11:38 2023.
