 Gaussian 16, Revision A.03,
 Gaussian 16:  ES64L-G16RevA.03 25-Dec-2016

 ----------
 # hf/3-21g
 ----------

 ------------------------
 tmpdir/M1_conf_165_0.gjf
 ------------------------
 Symbolic Z-matrix:
 Charge =  0 Multiplicity = 1

                         Standard orientation:
 ---------------------------------------------------------------------
 Center     Atomic      Atomic             Coordinates (Angstroms)
 Number     Number       Type             X           Y           Z
 ---------------------------------------------------------------------
      1          6           0        0.203965   -0.040722    0.051123
      2          1           0       -0.062475   -0.776078   -0.813797
      3          1           0        0.499884    0.934278   -0.119445
      4          1           0       -0.415784   -0.432007    0.875758
      5          1           0       -1.245417    0.518141   -0.249256
 ---------------------------------------------------------------------

 SCF Done:  E(RHF) =  -39.8417247927     A.U. after   11 cycles

 The electronic state is 1-A.
 Alpha  occ. eigenvalues --  -11.20731  -0.93504  -0.61795  -0.53453  -0.38539
 Alpha virt. eigenvalues --    0.15455   0.27058   0.31924   0.36534   0.93078
 Alpha virt. eigenvalues --    0.95657   1.03472   1.17392   1.26687   1.31384
 Alpha virt. eigenvalues --    1.38540   1.90566

 Mulliken charges:
               1
     1  C   -0.707458
     2  H    0.222922
     3  H    0.266024
     4  H    0.254692
     5  H   -0.036180
 Sum of Mulliken charges =   0.00000

 Dipole moment (field-independent basis, Debye):
    X=             -0.1723    Y=             -0.0067    Z=             -0.0395  Tot=              0.1769
 Quadrupole moment (field-independent basis, Debye-Ang):
   XX=             -9.9844   YY=             -8.4205   ZZ=             -8.9709
   XY=              1.1317   XZ=             -0.5622   YZ=              0.1033

 Normal termination of Gaussian 16 at Fri Sep 22 17:14:36 2023.
