 Gaussian 16, Revision A.03,
 Gaussian 16:  ES64L-G16RevA.03 25-Dec-2016

 ----------
 # hf/3-21g
 ----------

 ------------------------
 tmpdir/M1_conf_148_1.gjf
 ------------------------
 Symbolic Z-matrix:
 Charge =  0 Multiplicity = 1

                         Standard orientation:
 ---------------------------------------------------------------------
 Center     Atomic      Atomic             Coordinates (Angstroms)
 Number     Number       Type             X           Y           Z
 ---------------------------------------------------------------------
      1         17           0       -0.000000    0.000000    0.098522
      2          1           0        0.000000    0.000000   -1.674872
 ---------------------------------------------------------------------

 SCF Done:  E(RHF) =  -457.811668981     A.U. after    8 cycles

 The electronic state is 1-SG.
 Alpha  occ. eigenvalues -- -104.13099 -10.51847  -7.98191  -7.97834  -7.97834
 Alpha  occ. eigenvalues --   -1.06680  -0.52213  -0.46882  -0.46882
 Alpha virt. eigenvalues --    0.01620   0.69958   0.78946   0.78946   0.86244
 Alpha virt. eigenvalues --    1.10652

 Mulliken charges:
               1
     1  Cl  -0.246107
     2  H    0.246107
 Sum of Mulliken charges =   0.00000

 Dipole moment (field-independent basis, Debye):
    X=              0.0000    Y=             -0.0000    Z=             -2.1501  Tot=              2.1501
 Quadrupole moment (field-independent basis, Debye-Ang):
   XX=            -14.5884   YY=            -14.5884   ZZ=             -9.1805
   XY=              0.0000   XZ=             -0.0000   YZ=             -0.0000

 Normal termination of Gaussian 16 at Fri Sep 22 17:14:15 2023.
