 Gaussian 16, Revision A.03,
 Gaussian 16:  ES64L-G16RevA.03 25-Dec-2016

 ----------
 # hf/3-21g
 ----------

 ------------------------
 tmpdir/M1_conf_212_0.gjf
 ------------------------
 Symbolic Z-matrix:
 Charge =  0 Multiplicity = 1

                         Standard orientation:
 ---------------------------------------------------------------------
 Center     Atomic      Atomic             Coordinates (Angstroms)
 Number     Number       Type             X           Y           Z
 ---------------------------------------------------------------------
      1          6           0       -0.272966   -0.052652   -0.031522
      2          1           0       -0.093259    1.003440   -0.375095
      3          1           0        0.269957   -0.757821   -0.516385
      4          1           0       -0.239300   -0.047639    0.920078
      5          1           0        1.700395    0.117929    0.160533
 ---------------------------------------------------------------------

 SCF Done:  E(RHF) =  -39.7616362797     A.U. after   12 cycles

 The electronic state is 1-A.
 Alpha  occ. eigenvalues --  -11.21096  -0.96884  -0.63533  -0.57965  -0.33917
 Alpha virt. eigenvalues --    0.05891   0.29499   0.34501   0.37255   0.84558
 Alpha virt. eigenvalues --    0.90377   1.03075   1.23982   1.28298   1.35427
 Alpha virt. eigenvalues --    1.45104   1.81330

 Mulliken charges:
               1
     1  C   -0.623728
     2  H    0.233589
     3  H    0.270648
     4  H    0.263844
     5  H   -0.144353
 Sum of Mulliken charges =  -0.00000

 Dipole moment (field-independent basis, Debye):
    X=             -0.6710    Y=              0.0370    Z=              0.0730  Tot=              0.6759
 Quadrupole moment (field-independent basis, Debye-Ang):
   XX=            -11.1815   YY=             -8.3849   ZZ=             -8.7575
   XY=             -0.4422   XZ=             -0.6753   YZ=              0.0573

 Normal termination of Gaussian 16 at Fri Sep 22 17:15:32 2023.
