 Gaussian 16, Revision A.03,
 Gaussian 16:  ES64L-G16RevA.03 25-Dec-2016

 ----------
 # hf/3-21g
 ----------

 ------------------------
 tmpdir/M1_conf_257_0.gjf
 ------------------------
 Symbolic Z-matrix:
 Charge =  0 Multiplicity = 1

                         Standard orientation:
 ---------------------------------------------------------------------
 Center     Atomic      Atomic             Coordinates (Angstroms)
 Number     Number       Type             X           Y           Z
 ---------------------------------------------------------------------
      1          6           0       -0.305247   -0.033141    0.099370
      2          1           0       -0.421085   -0.921779   -0.470702
      3          1           0        0.678416    0.093761    0.687518
      4          1           0       -0.516249    1.020087   -0.466862
      5          1           0        2.090402    0.006777   -0.346177
 ---------------------------------------------------------------------

 SCF Done:  E(RHF) =  -39.7142812662     A.U. after   12 cycles

 The electronic state is 1-A.
 Alpha  occ. eigenvalues --  -11.26255  -0.93233  -0.61361  -0.56070  -0.30069
 Alpha virt. eigenvalues --    0.00625   0.25142   0.30748   0.33796   0.90717
 Alpha virt. eigenvalues --    0.95376   0.98943   1.13401   1.25132   1.26105
 Alpha virt. eigenvalues --    1.32485   1.69749

 Mulliken charges:
               1
     1  C   -0.525667
     2  H    0.252957
     3  H    0.265674
     4  H    0.213142
     5  H   -0.206107
 Sum of Mulliken charges =   0.00000

 Dipole moment (field-independent basis, Debye):
    X=             -1.7395    Y=              0.0111    Z=             -0.2061  Tot=              1.7517
 Quadrupole moment (field-independent basis, Debye-Ang):
   XX=            -12.6799   YY=             -8.4863   ZZ=             -9.8956
   XY=              0.0850   XZ=              1.4836   YZ=              0.1389

 Normal termination of Gaussian 16 at Fri Sep 22 17:16:25 2023.
