 Gaussian 16, Revision A.03,
 Gaussian 16:  ES64L-G16RevA.03 25-Dec-2016

 ----------
 # hf/3-21g
 ----------

 -----------------------
 tmpdir/M1_conf_39_0.gjf
 -----------------------
 Symbolic Z-matrix:
 Charge =  0 Multiplicity = 1

                         Standard orientation:
 ---------------------------------------------------------------------
 Center     Atomic      Atomic             Coordinates (Angstroms)
 Number     Number       Type             X           Y           Z
 ---------------------------------------------------------------------
      1          6           0        0.009842    0.026755   -0.007516
      2          1           0        1.023466    0.024672   -0.497042
      3          1           0       -0.632196    0.906334   -0.023123
      4          1           0        0.296687   -0.257966    0.878404
      5          1           0       -0.747009   -0.833570   -0.313142
 ---------------------------------------------------------------------

 SCF Done:  E(RHF) =  -39.9473082530     A.U. after    9 cycles

 The electronic state is 1-A.
 Alpha  occ. eigenvalues --  -11.14990  -0.95032  -0.58447  -0.53271  -0.50340
 Alpha virt. eigenvalues --    0.28011   0.32393   0.34793   0.37479   0.86924
 Alpha virt. eigenvalues --    0.94619   1.00548   1.26471   1.29932   1.35100
 Alpha virt. eigenvalues --    1.47769   1.94040

 Mulliken charges:
               1
     1  C   -0.793001
     2  H    0.190009
     3  H    0.204820
     4  H    0.235050
     5  H    0.163122
 Sum of Mulliken charges =   0.00000

 Dipole moment (field-independent basis, Debye):
    X=              0.0448    Y=             -0.0374    Z=              0.2418  Tot=              0.2488
 Quadrupole moment (field-independent basis, Debye-Ang):
   XX=             -7.7984   YY=             -8.5356   ZZ=             -8.9656
   XY=             -0.1900   XZ=              0.0572   YZ=             -0.1293

 Normal termination of Gaussian 16 at Fri Sep 22 17:11:56 2023.
