 Gaussian 16, Revision A.03,
 Gaussian 16:  ES64L-G16RevA.03 25-Dec-2016

 ----------
 # hf/3-21g
 ----------

 -----------------------
 tmpdir/M1_conf_34_1.gjf
 -----------------------
 Symbolic Z-matrix:
 Charge =  0 Multiplicity = 1

                         Standard orientation:
 ---------------------------------------------------------------------
 Center     Atomic      Atomic             Coordinates (Angstroms)
 Number     Number       Type             X           Y           Z
 ---------------------------------------------------------------------
      1         17           0        0.000000   -0.000000    0.075374
      2          1           0        0.000000    0.000000   -1.281358
 ---------------------------------------------------------------------

 SCF Done:  E(RHF) =  -457.867524909     A.U. after    8 cycles

 The electronic state is 1-SG.
 Alpha  occ. eigenvalues -- -104.11919 -10.51416  -7.97810  -7.97351  -7.97351
 Alpha  occ. eigenvalues --   -1.11316  -0.60065  -0.47803  -0.47803
 Alpha virt. eigenvalues --    0.14255   0.71022   0.78351   0.78351   0.81228
 Alpha virt. eigenvalues --    1.08277

 Mulliken charges:
               1
     1  Cl  -0.219998
     2  H    0.219998
 Sum of Mulliken charges =  -0.00000

 Dipole moment (field-independent basis, Debye):
    X=             -0.0000    Y=              0.0000    Z=             -1.8813  Tot=              1.8813
 Quadrupole moment (field-independent basis, Debye-Ang):
   XX=            -14.1973   YY=            -14.1973   ZZ=            -10.6776
   XY=             -0.0000   XZ=              0.0000   YZ=             -0.0000

 Normal termination of Gaussian 16 at Fri Sep 22 17:11:50 2023.
