 Gaussian 16, Revision A.03,
 Gaussian 16:  ES64L-G16RevA.03 25-Dec-2016

 ----------
 # hf/3-21g
 ----------

 ------------------------
 tmpdir/M1_conf_225_0.gjf
 ------------------------
 Symbolic Z-matrix:
 Charge =  0 Multiplicity = 1

                         Standard orientation:
 ---------------------------------------------------------------------
 Center     Atomic      Atomic             Coordinates (Angstroms)
 Number     Number       Type             X           Y           Z
 ---------------------------------------------------------------------
      1          6           0       -0.231659   -0.047126    0.092907
      2          1           0       -0.316753   -0.736782   -0.678380
      3          1           0        0.600412   -0.200110    0.745483
      4          1           0       -0.638087    0.968014   -0.233415
      5          1           0        1.744383    0.251633   -0.391129
 ---------------------------------------------------------------------

 SCF Done:  E(RHF) =  -39.7733370321     A.U. after   12 cycles

 The electronic state is 1-A.
 Alpha  occ. eigenvalues --  -11.23209  -0.94294  -0.61600  -0.58546  -0.32642
 Alpha virt. eigenvalues --    0.06077   0.27365   0.33553   0.35165   0.87815
 Alpha virt. eigenvalues --    0.95063   1.02096   1.16804   1.26786   1.31978
 Alpha virt. eigenvalues --    1.36612   1.72933

 Mulliken charges:
               1
     1  C   -0.587505
     2  H    0.247884
     3  H    0.280779
     4  H    0.231950
     5  H   -0.173109
 Sum of Mulliken charges =   0.00000

 Dipole moment (field-independent basis, Debye):
    X=             -1.1398    Y=             -0.1389    Z=              0.0300  Tot=              1.1486
 Quadrupole moment (field-independent basis, Debye-Ang):
   XX=            -10.8650   YY=             -8.7404   ZZ=             -9.3593
   XY=             -0.8752   XZ=              1.5769   YZ=              0.2060

 Normal termination of Gaussian 16 at Fri Sep 22 17:15:47 2023.
