 Gaussian 16, Revision A.03,
 Gaussian 16:  ES64L-G16RevA.03 25-Dec-2016

 ----------
 # hf/3-21g
 ----------

 ------------------------
 tmpdir/M1_conf_171_1.gjf
 ------------------------
 Symbolic Z-matrix:
 Charge =  0 Multiplicity = 1

                         Standard orientation:
 ---------------------------------------------------------------------
 Center     Atomic      Atomic             Coordinates (Angstroms)
 Number     Number       Type             X           Y           Z
 ---------------------------------------------------------------------
      1         17           0        0.000000   -0.000000    0.105566
      2          1           0       -0.000000    0.000000   -1.794624
 ---------------------------------------------------------------------

 SCF Done:  E(RHF) =  -457.790225618     A.U. after    8 cycles

 The electronic state is 1-SG.
 Alpha  occ. eigenvalues -- -104.13071 -10.51715  -7.98052  -7.97713  -7.97713
 Alpha  occ. eigenvalues --   -1.05862  -0.50116  -0.46549  -0.46549
 Alpha virt. eigenvalues --   -0.01195   0.69656   0.79223   0.79223   0.86365
 Alpha virt. eigenvalues --    1.11131

 Mulliken charges:
               1
     1  Cl  -0.249358
     2  H    0.249358
 Sum of Mulliken charges =  -0.00000

 Dipole moment (field-independent basis, Debye):
    X=             -0.0000    Y=              0.0000    Z=             -2.2834  Tot=              2.2834
 Quadrupole moment (field-independent basis, Debye-Ang):
   XX=            -14.6527   YY=            -14.6527   ZZ=             -8.5512
   XY=             -0.0000   XZ=              0.0000   YZ=             -0.0000

 Normal termination of Gaussian 16 at Fri Sep 22 17:14:43 2023.
