 Gaussian 16, Revision A.03,
 Gaussian 16:  ES64L-G16RevA.03 25-Dec-2016

 ----------
 # hf/3-21g
 ----------

 -----------------------
 tmpdir/M1_conf_58_0.gjf
 -----------------------
 Symbolic Z-matrix:
 Charge =  0 Multiplicity = 1

                         Standard orientation:
 ---------------------------------------------------------------------
 Center     Atomic      Atomic             Coordinates (Angstroms)
 Number     Number       Type             X           Y           Z
 ---------------------------------------------------------------------
      1          6           0       -0.045743    0.023518   -0.015663
      2          1           0       -0.096942   -0.870309    0.711790
      3          1           0       -0.283484    1.090994    0.333167
      4          1           0       -0.649858   -0.359877   -0.716226
      5          1           0        1.304739   -0.001919   -0.234755
 ---------------------------------------------------------------------

 SCF Done:  E(RHF) =  -39.9201737349     A.U. after    9 cycles

 The electronic state is 1-A.
 Alpha  occ. eigenvalues --  -11.18303  -0.92800  -0.57482  -0.53443  -0.45825
 Alpha virt. eigenvalues --    0.24220   0.28548   0.33799   0.36595   0.89095
 Alpha virt. eigenvalues --    0.99496   1.03622   1.19121   1.25246   1.29887
 Alpha virt. eigenvalues --    1.42712   1.89839

 Mulliken charges:
               1
     1  C   -0.724106
     2  H    0.184170
     3  H    0.198661
     4  H    0.231068
     5  H    0.110207
 Sum of Mulliken charges =   0.00000

 Dipole moment (field-independent basis, Debye):
    X=             -0.2399    Y=             -0.1177    Z=              0.0390  Tot=              0.2701
 Quadrupole moment (field-independent basis, Debye-Ang):
   XX=             -8.5205   YY=             -8.0701   ZZ=             -9.3174
   XY=              0.0465   XZ=              0.2807   YZ=              0.1588

 Normal termination of Gaussian 16 at Fri Sep 22 17:12:18 2023.
