 Gaussian 16, Revision A.03,
 Gaussian 16:  ES64L-G16RevA.03 25-Dec-2016

 ----------
 # hf/3-21g
 ----------

 ------------------------
 tmpdir/M1_conf_103_0.gjf
 ------------------------
 Symbolic Z-matrix:
 Charge =  0 Multiplicity = 1

                         Standard orientation:
 ---------------------------------------------------------------------
 Center     Atomic      Atomic             Coordinates (Angstroms)
 Number     Number       Type             X           Y           Z
 ---------------------------------------------------------------------
      1          6           0        0.003679    0.010570    0.012336
      2          1           0       -0.627370   -0.022197    0.758513
      3          1           0        0.168740    1.021757   -0.287767
      4          1           0       -0.625112   -0.558437   -0.653619
      5          1           0        1.061666   -0.504543    0.108856
 ---------------------------------------------------------------------

 SCF Done:  E(RHF) =  -39.9516680995     A.U. after    9 cycles

 The electronic state is 1-A.
 Alpha  occ. eigenvalues --  -11.14151  -0.95676  -0.58413  -0.54089  -0.51029
 Alpha virt. eigenvalues --    0.28935   0.32786   0.35838   0.37601   0.87018
 Alpha virt. eigenvalues --    0.92715   0.98645   1.26323   1.34288   1.37045
 Alpha virt. eigenvalues --    1.48427   1.94101

 Mulliken charges:
               1
     1  C   -0.797409
     2  H    0.227622
     3  H    0.203113
     4  H    0.194171
     5  H    0.172502
 Sum of Mulliken charges =  -0.00000

 Dipole moment (field-independent basis, Debye):
    X=             -0.1835    Y=              0.0060    Z=              0.0252  Tot=              0.1853
 Quadrupole moment (field-independent basis, Debye-Ang):
   XX=             -7.8781   YY=             -8.2933   ZZ=             -8.9585
   XY=              0.0981   XZ=             -0.1529   YZ=             -0.0339

 Normal termination of Gaussian 16 at Fri Sep 22 17:13:17 2023.
