 Gaussian 16, Revision A.03,
 Gaussian 16:  ES64L-G16RevA.03 25-Dec-2016

 ----------
 # hf/3-21g
 ----------

 ------------------------
 tmpdir/M1_conf_266_0.gjf
 ------------------------
 Symbolic Z-matrix:
 Charge =  0 Multiplicity = 1

                         Standard orientation:
 ---------------------------------------------------------------------
 Center     Atomic      Atomic             Coordinates (Angstroms)
 Number     Number       Type             X           Y           Z
 ---------------------------------------------------------------------
      1          6           0        0.349921   -0.045835   -0.099448
      2          1           0        0.432885   -0.406806    0.826437
      3          1           0       -0.599434   -0.515951   -0.475032
      4          1           0        0.184761    1.085605    0.037235
      5          1           0       -2.117739    0.112160    0.208047
 ---------------------------------------------------------------------

 SCF Done:  E(RHF) =  -39.6912984160     A.U. after   13 cycles

 The electronic state is 1-A.
 Alpha  occ. eigenvalues --  -11.23953  -0.96118  -0.59310  -0.57455  -0.30981
 Alpha virt. eigenvalues --   -0.01757   0.28060   0.33172   0.34474   0.85626
 Alpha virt. eigenvalues --    0.92761   0.99363   1.19168   1.27890   1.31030
 Alpha virt. eigenvalues --    1.38244   1.77957

 Mulliken charges:
               1
     1  C   -0.559486
     2  H    0.247179
     3  H    0.245035
     4  H    0.224069
     5  H   -0.156797
 Sum of Mulliken charges =   0.00000

 Dipole moment (field-independent basis, Debye):
    X=              1.1539    Y=              0.1316    Z=              0.6070  Tot=              1.3105
 Quadrupole moment (field-independent basis, Debye-Ang):
   XX=            -11.7914   YY=             -8.8357   ZZ=             -9.7484
   XY=              0.3855   XZ=              0.8681   YZ=             -0.1035

 Normal termination of Gaussian 16 at Fri Sep 22 17:16:36 2023.
