 Gaussian 16, Revision A.03,
 Gaussian 16:  ES64L-G16RevA.03 25-Dec-2016

 ----------
 # hf/3-21g
 ----------

 ------------------------
 tmpdir/M1_conf_156_1.gjf
 ------------------------
 Symbolic Z-matrix:
 Charge =  0 Multiplicity = 1

                         Standard orientation:
 ---------------------------------------------------------------------
 Center     Atomic      Atomic             Coordinates (Angstroms)
 Number     Number       Type             X           Y           Z
 ---------------------------------------------------------------------
      1         17           0        0.000000    0.000000    0.099997
      2          1           0        0.000000   -0.000000   -1.699951
 ---------------------------------------------------------------------

 SCF Done:  E(RHF) =  -457.807205683     A.U. after    8 cycles

 The electronic state is 1-SG.
 Alpha  occ. eigenvalues -- -104.13106 -10.51827  -7.98170  -7.97818  -7.97818
 Alpha  occ. eigenvalues --   -1.06494  -0.51760  -0.46813  -0.46813
 Alpha virt. eigenvalues --    0.00996   0.69892   0.79001   0.79001   0.86261
 Alpha virt. eigenvalues --    1.10834

 Mulliken charges:
               1
     1  Cl  -0.246790
     2  H    0.246790
 Sum of Mulliken charges =  -0.00000

 Dipole moment (field-independent basis, Debye):
    X=             -0.0000    Y=             -0.0000    Z=             -2.1760  Tot=              2.1760
 Quadrupole moment (field-independent basis, Debye-Ang):
   XX=            -14.6036   YY=            -14.6036   ZZ=             -9.0542
   XY=              0.0000   XZ=             -0.0000   YZ=              0.0000

 Normal termination of Gaussian 16 at Fri Sep 22 17:14:25 2023.
