 Gaussian 16, Revision A.03,
 Gaussian 16:  ES64L-G16RevA.03 25-Dec-2016

 ----------
 # hf/3-21g
 ----------

 -----------------------
 tmpdir/M1_conf_14_0.gjf
 -----------------------
 Symbolic Z-matrix:
 Charge =  0 Multiplicity = 1

                         Standard orientation:
 ---------------------------------------------------------------------
 Center     Atomic      Atomic             Coordinates (Angstroms)
 Number     Number       Type             X           Y           Z
 ---------------------------------------------------------------------
      1          6           0       -0.016125    0.056285    0.016439
      2          1           0       -0.595940    0.093610    0.867455
      3          1           0        0.212243    0.942798   -0.515197
      4          1           0       -0.648182   -0.794680   -0.639786
      5          1           0        1.128628   -0.579437    0.188894
 ---------------------------------------------------------------------

 SCF Done:  E(RHF) =  -39.9315815310     A.U. after    9 cycles

 The electronic state is 1-A.
 Alpha  occ. eigenvalues --  -11.18224  -0.92523  -0.58956  -0.51606  -0.47055
 Alpha virt. eigenvalues --    0.25592   0.28164   0.33490   0.36959   0.91000
 Alpha virt. eigenvalues --    0.95350   1.04001   1.19461   1.23451   1.32790
 Alpha virt. eigenvalues --    1.41053   1.91710

 Mulliken charges:
               1
     1  C   -0.720915
     2  H    0.227666
     3  H    0.220031
     4  H    0.148173
     5  H    0.125046
 Sum of Mulliken charges =  -0.00000

 Dipole moment (field-independent basis, Debye):
    X=             -0.1416    Y=              0.0966    Z=              0.0306  Tot=              0.1742
 Quadrupole moment (field-independent basis, Debye-Ang):
   XX=             -8.5592   YY=             -8.4793   ZZ=             -8.8715
   XY=              0.1279   XZ=             -0.3538   YZ=             -0.1809

 Normal termination of Gaussian 16 at Fri Sep 22 17:11:27 2023.
