 Gaussian 16, Revision A.03,
 Gaussian 16:  ES64L-G16RevA.03 25-Dec-2016

 ----------
 # hf/3-21g
 ----------

 -----------------------
 tmpdir/M1_conf_33_0.gjf
 -----------------------
 Symbolic Z-matrix:
 Charge =  0 Multiplicity = 1

                         Standard orientation:
 ---------------------------------------------------------------------
 Center     Atomic      Atomic             Coordinates (Angstroms)
 Number     Number       Type             X           Y           Z
 ---------------------------------------------------------------------
      1          6           0       -0.018776    0.016810   -0.001478
      2          1           0        0.247152    0.905440   -0.450244
      3          1           0       -0.032609    0.109071    1.020166
      4          1           0        0.936351   -0.697032   -0.221884
      5          1           0       -1.038241   -0.418337   -0.339170
 ---------------------------------------------------------------------

 SCF Done:  E(RHF) =  -39.9572806169     A.U. after    9 cycles

 The electronic state is 1-A.
 Alpha  occ. eigenvalues --  -11.15584  -0.94245  -0.57113  -0.53839  -0.50603
 Alpha virt. eigenvalues --    0.27800   0.32224   0.34710   0.37143   0.88627
 Alpha virt. eigenvalues --    0.92816   1.00499   1.24661   1.28430   1.39683
 Alpha virt. eigenvalues --    1.41221   1.94690

 Mulliken charges:
               1
     1  C   -0.772765
     2  H    0.218334
     3  H    0.219184
     4  H    0.154028
     5  H    0.181219
 Sum of Mulliken charges =  -0.00000

 Dipole moment (field-independent basis, Debye):
    X=              0.0177    Y=              0.1312    Z=              0.1097  Tot=              0.1719
 Quadrupole moment (field-independent basis, Debye-Ang):
   XX=             -8.1665   YY=             -8.6480   ZZ=             -8.5825
   XY=              0.1723   XZ=              0.0004   YZ=             -0.1047

 Normal termination of Gaussian 16 at Fri Sep 22 17:11:49 2023.
