 Gaussian 16, Revision A.03,
 Gaussian 16:  ES64L-G16RevA.03 25-Dec-2016

 ----------
 # hf/3-21g
 ----------

 ------------------------
 tmpdir/M1_conf_250_0.gjf
 ------------------------
 Symbolic Z-matrix:
 Charge =  0 Multiplicity = 1

                         Standard orientation:
 ---------------------------------------------------------------------
 Center     Atomic      Atomic             Coordinates (Angstroms)
 Number     Number       Type             X           Y           Z
 ---------------------------------------------------------------------
      1          6           0       -0.292047   -0.071148   -0.080126
      2          1           0       -0.204155    1.093277   -0.279583
      3          1           0        0.470280   -0.690438   -0.531449
      4          1           0       -0.544107   -0.145435    0.998386
      5          1           0        2.030263    0.169482    0.293400
 ---------------------------------------------------------------------

 SCF Done:  E(RHF) =  -39.7296497450     A.U. after   12 cycles

 The electronic state is 1-A.
 Alpha  occ. eigenvalues --  -11.25739  -0.93402  -0.61780  -0.56112  -0.30431
 Alpha virt. eigenvalues --    0.01468   0.26252   0.29929   0.34243   0.91814
 Alpha virt. eigenvalues --    0.93519   1.00142   1.13745   1.24376   1.30029
 Alpha virt. eigenvalues --    1.32516   1.71173

 Mulliken charges:
               1
     1  C   -0.555283
     2  H    0.230783
     3  H    0.282542
     4  H    0.242867
     5  H   -0.200910
 Sum of Mulliken charges =   0.00000

 Dipole moment (field-independent basis, Debye):
    X=             -1.5410    Y=              0.0498    Z=              0.0418  Tot=              1.5424
 Quadrupole moment (field-independent basis, Debye-Ang):
   XX=            -12.6376   YY=             -8.6835   ZZ=             -9.1180
   XY=             -0.8085   XZ=             -1.3379   YZ=              0.0349

 Normal termination of Gaussian 16 at Fri Sep 22 17:16:17 2023.
