 Gaussian 16, Revision A.03,
 Gaussian 16:  ES64L-G16RevA.03 25-Dec-2016

 ----------
 # hf/3-21g
 ----------

 -----------------------
 tmpdir/M1_conf_92_1.gjf
 -----------------------
 Symbolic Z-matrix:
 Charge =  0 Multiplicity = 1

                         Standard orientation:
 ---------------------------------------------------------------------
 Center     Atomic      Atomic             Coordinates (Angstroms)
 Number     Number       Type             X           Y           Z
 ---------------------------------------------------------------------
      1         17           0        0.000000   -0.000000    0.079084
      2          1           0       -0.000000    0.000000   -1.344431
 ---------------------------------------------------------------------

 SCF Done:  E(RHF) =  -457.862288958     A.U. after    8 cycles

 The electronic state is 1-SG.
 Alpha  occ. eigenvalues -- -104.12236 -10.51572  -7.97953  -7.97518  -7.97518
 Alpha  occ. eigenvalues --   -1.10259  -0.58749  -0.47682  -0.47682
 Alpha virt. eigenvalues --    0.11866   0.70924   0.78407   0.78407   0.83536
 Alpha virt. eigenvalues --    1.07144

 Mulliken charges:
               1
     1  Cl  -0.228157
     2  H    0.228157
 Sum of Mulliken charges =  -0.00000

 Dipole moment (field-independent basis, Debye):
    X=             -0.0000    Y=              0.0000    Z=             -1.9101  Tot=              1.9101
 Quadrupole moment (field-independent basis, Debye-Ang):
   XX=            -14.2796   YY=            -14.2796   ZZ=            -10.5050
   XY=              0.0000   XZ=             -0.0000   YZ=             -0.0000

 Normal termination of Gaussian 16 at Fri Sep 22 17:13:04 2023.
