 Gaussian 16, Revision A.03,
 Gaussian 16:  ES64L-G16RevA.03 25-Dec-2016

 ----------
 # hf/3-21g
 ----------

 ------------------------
 tmpdir/M1_conf_273_1.gjf
 ------------------------
 Symbolic Z-matrix:
 Charge =  0 Multiplicity = 1

                         Standard orientation:
 ---------------------------------------------------------------------
 Center     Atomic      Atomic             Coordinates (Angstroms)
 Number     Number       Type             X           Y           Z
 ---------------------------------------------------------------------
      1         17           0        0.000000   -0.000000    0.161483
      2          1           0       -0.000000    0.000000   -2.745215
 ---------------------------------------------------------------------

 SCF Done:  E(RHF) =  -457.651084586     A.U. after   10 cycles

 The electronic state is 1-SG.
 Alpha  occ. eigenvalues -- -104.10709 -10.49343  -7.95673  -7.95368  -7.95368
 Alpha  occ. eigenvalues --   -1.02430  -0.44236  -0.44236  -0.39164
 Alpha virt. eigenvalues --   -0.14163   0.67992   0.81373   0.81373   0.81664
 Alpha virt. eigenvalues --    1.08994

 Mulliken charges:
               1
     1  Cl  -0.279920
     2  H    0.279920
 Sum of Mulliken charges =  -0.00000

 Dipole moment (field-independent basis, Debye):
    X=             -0.0000    Y=              0.0000    Z=             -3.8158  Tot=              3.8158
 Quadrupole moment (field-independent basis, Debye-Ang):
   XX=            -14.8121   YY=            -14.8121   ZZ=             -2.2099
   XY=              0.0000   XZ=              0.0000   YZ=             -0.0000

 Normal termination of Gaussian 16 at Fri Sep 22 17:16:44 2023.
