 Gaussian 16, Revision A.03,
 Gaussian 16:  ES64L-G16RevA.03 25-Dec-2016

 ----------
 # hf/3-21g
 ----------

 ------------------------
 tmpdir/M1_conf_161_1.gjf
 ------------------------
 Symbolic Z-matrix:
 Charge =  0 Multiplicity = 1

                         Standard orientation:
 ---------------------------------------------------------------------
 Center     Atomic      Atomic             Coordinates (Angstroms)
 Number     Number       Type             X           Y           Z
 ---------------------------------------------------------------------
      1         17           0       -0.000000   -0.000000    0.101405
      2          1           0        0.000000    0.000000   -1.723889
 ---------------------------------------------------------------------

 SCF Done:  E(RHF) =  -457.802924995     A.U. after    8 cycles

 The electronic state is 1-SG.
 Alpha  occ. eigenvalues -- -104.13106 -10.51805  -7.98146  -7.97797  -7.97797
 Alpha  occ. eigenvalues --   -1.06325  -0.51334  -0.46747  -0.46747
 Alpha virt. eigenvalues --    0.00418   0.69830   0.79056   0.79056   0.86281
 Alpha virt. eigenvalues --    1.10965

 Mulliken charges:
               1
     1  Cl  -0.247433
     2  H    0.247433
 Sum of Mulliken charges =  -0.00000

 Dipole moment (field-independent basis, Debye):
    X=              0.0000    Y=              0.0000    Z=             -2.2018  Tot=              2.2018
 Quadrupole moment (field-independent basis, Debye-Ang):
   XX=            -14.6172   YY=            -14.6172   ZZ=             -8.9309
   XY=              0.0000   XZ=             -0.0000   YZ=              0.0000

 Normal termination of Gaussian 16 at Fri Sep 22 17:14:31 2023.
