 Gaussian 16, Revision A.03,
 Gaussian 16:  ES64L-G16RevA.03 25-Dec-2016

 ----------
 # hf/3-21g
 ----------

 ------------------------
 tmpdir/M1_conf_132_0.gjf
 ------------------------
 Symbolic Z-matrix:
 Charge =  0 Multiplicity = 1

                         Standard orientation:
 ---------------------------------------------------------------------
 Center     Atomic      Atomic             Coordinates (Angstroms)
 Number     Number       Type             X           Y           Z
 ---------------------------------------------------------------------
      1          6           0        0.080210    0.032714   -0.030299
      2          1           0        0.006100    0.854467   -0.473439
      3          1           0        0.277495    0.100855    1.006002
      4          1           0        0.568729   -0.833041   -0.383464
      5          1           0       -1.333583   -0.318564    0.032697
 ---------------------------------------------------------------------

 SCF Done:  E(RHF) =  -39.9032293167     A.U. after    9 cycles

 The electronic state is 1-A.
 Alpha  occ. eigenvalues --  -11.16523  -0.95266  -0.62380  -0.55604  -0.43922
 Alpha virt. eigenvalues --    0.22244   0.31597   0.35314   0.39061   0.87094
 Alpha virt. eigenvalues --    0.90817   1.02781   1.19408   1.32974   1.36694
 Alpha virt. eigenvalues --    1.51055   1.93868

 Mulliken charges:
               1
     1  C   -0.721495
     2  H    0.243913
     3  H    0.213606
     4  H    0.220351
     5  H    0.043625
 Sum of Mulliken charges =   0.00000

 Dipole moment (field-independent basis, Debye):
    X=              0.3974    Y=              0.1221    Z=              0.0613  Tot=              0.4202
 Quadrupole moment (field-independent basis, Debye-Ang):
   XX=             -8.9160   YY=             -8.2257   ZZ=             -8.5543
   XY=             -0.4014   XZ=              0.0197   YZ=             -0.1103

 Normal termination of Gaussian 16 at Fri Sep 22 17:13:57 2023.
