 Gaussian 16, Revision A.03,
 Gaussian 16:  ES64L-G16RevA.03 25-Dec-2016

 ----------
 # hf/3-21g
 ----------

 -----------------------
 tmpdir/M1_conf_48_0.gjf
 -----------------------
 Symbolic Z-matrix:
 Charge =  0 Multiplicity = 1

                         Standard orientation:
 ---------------------------------------------------------------------
 Center     Atomic      Atomic             Coordinates (Angstroms)
 Number     Number       Type             X           Y           Z
 ---------------------------------------------------------------------
      1          6           0        0.017803   -0.030081   -0.058863
      2          1           0        0.694464    0.845173   -0.352623
      3          1           0        0.666438   -0.634702    0.676814
      4          1           0       -0.583034   -0.620802   -0.577619
      5          1           0       -0.884687    0.590817    0.606604
 ---------------------------------------------------------------------

 SCF Done:  E(RHF) =  -39.9319742511     A.U. after    9 cycles

 The electronic state is 1-A.
 Alpha  occ. eigenvalues --  -11.17345  -0.93192  -0.60085  -0.51888  -0.46853
 Alpha virt. eigenvalues --    0.26615   0.29274   0.32333   0.37952   0.90751
 Alpha virt. eigenvalues --    0.97738   1.02253   1.21748   1.26444   1.28917
 Alpha virt. eigenvalues --    1.44477   1.92320

 Mulliken charges:
               1
     1  C   -0.757753
     2  H    0.209384
     3  H    0.184187
     4  H    0.242858
     5  H    0.121324
 Sum of Mulliken charges =  -0.00000

 Dipole moment (field-independent basis, Debye):
    X=              0.0276    Y=             -0.0401    Z=             -0.0281  Tot=              0.0563
 Quadrupole moment (field-independent basis, Debye-Ang):
   XX=             -8.2620   YY=             -8.3450   ZZ=             -9.1841
   XY=              0.3907   XZ=              0.3215   YZ=             -0.0098

 Normal termination of Gaussian 16 at Fri Sep 22 17:12:07 2023.
