 Gaussian 16, Revision A.03,
 Gaussian 16:  ES64L-G16RevA.03 25-Dec-2016

 ----------
 # hf/3-21g
 ----------

 ------------------------
 tmpdir/M1_conf_202_0.gjf
 ------------------------
 Symbolic Z-matrix:
 Charge =  0 Multiplicity = 1

                         Standard orientation:
 ---------------------------------------------------------------------
 Center     Atomic      Atomic             Coordinates (Angstroms)
 Number     Number       Type             X           Y           Z
 ---------------------------------------------------------------------
      1          6           0        0.245913   -0.065298    0.045310
      2          1           0        0.513816    0.881538   -0.460384
      3          1           0       -0.311314    0.129774    0.890014
      4          1           0       -0.031153   -0.827177   -0.438491
      5          1           0       -1.646829    0.207654   -0.262998
 ---------------------------------------------------------------------

 SCF Done:  E(RHF) =  -39.7735167454     A.U. after   12 cycles

 The electronic state is 1-A.
 Alpha  occ. eigenvalues --  -11.20874  -0.96620  -0.63641  -0.58730  -0.34105
 Alpha virt. eigenvalues --    0.07271   0.29632   0.34692   0.37505   0.84844
 Alpha virt. eigenvalues --    0.90903   1.02983   1.23975   1.25731   1.36404
 Alpha virt. eigenvalues --    1.45039   1.80816

 Mulliken charges:
               1
     1  C   -0.624900
     2  H    0.232467
     3  H    0.264786
     4  H    0.270742
     5  H   -0.143094
 Sum of Mulliken charges =   0.00000

 Dipole moment (field-independent basis, Debye):
    X=              0.7462    Y=             -0.0103    Z=              0.0723  Tot=              0.7497
 Quadrupole moment (field-independent basis, Debye-Ang):
   XX=            -10.8488   YY=             -8.3683   ZZ=             -8.9138
   XY=              0.6510   XZ=             -0.9163   YZ=              0.2466

 Normal termination of Gaussian 16 at Fri Sep 22 17:15:20 2023.
