 Gaussian 16, Revision A.03,
 Gaussian 16:  ES64L-G16RevA.03 25-Dec-2016

 ----------
 # hf/3-21g
 ----------

 ------------------------
 tmpdir/M1_conf_219_0.gjf
 ------------------------
 Symbolic Z-matrix:
 Charge =  0 Multiplicity = 1

                         Standard orientation:
 ---------------------------------------------------------------------
 Center     Atomic      Atomic             Coordinates (Angstroms)
 Number     Number       Type             X           Y           Z
 ---------------------------------------------------------------------
      1          6           0        0.297613    0.045788    0.077084
      2          1           0        0.054306    1.009433   -0.336723
      3          1           0       -0.580118   -0.285784    0.744761
      4          1           0        0.433778   -0.936940   -0.546062
      5          1           0       -1.693642   -0.061438   -0.324483
 ---------------------------------------------------------------------

 SCF Done:  E(RHF) =  -39.7492936076     A.U. after   12 cycles

 The electronic state is 1-A.
 Alpha  occ. eigenvalues --  -11.23984  -0.93199  -0.60310  -0.54135  -0.33805
 Alpha virt. eigenvalues --    0.04596   0.26392   0.31190   0.34069   0.90678
 Alpha virt. eigenvalues --    0.96975   1.02002   1.19184   1.25095   1.28965
 Alpha virt. eigenvalues --    1.31212   1.74002

 Mulliken charges:
               1
     1  C   -0.584201
     2  H    0.257707
     3  H    0.241705
     4  H    0.223968
     5  H   -0.139179
 Sum of Mulliken charges =   0.00000

 Dipole moment (field-independent basis, Debye):
    X=              0.4431    Y=             -0.0720    Z=             -0.2713  Tot=              0.5245
 Quadrupole moment (field-independent basis, Debye-Ang):
   XX=            -10.9971   YY=             -8.2141   ZZ=            -10.0900
   XY=             -0.1536   XZ=             -1.1312   YZ=             -0.1400

 Normal termination of Gaussian 16 at Fri Sep 22 17:15:40 2023.
