 Gaussian 16, Revision A.03,
 Gaussian 16:  ES64L-G16RevA.03 25-Dec-2016

 ----------
 # hf/3-21g
 ----------

 -----------------------
 tmpdir/M1_conf_42_0.gjf
 -----------------------
 Symbolic Z-matrix:
 Charge =  0 Multiplicity = 1

                         Standard orientation:
 ---------------------------------------------------------------------
 Center     Atomic      Atomic             Coordinates (Angstroms)
 Number     Number       Type             X           Y           Z
 ---------------------------------------------------------------------
      1          6           0        0.059767    0.003591   -0.022029
      2          1           0        0.823853    0.403837    0.537077
      3          1           0        0.283724   -0.750050   -0.613552
      4          1           0       -0.639062    0.783563   -0.467511
      5          1           0       -0.827117   -0.458898    0.676157
 ---------------------------------------------------------------------

 SCF Done:  E(RHF) =  -39.9470495977     A.U. after    9 cycles

 The electronic state is 1-A.
 Alpha  occ. eigenvalues --  -11.15030  -0.94906  -0.59065  -0.56199  -0.47714
 Alpha virt. eigenvalues --    0.28307   0.30874   0.35965   0.37906   0.88068
 Alpha virt. eigenvalues --    0.93392   0.97297   1.24897   1.30797   1.38729
 Alpha virt. eigenvalues --    1.46337   1.95946

 Mulliken charges:
               1
     1  C   -0.781625
     2  H    0.218241
     3  H    0.231487
     4  H    0.187897
     5  H    0.143999
 Sum of Mulliken charges =   0.00000

 Dipole moment (field-independent basis, Debye):
    X=             -0.0339    Y=             -0.0197    Z=             -0.0266  Tot=              0.0473
 Quadrupole moment (field-independent basis, Debye-Ang):
   XX=             -8.0908   YY=             -8.4372   ZZ=             -8.8301
   XY=             -0.0972   XZ=              0.2046   YZ=              0.3404

 Normal termination of Gaussian 16 at Fri Sep 22 17:12:00 2023.
