 Gaussian 16, Revision A.03,
 Gaussian 16:  ES64L-G16RevA.03 25-Dec-2016

 ----------
 # hf/3-21g
 ----------

 ------------------------
 tmpdir/M1_conf_133_0.gjf
 ------------------------
 Symbolic Z-matrix:
 Charge =  0 Multiplicity = 1

                         Standard orientation:
 ---------------------------------------------------------------------
 Center     Atomic      Atomic             Coordinates (Angstroms)
 Number     Number       Type             X           Y           Z
 ---------------------------------------------------------------------
      1          6           0        0.089479    0.033593   -0.030725
      2          1           0        0.078691    1.015058   -0.086502
      3          1           0        0.370408   -0.375763    0.941915
      4          1           0        0.366579   -0.637544   -0.717359
      5          1           0       -1.352549   -0.203309    0.046299
 ---------------------------------------------------------------------

 SCF Done:  E(RHF) =  -39.9067906380     A.U. after    9 cycles

 The electronic state is 1-A.
 Alpha  occ. eigenvalues --  -11.16897  -0.94821  -0.62637  -0.55237  -0.43468
 Alpha virt. eigenvalues --    0.22053   0.31180   0.35199   0.38652   0.88690
 Alpha virt. eigenvalues --    0.90944   1.02645   1.19198   1.32103   1.36289
 Alpha virt. eigenvalues --    1.49286   1.93008

 Mulliken charges:
               1
     1  C   -0.723789
     2  H    0.240879
     3  H    0.205356
     4  H    0.238504
     5  H    0.039050
 Sum of Mulliken charges =  -0.00000

 Dipole moment (field-independent basis, Debye):
    X=              0.3911    Y=              0.0284    Z=              0.0188  Tot=              0.3926
 Quadrupole moment (field-independent basis, Debye-Ang):
   XX=             -9.1602   YY=             -8.0495   ZZ=             -8.6011
   XY=             -0.2677   XZ=             -0.0239   YZ=              0.0892

 Normal termination of Gaussian 16 at Fri Sep 22 17:13:58 2023.
