 Gaussian 16, Revision A.03,
 Gaussian 16:  ES64L-G16RevA.03 25-Dec-2016

 ----------
 # hf/3-21g
 ----------

 ------------------------
 tmpdir/M1_conf_106_0.gjf
 ------------------------
 Symbolic Z-matrix:
 Charge =  0 Multiplicity = 1

                         Standard orientation:
 ---------------------------------------------------------------------
 Center     Atomic      Atomic             Coordinates (Angstroms)
 Number     Number       Type             X           Y           Z
 ---------------------------------------------------------------------
      1          6           0       -0.008669   -0.006938   -0.007029
      2          1           0        0.958819   -0.598360   -0.427768
      3          1           0        0.302218    1.137519   -0.021239
      4          1           0       -0.123943   -0.322828    0.987556
      5          1           0       -1.085080   -0.174703   -0.496375
 ---------------------------------------------------------------------

 SCF Done:  E(RHF) =  -39.9496468634     A.U. after    9 cycles

 The electronic state is 1-A.
 Alpha  occ. eigenvalues --  -11.17993  -0.92067  -0.54198  -0.52888  -0.50091
 Alpha virt. eigenvalues --    0.26310   0.30973   0.32601   0.35197   0.91107
 Alpha virt. eigenvalues --    0.98407   1.02743   1.21360   1.26497   1.27619
 Alpha virt. eigenvalues --    1.37387   1.91919

 Mulliken charges:
               1
     1  C   -0.742352
     2  H    0.171146
     3  H    0.175103
     4  H    0.218180
     5  H    0.177923
 Sum of Mulliken charges =   0.00000

 Dipole moment (field-independent basis, Debye):
    X=             -0.0068    Y=             -0.0141    Z=              0.1926  Tot=              0.1932
 Quadrupole moment (field-independent basis, Debye-Ang):
   XX=             -8.1516   YY=             -8.7043   ZZ=             -8.9673
   XY=              0.0337   XZ=             -0.0136   YZ=             -0.0922

 Normal termination of Gaussian 16 at Fri Sep 22 17:13:21 2023.
