 Gaussian 16, Revision A.03,
 Gaussian 16:  ES64L-G16RevA.03 25-Dec-2016

 ----------
 # hf/3-21g
 ----------

 ------------------------
 tmpdir/M1_conf_291_0.gjf
 ------------------------
 Symbolic Z-matrix:
 Charge =  0 Multiplicity = 1

                         Standard orientation:
 ---------------------------------------------------------------------
 Center     Atomic      Atomic             Coordinates (Angstroms)
 Number     Number       Type             X           Y           Z
 ---------------------------------------------------------------------
      1          6           0       -0.304933   -0.070101   -0.130196
      2          1           0       -0.508637    1.091383    0.296144
      3          1           0        0.694577   -0.101738   -0.514954
      4          1           0       -0.529334   -0.641687    0.704159
      5          1           0        2.172990    0.072646    0.295829
 ---------------------------------------------------------------------

 SCF Done:  E(RHF) =  -39.6869384723     A.U. after   13 cycles

 The electronic state is 1-A.
 Alpha  occ. eigenvalues --  -11.25605  -0.94988  -0.62902  -0.54540  -0.30188
 Alpha virt. eigenvalues --   -0.01591   0.24799   0.31188   0.38035   0.88217
 Alpha virt. eigenvalues --    0.93352   0.98561   1.16062   1.23976   1.28046
 Alpha virt. eigenvalues --    1.38194   1.74251

 Mulliken charges:
               1
     1  C   -0.517167
     2  H    0.181952
     3  H    0.262346
     4  H    0.247238
     5  H   -0.174369
 Sum of Mulliken charges =   0.00000

 Dipole moment (field-independent basis, Debye):
    X=             -1.6602    Y=              0.0536    Z=              0.5301  Tot=              1.7436
 Quadrupole moment (field-independent basis, Debye-Ang):
   XX=            -12.2528   YY=             -9.1351   ZZ=             -9.6874
   XY=             -0.1238   XZ=             -1.1988   YZ=             -0.1535

 Normal termination of Gaussian 16 at Fri Sep 22 17:17:06 2023.
