 Gaussian 16, Revision A.03,
 Gaussian 16:  ES64L-G16RevA.03 25-Dec-2016

 ----------
 # hf/3-21g
 ----------

 -----------------------
 tmpdir/M1_conf_82_0.gjf
 -----------------------
 Symbolic Z-matrix:
 Charge =  0 Multiplicity = 1

                         Standard orientation:
 ---------------------------------------------------------------------
 Center     Atomic      Atomic             Coordinates (Angstroms)
 Number     Number       Type             X           Y           Z
 ---------------------------------------------------------------------
      1          6           0        0.035329   -0.036356    0.002659
      2          1           0        0.470549    0.246608    0.818723
      3          1           0        0.386180   -0.889858   -0.362167
      4          1           0        0.201566    0.903299   -0.574903
      5          1           0       -1.270269   -0.041910    0.102395
 ---------------------------------------------------------------------

 SCF Done:  E(RHF) =  -39.9283208431     A.U. after    9 cycles

 The electronic state is 1-A.
 Alpha  occ. eigenvalues --  -11.15088  -0.95641  -0.60221  -0.54177  -0.48267
 Alpha virt. eigenvalues --    0.26308   0.31325   0.36440   0.38344   0.85868
 Alpha virt. eigenvalues --    0.91894   1.01967   1.20877   1.31643   1.42524
 Alpha virt. eigenvalues --    1.48996   1.95217

 Mulliken charges:
               1
     1  C   -0.764444
     2  H    0.231897
     3  H    0.222174
     4  H    0.187603
     5  H    0.122770
 Sum of Mulliken charges =   0.00000

 Dipole moment (field-independent basis, Debye):
    X=              0.2565    Y=              0.1037    Z=              0.0474  Tot=              0.2807
 Quadrupole moment (field-independent basis, Debye-Ang):
   XX=             -8.3091   YY=             -8.1156   ZZ=             -8.8813
   XY=             -0.0893   XZ=              0.1451   YZ=              0.2032

 Normal termination of Gaussian 16 at Fri Sep 22 17:12:52 2023.
