 Gaussian 16, Revision A.03,
 Gaussian 16:  ES64L-G16RevA.03 25-Dec-2016

 ----------
 # hf/3-21g
 ----------

 -----------------------
 tmpdir/M1_conf_93_0.gjf
 -----------------------
 Symbolic Z-matrix:
 Charge =  0 Multiplicity = 1

                         Standard orientation:
 ---------------------------------------------------------------------
 Center     Atomic      Atomic             Coordinates (Angstroms)
 Number     Number       Type             X           Y           Z
 ---------------------------------------------------------------------
      1          6           0       -0.033099    0.012061    0.047267
      2          1           0        0.589430    0.181525    0.788754
      3          1           0       -0.138048    0.878103   -0.555918
      4          1           0       -1.002249   -0.493804    0.082904
      5          1           0        0.749459   -0.638188   -0.599341
 ---------------------------------------------------------------------

 SCF Done:  E(RHF) =  -39.9483575823     A.U. after    9 cycles

 The electronic state is 1-A.
 Alpha  occ. eigenvalues --  -11.14712  -0.95217  -0.59947  -0.54171  -0.48975
 Alpha virt. eigenvalues --    0.28497   0.31970   0.34943   0.38151   0.88282
 Alpha virt. eigenvalues --    0.92965   0.98466   1.26065   1.31746   1.37820
 Alpha virt. eigenvalues --    1.47762   1.95825

 Mulliken charges:
               1
     1  C   -0.800641
     2  H    0.237465
     3  H    0.208499
     4  H    0.208706
     5  H    0.145970
 Sum of Mulliken charges =   0.00000

 Dipole moment (field-independent basis, Debye):
    X=              0.0692    Y=              0.0812    Z=             -0.0195  Tot=              0.1084
 Quadrupole moment (field-independent basis, Debye-Ang):
   XX=             -7.8880   YY=             -8.6696   ZZ=             -8.7364
   XY=              0.2134   XZ=              0.2845   YZ=             -0.1416

 Normal termination of Gaussian 16 at Fri Sep 22 17:13:05 2023.
