 Gaussian 16, Revision A.03,
 Gaussian 16:  ES64L-G16RevA.03 25-Dec-2016

 ----------
 # hf/3-21g
 ----------

 ------------------------
 tmpdir/M1_conf_132_1.gjf
 ------------------------
 Symbolic Z-matrix:
 Charge =  0 Multiplicity = 1

                         Standard orientation:
 ---------------------------------------------------------------------
 Center     Atomic      Atomic             Coordinates (Angstroms)
 Number     Number       Type             X           Y           Z
 ---------------------------------------------------------------------
      1         17           0       -0.000000   -0.000000    0.094996
      2          1           0        0.000000    0.000000   -1.614934
 ---------------------------------------------------------------------

 SCF Done:  E(RHF) =  -457.822194412     A.U. after    8 cycles

 The electronic state is 1-SG.
 Alpha  occ. eigenvalues -- -104.13051 -10.51872  -7.98220  -7.97853  -7.97853
 Alpha  occ. eigenvalues --   -1.07159  -0.53325  -0.47045  -0.47045
 Alpha virt. eigenvalues --    0.03192   0.70123   0.78819   0.78819   0.86215
 Alpha virt. eigenvalues --    1.10024

 Mulliken charges:
               1
     1  Cl  -0.244377
     2  H    0.244377
 Sum of Mulliken charges =  -0.00000

 Dipole moment (field-independent basis, Debye):
    X=              0.0000    Y=              0.0000    Z=             -2.0928  Tot=              2.0928
 Quadrupole moment (field-independent basis, Debye-Ang):
   XX=            -14.5478   YY=            -14.5478   ZZ=             -9.4690
   XY=             -0.0000   XZ=             -0.0000   YZ=             -0.0000

 Normal termination of Gaussian 16 at Fri Sep 22 17:13:56 2023.
