 Gaussian 16, Revision A.03,
 Gaussian 16:  ES64L-G16RevA.03 25-Dec-2016

 ----------
 # hf/3-21g
 ----------

 ----------------------
 tmpdir/M1_conf_1_0.gjf
 ----------------------
 Symbolic Z-matrix:
 Charge =  0 Multiplicity = 1

                         Standard orientation:
 ---------------------------------------------------------------------
 Center     Atomic      Atomic             Coordinates (Angstroms)
 Number     Number       Type             X           Y           Z
 ---------------------------------------------------------------------
      1          6           0       -0.077005    0.036041    0.019162
      2          1           0       -0.749698   -0.694240   -0.480491
      3          1           0        0.015256   -0.108130    1.022189
      4          1           0        0.034672    1.049682   -0.351296
      5          1           0        1.161802   -0.463559   -0.305374
 ---------------------------------------------------------------------

 SCF Done:  E(RHF) =  -39.9316359027     A.U. after    9 cycles

 The electronic state is 1-A.
 Alpha  occ. eigenvalues --  -11.17506  -0.93349  -0.57885  -0.56474  -0.44841
 Alpha virt. eigenvalues --    0.24389   0.29641   0.35241   0.36661   0.89683
 Alpha virt. eigenvalues --    0.95353   1.01249   1.19594   1.27960   1.35308
 Alpha virt. eigenvalues --    1.41399   1.93161

 Mulliken charges:
               1
     1  C   -0.737990
     2  H    0.209607
     3  H    0.233991
     4  H    0.218381
     5  H    0.076011
 Sum of Mulliken charges =  -0.00000

 Dipole moment (field-independent basis, Debye):
    X=             -0.1245    Y=              0.0530    Z=              0.1157  Tot=              0.1780
 Quadrupole moment (field-independent basis, Debye-Ang):
   XX=             -9.0108   YY=             -8.2990   ZZ=             -8.5732
   XY=              0.4052   XZ=              0.2778   YZ=             -0.1525

 Normal termination of Gaussian 16 at Fri Sep 22 17:11:11 2023.
