 Gaussian 16, Revision A.03,
 Gaussian 16:  ES64L-G16RevA.03 25-Dec-2016

 ----------
 # hf/3-21g
 ----------

 ------------------------
 tmpdir/M1_conf_281_0.gjf
 ------------------------
 Symbolic Z-matrix:
 Charge =  0 Multiplicity = 1

                         Standard orientation:
 ---------------------------------------------------------------------
 Center     Atomic      Atomic             Coordinates (Angstroms)
 Number     Number       Type             X           Y           Z
 ---------------------------------------------------------------------
      1          6           0        0.302284   -0.022946    0.067447
      2          1           0        0.382426    1.165416   -0.189116
      3          1           0       -0.514137   -0.337774    0.668828
      4          1           0        0.474644   -0.785070   -0.613180
      5          1           0       -2.156636    0.095103   -0.271212
 ---------------------------------------------------------------------

 SCF Done:  E(RHF) =  -39.7112792339     A.U. after   13 cycles

 The electronic state is 1-A.
 Alpha  occ. eigenvalues --  -11.25708  -0.94943  -0.61362  -0.59238  -0.28941
 Alpha virt. eigenvalues --    0.00608   0.24416   0.32855   0.34498   0.85805
 Alpha virt. eigenvalues --    0.97506   0.98965   1.10713   1.27126   1.32081
 Alpha virt. eigenvalues --    1.33748   1.70248

 Mulliken charges:
               1
     1  C   -0.548784
     2  H    0.242764
     3  H    0.280436
     4  H    0.253934
     5  H   -0.228350
 Sum of Mulliken charges =  -0.00000

 Dipole moment (field-independent basis, Debye):
    X=              2.1053    Y=             -0.0859    Z=              0.0013  Tot=              2.1071
 Quadrupole moment (field-independent basis, Debye-Ang):
   XX=            -13.6027   YY=             -7.8867   ZZ=             -9.6457
   XY=              0.4108   XZ=             -1.2855   YZ=              0.0259

 Normal termination of Gaussian 16 at Fri Sep 22 17:16:54 2023.
