 Gaussian 16, Revision A.03,
 Gaussian 16:  ES64L-G16RevA.03 25-Dec-2016

 ----------
 # hf/3-21g
 ----------

 ------------------------
 tmpdir/M1_conf_300_0.gjf
 ------------------------
 Symbolic Z-matrix:
 Charge =  0 Multiplicity = 1

                         Standard orientation:
 ---------------------------------------------------------------------
 Center     Atomic      Atomic             Coordinates (Angstroms)
 Number     Number       Type             X           Y           Z
 ---------------------------------------------------------------------
      1          6           0       -0.284654    0.040272    0.067784
      2          1           0       -0.823550   -0.967185   -0.426158
      3          1           0        0.546005   -0.112773    0.749193
      4          1           0       -0.261585    1.016459   -0.396834
      5          1           0        2.247053   -0.178135   -0.332907
 ---------------------------------------------------------------------

 SCF Done:  E(RHF) =  -39.7068250978     A.U. after   13 cycles

 The electronic state is 1-A.
 Alpha  occ. eigenvalues --  -11.27291  -0.93681  -0.61325  -0.58982  -0.27953
 Alpha virt. eigenvalues --    0.00405   0.22711   0.31298   0.33638   0.88147
 Alpha virt. eigenvalues --    0.97350   0.98787   1.08590   1.23393   1.30405
 Alpha virt. eigenvalues --    1.31750   1.67043

 Mulliken charges:
               1
     1  C   -0.529607
     2  H    0.230497
     3  H    0.287049
     4  H    0.262072
     5  H   -0.250011
 Sum of Mulliken charges =   0.00000

 Dipole moment (field-independent basis, Debye):
    X=             -2.5778    Y=              0.1962    Z=              0.2132  Tot=              2.5940
 Quadrupole moment (field-independent basis, Debye-Ang):
   XX=            -14.2550   YY=             -8.1666   ZZ=             -9.6301
   XY=              0.8773   XZ=              1.6979   YZ=             -0.1200

 Normal termination of Gaussian 16 at Fri Sep 22 17:17:16 2023.
