 Gaussian 16, Revision A.03,
 Gaussian 16:  ES64L-G16RevA.03 25-Dec-2016

 ----------
 # hf/3-21g
 ----------

 ------------------------
 tmpdir/M1_conf_264_0.gjf
 ------------------------
 Symbolic Z-matrix:
 Charge =  0 Multiplicity = 1

                         Standard orientation:
 ---------------------------------------------------------------------
 Center     Atomic      Atomic             Coordinates (Angstroms)
 Number     Number       Type             X           Y           Z
 ---------------------------------------------------------------------
      1          6           0        0.343529   -0.001021   -0.098214
      2          1           0        0.440462   -0.679132    0.619096
      3          1           0       -0.569642   -0.235469   -0.554345
      4          1           0        0.188331    0.917999    0.314535
      5          1           0       -2.120322    0.002728    0.210000
 ---------------------------------------------------------------------

 SCF Done:  E(RHF) =  -39.6848643661     A.U. after   14 cycles

 The electronic state is 1-A.
 Alpha  occ. eigenvalues --  -11.22001  -0.98742  -0.62424  -0.59525  -0.30524
 Alpha virt. eigenvalues --   -0.01995   0.30806   0.35453   0.37175   0.84441
 Alpha virt. eigenvalues --    0.85382   0.98875   1.21961   1.36787   1.38700
 Alpha virt. eigenvalues --    1.39152   1.80129

 Mulliken charges:
               1
     1  C   -0.586089
     2  H    0.245284
     3  H    0.256948
     4  H    0.248529
     5  H   -0.164671
 Sum of Mulliken charges =   0.00000

 Dipole moment (field-independent basis, Debye):
    X=              1.3533    Y=              0.0463    Z=              0.5073  Tot=              1.4460
 Quadrupole moment (field-independent basis, Debye-Ang):
   XX=            -11.7826   YY=             -8.7038   ZZ=             -9.5705
   XY=              0.0055   XZ=              0.8306   YZ=             -0.0474

 Normal termination of Gaussian 16 at Fri Sep 22 17:16:33 2023.
