 Gaussian 16, Revision A.03,
 Gaussian 16:  ES64L-G16RevA.03 25-Dec-2016

 ----------
 # hf/3-21g
 ----------

 ------------------------
 tmpdir/M1_conf_161_0.gjf
 ------------------------
 Symbolic Z-matrix:
 Charge =  0 Multiplicity = 1

                         Standard orientation:
 ---------------------------------------------------------------------
 Center     Atomic      Atomic             Coordinates (Angstroms)
 Number     Number       Type             X           Y           Z
 ---------------------------------------------------------------------
      1          6           0       -0.152558   -0.011851    0.051254
      2          1           0        0.170290   -0.338401    0.912189
      3          1           0       -0.207188    1.053840   -0.156289
      4          1           0       -0.405627   -0.646466   -0.738981
      5          1           0        1.357872    0.002134   -0.324444
 ---------------------------------------------------------------------

 SCF Done:  E(RHF) =  -39.8745937734     A.U. after   10 cycles

 The electronic state is 1-A.
 Alpha  occ. eigenvalues --  -11.18350  -0.94792  -0.61800  -0.57916  -0.39679
 Alpha virt. eigenvalues --    0.18005   0.29876   0.35398   0.37832   0.89221
 Alpha virt. eigenvalues --    0.91400   1.02948   1.18122   1.29799   1.36793
 Alpha virt. eigenvalues --    1.46189   1.90761

 Mulliken charges:
               1
     1  C   -0.709167
     2  H    0.258939
     3  H    0.232163
     4  H    0.240263
     5  H   -0.022197
 Sum of Mulliken charges =   0.00000

 Dipole moment (field-independent basis, Debye):
    X=             -0.2668    Y=              0.0016    Z=              0.0668  Tot=              0.2751
 Quadrupole moment (field-independent basis, Debye-Ang):
   XX=             -9.8602   YY=             -8.2323   ZZ=             -8.3961
   XY=              0.0095   XZ=              0.6833   YZ=             -0.0380

 Normal termination of Gaussian 16 at Fri Sep 22 17:14:31 2023.
