 Gaussian 16, Revision A.03,
 Gaussian 16:  ES64L-G16RevA.03 25-Dec-2016

 ----------
 # hf/3-21g
 ----------

 ------------------------
 tmpdir/M1_conf_166_1.gjf
 ------------------------
 Symbolic Z-matrix:
 Charge =  0 Multiplicity = 1

                         Standard orientation:
 ---------------------------------------------------------------------
 Center     Atomic      Atomic             Coordinates (Angstroms)
 Number     Number       Type             X           Y           Z
 ---------------------------------------------------------------------
      1         17           0       -0.000000    0.000000    0.103533
      2          1           0        0.000000   -0.000000   -1.760058
 ---------------------------------------------------------------------

 SCF Done:  E(RHF) =  -457.796435216     A.U. after    8 cycles

 The electronic state is 1-SG.
 Alpha  occ. eigenvalues -- -104.13094 -10.51763  -7.98102  -7.97758  -7.97758
 Alpha  occ. eigenvalues --   -1.06081  -0.50704  -0.46646  -0.46646
 Alpha virt. eigenvalues --   -0.00424   0.69740   0.79140   0.79140   0.86321
 Alpha virt. eigenvalues --    1.11088

 Mulliken charges:
               1
     1  Cl  -0.248408
     2  H    0.248408
 Sum of Mulliken charges =  -0.00000

 Dipole moment (field-independent basis, Debye):
    X=              0.0000    Y=             -0.0000    Z=             -2.2425  Tot=              2.2425
 Quadrupole moment (field-independent basis, Debye-Ang):
   XX=            -14.6362   YY=            -14.6362   ZZ=             -8.7395
   XY=              0.0000   XZ=             -0.0000   YZ=             -0.0000

 Normal termination of Gaussian 16 at Fri Sep 22 17:14:37 2023.
