 Gaussian 16, Revision A.03,
 Gaussian 16:  ES64L-G16RevA.03 25-Dec-2016

 ----------
 # hf/3-21g
 ----------

 ------------------------
 tmpdir/M1_conf_279_1.gjf
 ------------------------
 Symbolic Z-matrix:
 Charge =  0 Multiplicity = 1

                         Standard orientation:
 ---------------------------------------------------------------------
 Center     Atomic      Atomic             Coordinates (Angstroms)
 Number     Number       Type             X           Y           Z
 ---------------------------------------------------------------------
      1         17           0       -0.000000   -0.000000    0.161623
      2          1           0        0.000000    0.000000   -2.747590
 ---------------------------------------------------------------------

 SCF Done:  E(RHF) =  -457.650839437     A.U. after   10 cycles

 The electronic state is 1-SG.
 Alpha  occ. eigenvalues -- -104.10702 -10.49337  -7.95667  -7.95362  -7.95362
 Alpha  occ. eigenvalues --   -1.02425  -0.44231  -0.44231  -0.39146
 Alpha virt. eigenvalues --   -0.14182   0.67992   0.81377   0.81377   0.81654
 Alpha virt. eigenvalues --    1.08978

 Mulliken charges:
               1
     1  Cl  -0.279977
     2  H    0.279977
 Sum of Mulliken charges =  -0.00000

 Dipole moment (field-independent basis, Debye):
    X=              0.0000    Y=              0.0000    Z=             -3.8200  Tot=              3.8200
 Quadrupole moment (field-independent basis, Debye-Ang):
   XX=            -14.8122   YY=            -14.8122   ZZ=             -2.1922
   XY=              0.0000   XZ=             -0.0000   YZ=              0.0000

 Normal termination of Gaussian 16 at Fri Sep 22 17:16:51 2023.
