 Gaussian 16, Revision A.03,
 Gaussian 16:  ES64L-G16RevA.03 25-Dec-2016

 ----------
 # hf/3-21g
 ----------

 ------------------------
 tmpdir/M1_conf_123_0.gjf
 ------------------------
 Symbolic Z-matrix:
 Charge =  0 Multiplicity = 1

                         Standard orientation:
 ---------------------------------------------------------------------
 Center     Atomic      Atomic             Coordinates (Angstroms)
 Number     Number       Type             X           Y           Z
 ---------------------------------------------------------------------
      1          6           0       -0.080592    0.039129   -0.001819
      2          1           0       -0.096852   -0.366288    0.881847
      3          1           0        0.194848    1.076636   -0.053218
      4          1           0       -0.797240   -0.450271   -0.536397
      5          1           0        1.182796   -0.494852   -0.281316
 ---------------------------------------------------------------------

 SCF Done:  E(RHF) =  -39.9122575077     A.U. after   10 cycles

 The electronic state is 1-A.
 Alpha  occ. eigenvalues --  -11.16084  -0.95341  -0.60085  -0.57218  -0.44353
 Alpha virt. eigenvalues --    0.23521   0.30946   0.37173   0.37312   0.85316
 Alpha virt. eigenvalues --    0.95347   1.01679   1.19276   1.31437   1.42087
 Alpha virt. eigenvalues --    1.47383   1.93792

 Mulliken charges:
               1
     1  C   -0.753960
     2  H    0.241427
     3  H    0.223091
     4  H    0.225421
     5  H    0.064021
 Sum of Mulliken charges =  -0.00000

 Dipole moment (field-independent basis, Debye):
    X=             -0.2302    Y=              0.0389    Z=              0.2405  Tot=              0.3352
 Quadrupole moment (field-independent basis, Debye-Ang):
   XX=             -8.5633   YY=             -8.1796   ZZ=             -8.8832
   XY=              0.5425   XZ=              0.3266   YZ=             -0.1733

 Normal termination of Gaussian 16 at Fri Sep 22 17:13:41 2023.
