 Gaussian 16, Revision A.03,
 Gaussian 16:  ES64L-G16RevA.03 25-Dec-2016

 ----------
 # hf/3-21g
 ----------

 ------------------------
 tmpdir/M1_conf_271_0.gjf
 ------------------------
 Symbolic Z-matrix:
 Charge =  0 Multiplicity = 1

                         Standard orientation:
 ---------------------------------------------------------------------
 Center     Atomic      Atomic             Coordinates (Angstroms)
 Number     Number       Type             X           Y           Z
 ---------------------------------------------------------------------
      1          6           0        0.309017    0.025710   -0.108219
      2          1           0        0.472112   -0.818359    0.734881
      3          1           0       -0.441985   -0.285729   -0.783124
      4          1           0        0.260683    0.935195    0.417268
      5          1           0       -2.144911    0.014634    0.280292
 ---------------------------------------------------------------------

 SCF Done:  E(RHF) =  -39.7098595658     A.U. after   13 cycles

 The electronic state is 1-A.
 Alpha  occ. eigenvalues --  -11.25492  -0.94756  -0.63399  -0.56007  -0.29687
 Alpha virt. eigenvalues --   -0.00306   0.26217   0.30663   0.35296   0.89481
 Alpha virt. eigenvalues --    0.92118   0.99023   1.14855   1.23724   1.31255
 Alpha virt. eigenvalues --    1.36179   1.72715

 Mulliken charges:
               1
     1  C   -0.554068
     2  H    0.207968
     3  H    0.283491
     4  H    0.264623
     5  H   -0.202014
 Sum of Mulliken charges =  -0.00000

 Dipole moment (field-independent basis, Debye):
    X=              1.6730    Y=              0.0047    Z=              0.1159  Tot=              1.6770
 Quadrupole moment (field-independent basis, Debye-Ang):
   XX=            -13.1291   YY=             -8.7229   ZZ=             -9.0104
   XY=              0.1986   XZ=              1.2874   YZ=              0.2174

 Normal termination of Gaussian 16 at Fri Sep 22 17:16:42 2023.
