 Gaussian 16, Revision A.03,
 Gaussian 16:  ES64L-G16RevA.03 25-Dec-2016

 ----------
 # hf/3-21g
 ----------

 ------------------------
 tmpdir/M1_conf_215_0.gjf
 ------------------------
 Symbolic Z-matrix:
 Charge =  0 Multiplicity = 1

                         Standard orientation:
 ---------------------------------------------------------------------
 Center     Atomic      Atomic             Coordinates (Angstroms)
 Number     Number       Type             X           Y           Z
 ---------------------------------------------------------------------
      1          6           0        0.293680    0.036678    0.071242
      2          1           0        0.034650    0.964201   -0.372525
      3          1           0       -0.428273   -0.254687    0.805461
      4          1           0        0.320763   -0.884279   -0.607494
      5          1           0       -1.689221   -0.045304   -0.252893
 ---------------------------------------------------------------------

 SCF Done:  E(RHF) =  -39.7604145705     A.U. after   12 cycles

 The electronic state is 1-A.
 Alpha  occ. eigenvalues --  -11.22840  -0.94755  -0.60367  -0.56156  -0.34108
 Alpha virt. eigenvalues --    0.04624   0.28123   0.33177   0.34546   0.88389
 Alpha virt. eigenvalues --    0.93264   1.02477   1.22025   1.26623   1.32330
 Alpha virt. eigenvalues --    1.34866   1.77072

 Mulliken charges:
               1
     1  C   -0.606169
     2  H    0.257509
     3  H    0.260407
     4  H    0.224556
     5  H   -0.136303
 Sum of Mulliken charges =   0.00000

 Dipole moment (field-independent basis, Debye):
    X=              0.4068    Y=             -0.0659    Z=             -0.1588  Tot=              0.4416
 Quadrupole moment (field-independent basis, Debye-Ang):
   XX=            -11.1466   YY=             -8.3782   ZZ=             -9.4365
   XY=             -0.1137   XZ=             -0.9190   YZ=             -0.1540

 Normal termination of Gaussian 16 at Fri Sep 22 17:15:35 2023.
