 Gaussian 16, Revision A.03,
 Gaussian 16:  ES64L-G16RevA.03 25-Dec-2016

 ----------
 # hf/3-21g
 ----------

 ------------------------
 tmpdir/M1_conf_187_0.gjf
 ------------------------
 Symbolic Z-matrix:
 Charge =  0 Multiplicity = 1

                         Standard orientation:
 ---------------------------------------------------------------------
 Center     Atomic      Atomic             Coordinates (Angstroms)
 Number     Number       Type             X           Y           Z
 ---------------------------------------------------------------------
      1          6           0       -0.241270    0.093675    0.044558
      2          1           0        0.160322   -0.343172    0.927286
      3          1           0        0.256221    1.016340   -0.351061
      4          1           0       -0.468676   -0.905663   -0.645660
      5          1           0        1.499753   -0.329552   -0.197911
 ---------------------------------------------------------------------

 SCF Done:  E(RHF) =  -39.7894257641     A.U. after   11 cycles

 The electronic state is 1-A.
 Alpha  occ. eigenvalues --  -11.23314  -0.92624  -0.59505  -0.53682  -0.35847
 Alpha virt. eigenvalues --    0.09393   0.24917   0.31641   0.34356   0.90828
 Alpha virt. eigenvalues --    0.99862   1.02246   1.20508   1.23286   1.27741
 Alpha virt. eigenvalues --    1.34516   1.80281

 Mulliken charges:
               1
     1  C   -0.631080
     2  H    0.262685
     3  H    0.262873
     4  H    0.211304
     5  H   -0.105782
 Sum of Mulliken charges =   0.00000

 Dipole moment (field-independent basis, Debye):
    X=             -0.1096    Y=             -0.0658    Z=              0.0192  Tot=              0.1293
 Quadrupole moment (field-independent basis, Debye-Ang):
   XX=            -10.9935   YY=             -8.2432   ZZ=             -9.1654
   XY=              0.9191   XZ=              0.5165   YZ=             -0.3363

 Normal termination of Gaussian 16 at Fri Sep 22 17:15:02 2023.
