 Gaussian 16, Revision A.03,
 Gaussian 16:  ES64L-G16RevA.03 25-Dec-2016

 ----------
 # hf/3-21g
 ----------

 ------------------------
 tmpdir/M1_conf_158_0.gjf
 ------------------------
 Symbolic Z-matrix:
 Charge =  0 Multiplicity = 1

                         Standard orientation:
 ---------------------------------------------------------------------
 Center     Atomic      Atomic             Coordinates (Angstroms)
 Number     Number       Type             X           Y           Z
 ---------------------------------------------------------------------
      1          6           0       -0.084131   -0.105602   -0.028868
      2          1           0        0.706888   -0.723472   -0.484326
      3          1           0       -0.233080   -0.194646    1.020737
      4          1           0       -0.981130    0.580854   -0.468237
      5          1           0        1.012111    0.970874    0.105032
 ---------------------------------------------------------------------

 SCF Done:  E(RHF) =  -39.8769236576     A.U. after   10 cycles

 The electronic state is 1-A.
 Alpha  occ. eigenvalues --  -11.20937  -0.91497  -0.58878  -0.53927  -0.40307
 Alpha virt. eigenvalues --    0.19243   0.25315   0.33440   0.35532   0.91316
 Alpha virt. eigenvalues --    1.00404   1.04790   1.20350   1.21576   1.30701
 Alpha virt. eigenvalues --    1.35590   1.86665

 Mulliken charges:
               1
     1  C   -0.694341
     2  H    0.248604
     3  H    0.235414
     4  H    0.212902
     5  H   -0.002579
 Sum of Mulliken charges =  -0.00000

 Dipole moment (field-independent basis, Debye):
    X=             -0.1818    Y=             -0.2357    Z=              0.0782  Tot=              0.3078
 Quadrupole moment (field-independent basis, Debye-Ang):
   XX=             -8.4485   YY=             -9.4364   ZZ=             -8.8440
   XY=             -1.1687   XZ=             -0.2439   YZ=             -0.0841

 Normal termination of Gaussian 16 at Fri Sep 22 17:14:28 2023.
