 Gaussian 16, Revision A.03,
 Gaussian 16:  ES64L-G16RevA.03 25-Dec-2016

 ----------
 # hf/3-21g
 ----------

 ------------------------
 tmpdir/M1_conf_150_0.gjf
 ------------------------
 Symbolic Z-matrix:
 Charge =  0 Multiplicity = 1

                         Standard orientation:
 ---------------------------------------------------------------------
 Center     Atomic      Atomic             Coordinates (Angstroms)
 Number     Number       Type             X           Y           Z
 ---------------------------------------------------------------------
      1          6           0        0.132363    0.058619    0.042681
      2          1           0        0.091259   -0.459025    0.893949
      3          1           0        0.760299   -0.300350   -0.737408
      4          1           0       -0.484510    1.030087   -0.050213
      5          1           0       -1.161227   -0.622427   -0.362414
 ---------------------------------------------------------------------

 SCF Done:  E(RHF) =  -39.8828272762     A.U. after   10 cycles

 The electronic state is 1-A.
 Alpha  occ. eigenvalues --  -11.19071  -0.93589  -0.59682  -0.57237  -0.40269
 Alpha virt. eigenvalues --    0.19303   0.28037   0.34897   0.36975   0.88919
 Alpha virt. eigenvalues --    0.96317   1.02527   1.17932   1.26299   1.34532
 Alpha virt. eigenvalues --    1.42928   1.90575

 Mulliken charges:
               1
     1  C   -0.709947
     2  H    0.253172
     3  H    0.234104
     4  H    0.223984
     5  H   -0.001313
 Sum of Mulliken charges =   0.00000

 Dipole moment (field-independent basis, Debye):
    X=              0.1429    Y=              0.0705    Z=              0.0834  Tot=              0.1798
 Quadrupole moment (field-independent basis, Debye-Ang):
   XX=             -9.0532   YY=             -8.7945   ZZ=             -8.6627
   XY=             -0.9253   XZ=             -0.5607   YZ=             -0.3743

 Normal termination of Gaussian 16 at Fri Sep 22 17:14:18 2023.
