 Gaussian 16, Revision A.03,
 Gaussian 16:  ES64L-G16RevA.03 25-Dec-2016

 ----------
 # hf/3-21g
 ----------

 ------------------------
 tmpdir/M1_conf_247_0.gjf
 ------------------------
 Symbolic Z-matrix:
 Charge =  0 Multiplicity = 1

                         Standard orientation:
 ---------------------------------------------------------------------
 Center     Atomic      Atomic             Coordinates (Angstroms)
 Number     Number       Type             X           Y           Z
 ---------------------------------------------------------------------
      1          6           0        0.310115   -0.095504   -0.041614
      2          1           0        0.168336   -0.181932    1.006327
      3          1           0       -0.500098   -0.665960   -0.625695
      4          1           0        0.450699    1.106096   -0.273261
      5          1           0       -1.979628    0.314822    0.142310
 ---------------------------------------------------------------------

 SCF Done:  E(RHF) =  -39.7224657636     A.U. after   12 cycles

 The electronic state is 1-A.
 Alpha  occ. eigenvalues --  -11.25893  -0.92973  -0.59004  -0.56125  -0.31194
 Alpha virt. eigenvalues --    0.01340   0.24841   0.30999   0.32786   0.89376
 Alpha virt. eigenvalues --    0.98053   1.00507   1.14147   1.24453   1.27200
 Alpha virt. eigenvalues --    1.33061   1.72385

 Mulliken charges:
               1
     1  C   -0.550087
     2  H    0.254865
     3  H    0.265231
     4  H    0.216009
     5  H   -0.186019
 Sum of Mulliken charges =  -0.00000

 Dipole moment (field-independent basis, Debye):
    X=              1.1768    Y=              0.0240    Z=              0.1593  Tot=              1.1877
 Quadrupole moment (field-independent basis, Debye-Ang):
   XX=            -12.3650   YY=             -8.8705   ZZ=             -9.0562
   XY=              1.2722   XZ=              0.7270   YZ=             -0.0450

 Normal termination of Gaussian 16 at Fri Sep 22 17:16:13 2023.
