 Gaussian 16, Revision A.03,
 Gaussian 16:  ES64L-G16RevA.03 25-Dec-2016

 ----------
 # hf/3-21g
 ----------

 ------------------------
 tmpdir/M1_conf_205_1.gjf
 ------------------------
 Symbolic Z-matrix:
 Charge =  0 Multiplicity = 1

                         Standard orientation:
 ---------------------------------------------------------------------
 Center     Atomic      Atomic             Coordinates (Angstroms)
 Number     Number       Type             X           Y           Z
 ---------------------------------------------------------------------
      1         17           0        0.000000   -0.000000    0.127039
      2          1           0       -0.000000    0.000000   -2.159656
 ---------------------------------------------------------------------

 SCF Done:  E(RHF) =  -457.727644537     A.U. after    9 cycles

 The electronic state is 1-SG.
 Alpha  occ. eigenvalues -- -104.12365 -10.50916  -7.97244  -7.96933  -7.96933
 Alpha  occ. eigenvalues --   -1.04114  -0.45562  -0.45562  -0.44806
 Alpha virt. eigenvalues --   -0.07721   0.68830   0.80120   0.80120   0.85860
 Alpha virt. eigenvalues --    1.10309

 Mulliken charges:
               1
     1  Cl  -0.261451
     2  H    0.261451
 Sum of Mulliken charges =  -0.00000

 Dipole moment (field-independent basis, Debye):
    X=             -0.0000    Y=              0.0000    Z=             -2.8091  Tot=              2.8091
 Quadrupole moment (field-independent basis, Debye-Ang):
   XX=            -14.7579   YY=            -14.7579   ZZ=             -6.3184
   XY=              0.0000   XZ=             -0.0000   YZ=              0.0000

 Normal termination of Gaussian 16 at Fri Sep 22 17:15:23 2023.
