 Gaussian 16, Revision A.03,
 Gaussian 16:  ES64L-G16RevA.03 25-Dec-2016

 ----------
 # hf/3-21g
 ----------

 ------------------------
 tmpdir/M1_conf_173_0.gjf
 ------------------------
 Symbolic Z-matrix:
 Charge =  0 Multiplicity = 1

                         Standard orientation:
 ---------------------------------------------------------------------
 Center     Atomic      Atomic             Coordinates (Angstroms)
 Number     Number       Type             X           Y           Z
 ---------------------------------------------------------------------
      1          6           0        0.201168   -0.074679   -0.077919
      2          1           0        0.507000    0.974077    0.120415
      3          1           0        0.074049   -0.592975    0.807333
      4          1           0       -0.455611   -0.308581   -0.729920
      5          1           0       -1.332445    0.375552    0.269687
 ---------------------------------------------------------------------

 SCF Done:  E(RHF) =  -39.8113089333     A.U. after   11 cycles

 The electronic state is 1-A.
 Alpha  occ. eigenvalues --  -11.19079  -0.96892  -0.62392  -0.57599  -0.37546
 Alpha virt. eigenvalues --    0.12781   0.29431   0.34974   0.37811   0.85884
 Alpha virt. eigenvalues --    0.92119   1.03845   1.18383   1.29305   1.37986
 Alpha virt. eigenvalues --    1.47974   1.88713

 Mulliken charges:
               1
     1  C   -0.695272
     2  H    0.235410
     3  H    0.246777
     4  H    0.271872
     5  H   -0.058787
 Sum of Mulliken charges =  -0.00000

 Dipole moment (field-independent basis, Debye):
    X=             -0.0502    Y=              0.0604    Z=              0.1592  Tot=              0.1775
 Quadrupole moment (field-independent basis, Debye-Ang):
   XX=             -9.8435   YY=             -8.6706   ZZ=             -8.8211
   XY=              0.9172   XZ=              0.8125   YZ=             -0.1770

 Normal termination of Gaussian 16 at Fri Sep 22 17:14:45 2023.
