 Gaussian 16, Revision A.03,
 Gaussian 16:  ES64L-G16RevA.03 25-Dec-2016

 ----------
 # hf/3-21g
 ----------

 ------------------------
 tmpdir/M1_conf_183_0.gjf
 ------------------------
 Symbolic Z-matrix:
 Charge =  0 Multiplicity = 1

                         Standard orientation:
 ---------------------------------------------------------------------
 Center     Atomic      Atomic             Coordinates (Angstroms)
 Number     Number       Type             X           Y           Z
 ---------------------------------------------------------------------
      1          6           0       -0.224687    0.021364   -0.004022
      2          1           0        0.211434    1.020939   -0.292148
      3          1           0       -0.182513   -0.721894   -0.683779
      4          1           0       -0.187160   -0.191761    0.929953
      5          1           0        1.506361   -0.235471    0.070103
 ---------------------------------------------------------------------

 SCF Done:  E(RHF) =  -39.8158119045     A.U. after   11 cycles

 The electronic state is 1-A.
 Alpha  occ. eigenvalues --  -11.19783  -0.95857  -0.62825  -0.58354  -0.36386
 Alpha virt. eigenvalues --    0.11816   0.29293   0.35066   0.37801   0.86011
 Alpha virt. eigenvalues --    0.91678   1.03172   1.21610   1.27712   1.36669
 Alpha virt. eigenvalues --    1.46524   1.86646

 Mulliken charges:
               1
     1  C   -0.665097
     2  H    0.239737
     3  H    0.257479
     4  H    0.263166
     5  H   -0.095285
 Sum of Mulliken charges =  -0.00000

 Dipole moment (field-independent basis, Debye):
    X=             -0.3959    Y=              0.0459    Z=             -0.0022  Tot=              0.3986
 Quadrupole moment (field-independent basis, Debye-Ang):
   XX=            -10.5987   YY=             -8.3502   ZZ=             -8.3946
   XY=              0.7039   XZ=             -0.2346   YZ=              0.0829

 Normal termination of Gaussian 16 at Fri Sep 22 17:14:57 2023.
