 Gaussian 16, Revision A.03,
 Gaussian 16:  ES64L-G16RevA.03 25-Dec-2016

 ----------
 # hf/3-21g
 ----------

 -----------------------
 tmpdir/M1_conf_76_0.gjf
 -----------------------
 Symbolic Z-matrix:
 Charge =  0 Multiplicity = 1

                         Standard orientation:
 ---------------------------------------------------------------------
 Center     Atomic      Atomic             Coordinates (Angstroms)
 Number     Number       Type             X           Y           Z
 ---------------------------------------------------------------------
      1          6           0        0.046030    0.022488    0.003895
      2          1           0        1.106779   -0.376342   -0.402138
      3          1           0       -0.219212    1.184475   -0.104916
      4          1           0       -0.121021   -0.340004    1.003958
      5          1           0       -1.042726   -0.603054   -0.520274
 ---------------------------------------------------------------------

 SCF Done:  E(RHF) =  -39.9218875042     A.U. after    9 cycles

 The electronic state is 1-A.
 Alpha  occ. eigenvalues --  -11.20134  -0.90655  -0.54123  -0.53378  -0.46211
 Alpha virt. eigenvalues --    0.23668   0.28072   0.32125   0.34343   0.92929
 Alpha virt. eigenvalues --    1.01104   1.04014   1.19079   1.21694   1.26578
 Alpha virt. eigenvalues --    1.34442   1.89242

 Mulliken charges:
               1
     1  C   -0.700967
     2  H    0.186758
     3  H    0.187808
     4  H    0.219235
     5  H    0.107167
 Sum of Mulliken charges =   0.00000

 Dipole moment (field-independent basis, Debye):
    X=              0.0580    Y=              0.0206    Z=              0.2561  Tot=              0.2634
 Quadrupole moment (field-independent basis, Debye-Ang):
   XX=             -8.4062   YY=             -8.6004   ZZ=             -9.2280
   XY=             -0.2616   XZ=             -0.2788   YZ=             -0.2074

 Normal termination of Gaussian 16 at Fri Sep 22 17:12:45 2023.
