 Gaussian 16, Revision A.03,
 Gaussian 16:  ES64L-G16RevA.03 25-Dec-2016

 ----------
 # hf/3-21g
 ----------

 -----------------------
 tmpdir/M1_conf_55_1.gjf
 -----------------------
 Symbolic Z-matrix:
 Charge =  0 Multiplicity = 1

                         Standard orientation:
 ---------------------------------------------------------------------
 Center     Atomic      Atomic             Coordinates (Angstroms)
 Number     Number       Type             X           Y           Z
 ---------------------------------------------------------------------
      1         17           0       -0.000000    0.000000    0.087362
      2          1           0        0.000000    0.000000   -1.485151
 ---------------------------------------------------------------------

 SCF Done:  E(RHF) =  -457.843644937     A.U. after    8 cycles

 The electronic state is 1-SG.
 Alpha  occ. eigenvalues -- -104.12783 -10.51813  -7.98174  -7.97778  -7.97778
 Alpha  occ. eigenvalues --   -1.08415  -0.55859  -0.47374  -0.47374
 Alpha virt. eigenvalues --    0.07020   0.70513   0.78585   0.78585   0.85913
 Alpha virt. eigenvalues --    1.08017

 Mulliken charges:
               1
     1  Cl  -0.239214
     2  H    0.239214
 Sum of Mulliken charges =   0.00000

 Dipole moment (field-independent basis, Debye):
    X=              0.0000    Y=             -0.0000    Z=             -1.9906  Tot=              1.9906
 Quadrupole moment (field-independent basis, Debye-Ang):
   XX=            -14.4372   YY=            -14.4372   ZZ=            -10.0240
   XY=              0.0000   XZ=              0.0000   YZ=              0.0000

 Normal termination of Gaussian 16 at Fri Sep 22 17:12:15 2023.
