 Gaussian 16, Revision A.03,
 Gaussian 16:  ES64L-G16RevA.03 25-Dec-2016

 ----------
 # hf/3-21g
 ----------

 ------------------------
 tmpdir/M1_conf_253_0.gjf
 ------------------------
 Symbolic Z-matrix:
 Charge =  0 Multiplicity = 1

                         Standard orientation:
 ---------------------------------------------------------------------
 Center     Atomic      Atomic             Coordinates (Angstroms)
 Number     Number       Type             X           Y           Z
 ---------------------------------------------------------------------
      1          6           0       -0.285932   -0.041546   -0.074667
      2          1           0       -0.284783    1.024099   -0.027134
      3          1           0        0.457944   -0.498945   -0.572472
      4          1           0       -0.535986   -0.391004    0.784511
      5          1           0        2.078418    0.115129    0.263096
 ---------------------------------------------------------------------

 SCF Done:  E(RHF) =  -39.7175505903     A.U. after   13 cycles

 The electronic state is 1-A.
 Alpha  occ. eigenvalues --  -11.22586  -0.98174  -0.65051  -0.61578  -0.29767
 Alpha virt. eigenvalues --    0.01134   0.29842   0.34648   0.37103   0.83480
 Alpha virt. eigenvalues --    0.87781   1.00019   1.17166   1.31206   1.35789
 Alpha virt. eigenvalues --    1.44241   1.76790

 Mulliken charges:
               1
     1  C   -0.568947
     2  H    0.246364
     3  H    0.282785
     4  H    0.251732
     5  H   -0.211934
 Sum of Mulliken charges =   0.00000

 Dipole moment (field-independent basis, Debye):
    X=             -1.9132    Y=             -0.0043    Z=              0.0413  Tot=              1.9137
 Quadrupole moment (field-independent basis, Debye-Ang):
   XX=            -12.5458   YY=             -8.4542   ZZ=             -9.0681
   XY=             -0.5453   XZ=             -1.2625   YZ=             -0.0176

 Normal termination of Gaussian 16 at Fri Sep 22 17:16:20 2023.
