 Gaussian 16, Revision A.03,
 Gaussian 16:  ES64L-G16RevA.03 25-Dec-2016

 ----------
 # hf/3-21g
 ----------

 ------------------------
 tmpdir/M1_conf_171_0.gjf
 ------------------------
 Symbolic Z-matrix:
 Charge =  0 Multiplicity = 1

                         Standard orientation:
 ---------------------------------------------------------------------
 Center     Atomic      Atomic             Coordinates (Angstroms)
 Number     Number       Type             X           Y           Z
 ---------------------------------------------------------------------
      1          6           0       -0.214715   -0.035613   -0.081851
      2          1           0       -0.347931   -0.497528    0.797579
      3          1           0       -0.179959    1.051795   -0.014080
      4          1           0        0.487840   -0.502930   -0.663796
      5          1           0        1.328340    0.162341    0.371401
 ---------------------------------------------------------------------

 SCF Done:  E(RHF) =  -39.8214202951     A.U. after   11 cycles

 The electronic state is 1-A.
 Alpha  occ. eigenvalues --  -11.19037  -0.96535  -0.60572  -0.59043  -0.37644
 Alpha virt. eigenvalues --    0.13089   0.29559   0.35603   0.36553   0.86760
 Alpha virt. eigenvalues --    0.91558   1.03934   1.17216   1.32137   1.40180
 Alpha virt. eigenvalues --    1.41159   1.89927

 Mulliken charges:
               1
     1  C   -0.702342
     2  H    0.250560
     3  H    0.242014
     4  H    0.260954
     5  H   -0.051186
 Sum of Mulliken charges =   0.00000

 Dipole moment (field-independent basis, Debye):
    X=              0.1751    Y=              0.0274    Z=              0.2202  Tot=              0.2827
 Quadrupole moment (field-independent basis, Debye-Ang):
   XX=             -9.8969   YY=             -8.3089   ZZ=             -9.1642
   XY=             -0.4146   XZ=             -1.0508   YZ=             -0.1322

 Normal termination of Gaussian 16 at Fri Sep 22 17:14:43 2023.
