 Gaussian 16, Revision A.03,
 Gaussian 16:  ES64L-G16RevA.03 25-Dec-2016

 ----------
 # hf/3-21g
 ----------

 -----------------------
 tmpdir/M1_conf_35_0.gjf
 -----------------------
 Symbolic Z-matrix:
 Charge =  0 Multiplicity = 1

                         Standard orientation:
 ---------------------------------------------------------------------
 Center     Atomic      Atomic             Coordinates (Angstroms)
 Number     Number       Type             X           Y           Z
 ---------------------------------------------------------------------
      1          6           0       -0.018638   -0.009497   -0.027625
      2          1           0        0.695794   -0.263770   -0.794756
      3          1           0       -0.519104    1.011127   -0.101615
      4          1           0        0.807329    0.062643    0.847576
      5          1           0       -0.872191   -0.753018    0.214544
 ---------------------------------------------------------------------

 SCF Done:  E(RHF) =  -39.9543121239     A.U. after    9 cycles

 The electronic state is 1-A.
 Alpha  occ. eigenvalues --  -11.17409  -0.92388  -0.57076  -0.52167  -0.49118
 Alpha virt. eigenvalues --    0.27415   0.31125   0.32569   0.35590   0.93470
 Alpha virt. eigenvalues --    0.95464   1.01210   1.23978   1.26559   1.29679
 Alpha virt. eigenvalues --    1.36306   1.91210

 Mulliken charges:
               1
     1  C   -0.755456
     2  H    0.214042
     3  H    0.192741
     4  H    0.158666
     5  H    0.190008
 Sum of Mulliken charges =  -0.00000

 Dipole moment (field-independent basis, Debye):
    X=              0.0674    Y=              0.0190    Z=             -0.0301  Tot=              0.0763
 Quadrupole moment (field-independent basis, Debye-Ang):
   XX=             -7.9792   YY=             -8.6547   ZZ=             -9.1262
   XY=             -0.0466   XZ=             -0.2228   YZ=              0.0147

 Normal termination of Gaussian 16 at Fri Sep 22 17:11:51 2023.
