 Gaussian 16, Revision A.03,
 Gaussian 16:  ES64L-G16RevA.03 25-Dec-2016

 ----------
 # hf/3-21g
 ----------

 ------------------------
 tmpdir/M1_conf_241_0.gjf
 ------------------------
 Symbolic Z-matrix:
 Charge =  0 Multiplicity = 1

                         Standard orientation:
 ---------------------------------------------------------------------
 Center     Atomic      Atomic             Coordinates (Angstroms)
 Number     Number       Type             X           Y           Z
 ---------------------------------------------------------------------
      1          6           0        0.326693   -0.051037    0.048513
      2          1           0        0.332088    1.049858   -0.322274
      3          1           0       -0.409865   -0.092335    0.786519
      4          1           0        0.029234   -0.789082   -0.571703
      5          1           0       -1.911617    0.137779   -0.183619
 ---------------------------------------------------------------------

 SCF Done:  E(RHF) =  -39.7198088960     A.U. after   13 cycles

 The electronic state is 1-A.
 Alpha  occ. eigenvalues --  -11.23300  -0.96270  -0.61095  -0.57292  -0.32007
 Alpha virt. eigenvalues --    0.01026   0.27566   0.34524   0.35032   0.84635
 Alpha virt. eigenvalues --    0.93431   1.01335   1.18778   1.27622   1.35406
 Alpha virt. eigenvalues --    1.38759   1.76171

 Mulliken charges:
               1
     1  C   -0.589143
     2  H    0.232020
     3  H    0.263898
     4  H    0.263282
     5  H   -0.170057
 Sum of Mulliken charges =  -0.00000

 Dipole moment (field-independent basis, Debye):
    X=              0.9325    Y=             -0.0019    Z=             -0.1050  Tot=              0.9384
 Quadrupole moment (field-independent basis, Debye-Ang):
   XX=            -11.8813   YY=             -8.3501   ZZ=             -9.4277
   XY=              0.4784   XZ=             -0.7280   YZ=              0.1151

 Normal termination of Gaussian 16 at Fri Sep 22 17:16:06 2023.
