 Gaussian 16, Revision A.03,
 Gaussian 16:  ES64L-G16RevA.03 25-Dec-2016

 ----------
 # hf/3-21g
 ----------

 ------------------------
 tmpdir/M1_conf_227_0.gjf
 ------------------------
 Symbolic Z-matrix:
 Charge =  0 Multiplicity = 1

                         Standard orientation:
 ---------------------------------------------------------------------
 Center     Atomic      Atomic             Coordinates (Angstroms)
 Number     Number       Type             X           Y           Z
 ---------------------------------------------------------------------
      1          6           0        0.213850   -0.091017   -0.075110
      2          1           0        0.445950   -0.409109    0.878535
      3          1           0       -0.701767   -0.542843   -0.606956
      4          1           0        0.707125    1.030711   -0.168233
      5          1           0       -1.734408    0.467344    0.347316
 ---------------------------------------------------------------------

 SCF Done:  E(RHF) =  -39.7596653688     A.U. after   12 cycles

 The electronic state is 1-A.
 Alpha  occ. eigenvalues --  -11.24824  -0.92550  -0.60648  -0.55868  -0.32448
 Alpha virt. eigenvalues --    0.06589   0.23726   0.31825   0.34096   0.89037
 Alpha virt. eigenvalues --    1.00569   1.02923   1.14404   1.25116   1.27003
 Alpha virt. eigenvalues --    1.34847   1.71430

 Mulliken charges:
               1
     1  C   -0.576054
     2  H    0.250561
     3  H    0.284001
     4  H    0.219763
     5  H   -0.178271
 Sum of Mulliken charges =   0.00000

 Dipole moment (field-independent basis, Debye):
    X=              1.1688    Y=             -0.2727    Z=             -0.0186  Tot=              1.2003
 Quadrupole moment (field-independent basis, Debye-Ang):
   XX=            -10.6407   YY=             -9.0682   ZZ=             -9.4520
   XY=              1.6755   XZ=              1.4589   YZ=             -0.3092

 Normal termination of Gaussian 16 at Fri Sep 22 17:15:49 2023.
