 Gaussian 16, Revision A.03,
 Gaussian 16:  ES64L-G16RevA.03 25-Dec-2016

 ----------
 # hf/3-21g
 ----------

 ------------------------
 tmpdir/M1_conf_153_0.gjf
 ------------------------
 Symbolic Z-matrix:
 Charge =  0 Multiplicity = 1

                         Standard orientation:
 ---------------------------------------------------------------------
 Center     Atomic      Atomic             Coordinates (Angstroms)
 Number     Number       Type             X           Y           Z
 ---------------------------------------------------------------------
      1          6           0        0.121955    0.029719   -0.058783
      2          1           0       -0.258051    0.978949   -0.281530
      3          1           0        0.544556   -0.047742    0.933295
      4          1           0        0.294108   -0.746489   -0.579131
      5          1           0       -1.312342   -0.363030    0.280064
 ---------------------------------------------------------------------

 SCF Done:  E(RHF) =  -39.8793309582     A.U. after   10 cycles

 The electronic state is 1-A.
 Alpha  occ. eigenvalues --  -11.17709  -0.95023  -0.63377  -0.56338  -0.40736
 Alpha virt. eigenvalues --    0.19473   0.30401   0.34814   0.38709   0.87664
 Alpha virt. eigenvalues --    0.93993   1.02829   1.18544   1.30542   1.35419
 Alpha virt. eigenvalues --    1.50015   1.91635

 Mulliken charges:
               1
     1  C   -0.720322
     2  H    0.250378
     3  H    0.215593
     4  H    0.256916
     5  H   -0.002565
 Sum of Mulliken charges =   0.00000

 Dipole moment (field-independent basis, Debye):
    X=              0.3224    Y=              0.1191    Z=             -0.0498  Tot=              0.3473
 Quadrupole moment (field-independent basis, Debye-Ang):
   XX=             -9.3315   YY=             -8.1607   ZZ=             -8.7036
   XY=             -0.6968   XZ=              0.3940   YZ=              0.2275

 Normal termination of Gaussian 16 at Fri Sep 22 17:14:22 2023.
