 Gaussian 16, Revision A.03,
 Gaussian 16:  ES64L-G16RevA.03 25-Dec-2016

 ----------
 # hf/3-21g
 ----------

 -----------------------
 tmpdir/M1_conf_86_0.gjf
 -----------------------
 Symbolic Z-matrix:
 Charge =  0 Multiplicity = 1

                         Standard orientation:
 ---------------------------------------------------------------------
 Center     Atomic      Atomic             Coordinates (Angstroms)
 Number     Number       Type             X           Y           Z
 ---------------------------------------------------------------------
      1          6           0       -0.017652   -0.017806    0.025251
      2          1           0       -0.005157    1.175882    0.256787
      3          1           0       -1.028336   -0.252239   -0.576370
      4          1           0        0.132372   -0.648642    0.866578
      5          1           0        1.007034   -0.168164   -0.698501
 ---------------------------------------------------------------------

 SCF Done:  E(RHF) =  -39.9416843224     A.U. after    9 cycles

 The electronic state is 1-A.
 Alpha  occ. eigenvalues --  -11.19164  -0.91084  -0.55564  -0.51423  -0.48686
 Alpha virt. eigenvalues --    0.26003   0.29464   0.31242   0.35265   0.93299
 Alpha virt. eigenvalues --    0.99677   1.02234   1.19445   1.24034   1.25972
 Alpha virt. eigenvalues --    1.35635   1.90680

 Mulliken charges:
               1
     1  C   -0.714882
     2  H    0.170352
     3  H    0.178206
     4  H    0.219662
     5  H    0.146662
 Sum of Mulliken charges =  -0.00000

 Dipole moment (field-independent basis, Debye):
    X=             -0.0103    Y=             -0.0262    Z=              0.0862  Tot=              0.0907
 Quadrupole moment (field-independent basis, Debye-Ang):
   XX=             -8.5543   YY=             -8.6102   ZZ=             -8.8786
   XY=              0.0115   XZ=              0.1634   YZ=             -0.2010

 Normal termination of Gaussian 16 at Fri Sep 22 17:12:57 2023.
