 Gaussian 16, Revision A.03,
 Gaussian 16:  ES64L-G16RevA.03 25-Dec-2016

 ----------
 # hf/3-21g
 ----------

 -----------------------
 tmpdir/M1_conf_44_0.gjf
 -----------------------
 Symbolic Z-matrix:
 Charge =  0 Multiplicity = 1

                         Standard orientation:
 ---------------------------------------------------------------------
 Center     Atomic      Atomic             Coordinates (Angstroms)
 Number     Number       Type             X           Y           Z
 ---------------------------------------------------------------------
      1          6           0       -0.045069    0.008951   -0.049764
      2          1           0       -0.742343   -0.689703   -0.386683
      3          1           0       -0.551662    0.872069    0.402830
      4          1           0        0.982572    0.271682   -0.605449
      5          1           0        0.581847   -0.507755    0.887888
 ---------------------------------------------------------------------

 SCF Done:  E(RHF) =  -39.9430399096     A.U. after    9 cycles

 The electronic state is 1-A.
 Alpha  occ. eigenvalues --  -11.17411  -0.92743  -0.57423  -0.54358  -0.46675
 Alpha virt. eigenvalues --    0.27230   0.28657   0.34155   0.36169   0.90979
 Alpha virt. eigenvalues --    0.98025   1.00073   1.23204   1.25167   1.32958
 Alpha virt. eigenvalues --    1.38057   1.92788

 Mulliken charges:
               1
     1  C   -0.757417
     2  H    0.224369
     3  H    0.206451
     4  H    0.186186
     5  H    0.140410
 Sum of Mulliken charges =   0.00000

 Dipole moment (field-independent basis, Debye):
    X=              0.0145    Y=             -0.0216    Z=              0.0856  Tot=              0.0895
 Quadrupole moment (field-independent basis, Debye-Ang):
   XX=             -7.9058   YY=             -8.7092   ZZ=             -9.1892
   XY=              0.1421   XZ=             -0.0612   YZ=              0.2893

 Normal termination of Gaussian 16 at Fri Sep 22 17:12:02 2023.
