 Gaussian 16, Revision A.03,
 Gaussian 16:  ES64L-G16RevA.03 25-Dec-2016

 ----------
 # hf/3-21g
 ----------

 -----------------------
 tmpdir/M1_conf_31_0.gjf
 -----------------------
 Symbolic Z-matrix:
 Charge =  0 Multiplicity = 1

                         Standard orientation:
 ---------------------------------------------------------------------
 Center     Atomic      Atomic             Coordinates (Angstroms)
 Number     Number       Type             X           Y           Z
 ---------------------------------------------------------------------
      1          6           0        0.005118   -0.004882   -0.010040
      2          1           0       -0.066663    0.978644   -0.428357
      3          1           0        0.294910    0.158994    0.930513
      4          1           0        0.799393   -0.621461   -0.414679
      5          1           0       -1.058348   -0.486883   -0.027238
 ---------------------------------------------------------------------

 SCF Done:  E(RHF) =  -39.9624599220     A.U. after    9 cycles

 The electronic state is 1-A.
 Alpha  occ. eigenvalues --  -11.14305  -0.95254  -0.56029  -0.54679  -0.52667
 Alpha virt. eigenvalues --    0.28970   0.33619   0.35813   0.36790   0.87304
 Alpha virt. eigenvalues --    0.92850   0.97388   1.27627   1.34269   1.37523
 Alpha virt. eigenvalues --    1.45154   1.95699

 Mulliken charges:
               1
     1  C   -0.796992
     2  H    0.201474
     3  H    0.223695
     4  H    0.198443
     5  H    0.173381
 Sum of Mulliken charges =   0.00000

 Dipole moment (field-independent basis, Debye):
    X=              0.0977    Y=              0.0922    Z=              0.1474  Tot=              0.1994
 Quadrupole moment (field-independent basis, Debye-Ang):
   XX=             -8.0977   YY=             -8.3225   ZZ=             -8.7334
   XY=             -0.0770   XZ=              0.0473   YZ=              0.0203

 Normal termination of Gaussian 16 at Fri Sep 22 17:11:47 2023.
