 Gaussian 16, Revision A.03,
 Gaussian 16:  ES64L-G16RevA.03 25-Dec-2016

 ----------
 # hf/3-21g
 ----------

 -----------------------
 tmpdir/M1_conf_72_0.gjf
 -----------------------
 Symbolic Z-matrix:
 Charge =  0 Multiplicity = 1

                         Standard orientation:
 ---------------------------------------------------------------------
 Center     Atomic      Atomic             Coordinates (Angstroms)
 Number     Number       Type             X           Y           Z
 ---------------------------------------------------------------------
      1          6           0       -0.094219    0.026569   -0.018313
      2          1           0       -0.798655   -0.508389   -0.434426
      3          1           0       -0.157117    0.121006    0.965294
      4          1           0        0.430517    0.940248   -0.384022
      5          1           0        1.090567   -0.712280   -0.036969
 ---------------------------------------------------------------------

 SCF Done:  E(RHF) =  -39.9099954405     A.U. after   10 cycles

 The electronic state is 1-A.
 Alpha  occ. eigenvalues --  -11.16294  -0.95120  -0.61719  -0.55669  -0.44212
 Alpha virt. eigenvalues --    0.23703   0.30208   0.36285   0.38282   0.86028
 Alpha virt. eigenvalues --    0.94500   1.01688   1.19153   1.30662   1.42346
 Alpha virt. eigenvalues --    1.47377   1.95403

 Mulliken charges:
               1
     1  C   -0.752819
     2  H    0.233526
     3  H    0.237459
     4  H    0.216101
     5  H    0.065733
 Sum of Mulliken charges =   0.00000

 Dipole moment (field-independent basis, Debye):
    X=             -0.1537    Y=              0.1818    Z=              0.1402  Tot=              0.2763
 Quadrupole moment (field-independent basis, Debye-Ang):
   XX=             -8.3822   YY=             -8.6639   ZZ=             -8.6315
   XY=              0.7208   XZ=              0.0988   YZ=              0.0719

 Normal termination of Gaussian 16 at Fri Sep 22 17:12:35 2023.
