 Gaussian 16, Revision A.03,
 Gaussian 16:  ES64L-G16RevA.03 25-Dec-2016

 ----------
 # hf/3-21g
 ----------

 ------------------------
 tmpdir/M1_conf_205_0.gjf
 ------------------------
 Symbolic Z-matrix:
 Charge =  0 Multiplicity = 1

                         Standard orientation:
 ---------------------------------------------------------------------
 Center     Atomic      Atomic             Coordinates (Angstroms)
 Number     Number       Type             X           Y           Z
 ---------------------------------------------------------------------
      1          6           0        0.235527   -0.016163   -0.071798
      2          1           0        0.441454   -0.199942    0.973966
      3          1           0       -0.194375   -0.837033   -0.541314
      4          1           0        0.025864    1.086685   -0.255178
      5          1           0       -1.686107    0.047268    0.253315
 ---------------------------------------------------------------------

 SCF Done:  E(RHF) =  -39.7958321848     A.U. after   11 cycles

 The electronic state is 1-A.
 Alpha  occ. eigenvalues --  -11.22688  -0.93702  -0.61327  -0.57207  -0.33949
 Alpha virt. eigenvalues --    0.08138   0.27494   0.32935   0.35421   0.89255
 Alpha virt. eigenvalues --    0.95638   1.02326   1.19865   1.27147   1.30942
 Alpha virt. eigenvalues --    1.36384   1.76743

 Mulliken charges:
               1
     1  C   -0.620955
     2  H    0.235257
     3  H    0.274793
     4  H    0.256161
     5  H   -0.145256
 Sum of Mulliken charges =   0.00000

 Dipole moment (field-independent basis, Debye):
    X=              0.8356    Y=             -0.0138    Z=              0.0135  Tot=              0.8358
 Quadrupole moment (field-independent basis, Debye-Ang):
   XX=            -11.3227   YY=             -7.9287   ZZ=             -9.0619
   XY=              0.1774   XZ=              0.8899   YZ=              0.0713

 Normal termination of Gaussian 16 at Fri Sep 22 17:15:23 2023.
