 Gaussian 16, Revision A.03,
 Gaussian 16:  ES64L-G16RevA.03 25-Dec-2016

 ----------
 # hf/3-21g
 ----------

 ------------------------
 tmpdir/M1_conf_198_0.gjf
 ------------------------
 Symbolic Z-matrix:
 Charge =  0 Multiplicity = 1

                         Standard orientation:
 ---------------------------------------------------------------------
 Center     Atomic      Atomic             Coordinates (Angstroms)
 Number     Number       Type             X           Y           Z
 ---------------------------------------------------------------------
      1          6           0       -0.300821    0.023646    0.059492
      2          1           0       -0.438933   -0.756199   -0.594879
      3          1           0        0.499398   -0.272276    0.848024
      4          1           0        0.175726    1.108469   -0.272676
      5          1           0        1.568734   -0.221870   -0.337418
 ---------------------------------------------------------------------

 SCF Done:  E(RHF) =  -39.7559788064     A.U. after   12 cycles

 The electronic state is 1-A.
 Alpha  occ. eigenvalues --  -11.23693  -0.93410  -0.60687  -0.52465  -0.35100
 Alpha virt. eigenvalues --    0.06270   0.25676   0.30018   0.35119   0.90168
 Alpha virt. eigenvalues --    0.97444   1.02132   1.20605   1.23042   1.28605
 Alpha virt. eigenvalues --    1.34270   1.78638

 Mulliken charges:
               1
     1  C   -0.593745
     2  H    0.256737
     3  H    0.234765
     4  H    0.223615
     5  H   -0.121371
 Sum of Mulliken charges =   0.00000

 Dipole moment (field-independent basis, Debye):
    X=             -0.1087    Y=             -0.0508    Z=             -0.1945  Tot=              0.2285
 Quadrupole moment (field-independent basis, Debye-Ang):
   XX=            -10.6768   YY=             -8.5633   ZZ=             -9.7518
   XY=              0.7505   XZ=              1.1567   YZ=             -0.0118

 Normal termination of Gaussian 16 at Fri Sep 22 17:15:15 2023.
