 Gaussian 16, Revision A.03,
 Gaussian 16:  ES64L-G16RevA.03 25-Dec-2016

 ----------
 # hf/3-21g
 ----------

 ------------------------
 tmpdir/M1_conf_229_0.gjf
 ------------------------
 Symbolic Z-matrix:
 Charge =  0 Multiplicity = 1

                         Standard orientation:
 ---------------------------------------------------------------------
 Center     Atomic      Atomic             Coordinates (Angstroms)
 Number     Number       Type             X           Y           Z
 ---------------------------------------------------------------------
      1          6           0        0.210634   -0.072978   -0.087057
      2          1           0        0.580297   -0.360398    0.909483
      3          1           0       -0.665875   -0.622284   -0.558426
      4          1           0        0.589278    1.017420   -0.206571
      5          1           0       -1.767505    0.403132    0.377856
 ---------------------------------------------------------------------

 SCF Done:  E(RHF) =  -39.7679425032     A.U. after   12 cycles

 The electronic state is 1-A.
 Alpha  occ. eigenvalues --  -11.24915  -0.92175  -0.61114  -0.55948  -0.32224
 Alpha virt. eigenvalues --    0.06490   0.24959   0.31300   0.33690   0.90974
 Alpha virt. eigenvalues --    0.99857   1.02365   1.14286   1.26439   1.27169
 Alpha virt. eigenvalues --    1.32159   1.70114

 Mulliken charges:
               1
     1  C   -0.583377
     2  H    0.234339
     3  H    0.289852
     4  H    0.240440
     5  H   -0.181255
 Sum of Mulliken charges =  -0.00000

 Dipole moment (field-independent basis, Debye):
    X=              1.2781    Y=             -0.2350    Z=             -0.0971  Tot=              1.3032
 Quadrupole moment (field-independent basis, Debye-Ang):
   XX=            -10.8093   YY=             -8.9156   ZZ=             -9.4901
   XY=              1.6027   XZ=              1.5145   YZ=             -0.2241

 Normal termination of Gaussian 16 at Fri Sep 22 17:15:52 2023.
