 Gaussian 16, Revision A.03,
 Gaussian 16:  ES64L-G16RevA.03 25-Dec-2016

 ----------
 # hf/3-21g
 ----------

 ------------------------
 tmpdir/M1_conf_154_0.gjf
 ------------------------
 Symbolic Z-matrix:
 Charge =  0 Multiplicity = 1

                         Standard orientation:
 ---------------------------------------------------------------------
 Center     Atomic      Atomic             Coordinates (Angstroms)
 Number     Number       Type             X           Y           Z
 ---------------------------------------------------------------------
      1          6           0        0.114668    0.053024   -0.050722
      2          1           0       -0.481966    0.983997   -0.227087
      3          1           0        0.504617   -0.025521    0.942312
      4          1           0        0.516633   -0.640015   -0.604581
      5          1           0       -1.227294   -0.636606    0.193687
 ---------------------------------------------------------------------

 SCF Done:  E(RHF) =  -39.8820307944     A.U. after   10 cycles

 The electronic state is 1-A.
 Alpha  occ. eigenvalues --  -11.18593  -0.94041  -0.61832  -0.55623  -0.40676
 Alpha virt. eigenvalues --    0.19604   0.28755   0.34365   0.37995   0.87555
 Alpha virt. eigenvalues --    0.98837   1.02524   1.19071   1.26877   1.34987
 Alpha virt. eigenvalues --    1.45470   1.90155

 Mulliken charges:
               1
     1  C   -0.718366
     2  H    0.241971
     3  H    0.220072
     4  H    0.255371
     5  H    0.000952
 Sum of Mulliken charges =   0.00000

 Dipole moment (field-independent basis, Debye):
    X=              0.2939    Y=              0.1784    Z=              0.0100  Tot=              0.3440
 Quadrupole moment (field-independent basis, Debye-Ang):
   XX=             -8.9620   YY=             -8.5470   ZZ=             -8.8056
   XY=             -1.0447   XZ=              0.2065   YZ=              0.2490

 Normal termination of Gaussian 16 at Fri Sep 22 17:14:23 2023.
