 Gaussian 16, Revision A.03,
 Gaussian 16:  ES64L-G16RevA.03 25-Dec-2016

 ----------
 # hf/3-21g
 ----------

 -----------------------
 tmpdir/M1_conf_22_0.gjf
 -----------------------
 Symbolic Z-matrix:
 Charge =  0 Multiplicity = 1

                         Standard orientation:
 ---------------------------------------------------------------------
 Center     Atomic      Atomic             Coordinates (Angstroms)
 Number     Number       Type             X           Y           Z
 ---------------------------------------------------------------------
      1          6           0        0.029671   -0.054888    0.012355
      2          1           0       -0.493556   -0.087337    0.920051
      3          1           0       -0.078808   -0.853889   -0.555433
      4          1           0        1.081176    0.436670    0.060391
      5          1           0       -0.686841    0.833883   -0.499142
 ---------------------------------------------------------------------

 SCF Done:  E(RHF) =  -39.9446001588     A.U. after    9 cycles

 The electronic state is 1-A.
 Alpha  occ. eigenvalues --  -11.15909  -0.94336  -0.58731  -0.54902  -0.47795
 Alpha virt. eigenvalues --    0.27560   0.30305   0.35077   0.37762   0.88265
 Alpha virt. eigenvalues --    0.94162   0.99638   1.23525   1.27026   1.38488
 Alpha virt. eigenvalues --    1.44871   1.95470

 Mulliken charges:
               1
     1  C   -0.767258
     2  H    0.218754
     3  H    0.231047
     4  H    0.187259
     5  H    0.130198
 Sum of Mulliken charges =  -0.00000

 Dipole moment (field-independent basis, Debye):
    X=             -0.0773    Y=             -0.0470    Z=              0.0508  Tot=              0.1038
 Quadrupole moment (field-independent basis, Debye-Ang):
   XX=             -8.2906   YY=             -8.5242   ZZ=             -8.6971
   XY=              0.2262   XZ=             -0.2084   YZ=              0.3170

 Normal termination of Gaussian 16 at Fri Sep 22 17:11:36 2023.
