 Gaussian 16, Revision A.03,
 Gaussian 16:  ES64L-G16RevA.03 25-Dec-2016

 ----------
 # hf/3-21g
 ----------

 -----------------------
 tmpdir/M1_conf_52_0.gjf
 -----------------------
 Symbolic Z-matrix:
 Charge =  0 Multiplicity = 1

                         Standard orientation:
 ---------------------------------------------------------------------
 Center     Atomic      Atomic             Coordinates (Angstroms)
 Number     Number       Type             X           Y           Z
 ---------------------------------------------------------------------
      1          6           0        0.032583   -0.023493    0.003044
      2          1           0       -0.224083   -0.604901    0.771960
      3          1           0        0.361074   -0.565021   -0.753337
      4          1           0        0.817325    0.803363    0.204352
      5          1           0       -1.149812    0.507517   -0.241237
 ---------------------------------------------------------------------

 SCF Done:  E(RHF) =  -39.9326346536     A.U. after    9 cycles

 The electronic state is 1-A.
 Alpha  occ. eigenvalues --  -11.15947  -0.94769  -0.58883  -0.54503  -0.47948
 Alpha virt. eigenvalues --    0.25773   0.30854   0.35660   0.38098   0.86393
 Alpha virt. eigenvalues --    0.92949   1.03375   1.20558   1.27695   1.42576
 Alpha virt. eigenvalues --    1.44933   1.93957

 Mulliken charges:
               1
     1  C   -0.748545
     2  H    0.227874
     3  H    0.226418
     4  H    0.180434
     5  H    0.113819
 Sum of Mulliken charges =  -0.00000

 Dipole moment (field-independent basis, Debye):
    X=              0.1397    Y=             -0.2214    Z=              0.0586  Tot=              0.2683
 Quadrupole moment (field-independent basis, Debye-Ang):
   XX=             -8.2413   YY=             -8.5069   ZZ=             -8.7115
   XY=              0.1902   XZ=             -0.2649   YZ=              0.0430

 Normal termination of Gaussian 16 at Fri Sep 22 17:12:11 2023.
