 Gaussian 16, Revision A.03,
 Gaussian 16:  ES64L-G16RevA.03 25-Dec-2016

 ----------
 # hf/3-21g
 ----------

 -----------------------
 tmpdir/M1_conf_85_0.gjf
 -----------------------
 Symbolic Z-matrix:
 Charge =  0 Multiplicity = 1

                         Standard orientation:
 ---------------------------------------------------------------------
 Center     Atomic      Atomic             Coordinates (Angstroms)
 Number     Number       Type             X           Y           Z
 ---------------------------------------------------------------------
      1          6           0       -0.020933   -0.001868    0.019960
      2          1           0       -0.168028    1.037368   -0.480682
      3          1           0       -0.968394   -0.663473   -0.213394
      4          1           0        0.221084    0.110871    1.076703
      5          1           0        1.040933   -0.473559   -0.502389
 ---------------------------------------------------------------------

 SCF Done:  E(RHF) =  -39.9487302559     A.U. after    9 cycles

 The electronic state is 1-A.
 Alpha  occ. eigenvalues --  -11.18761  -0.91289  -0.54939  -0.52163  -0.49200
 Alpha virt. eigenvalues --    0.26098   0.30283   0.32211   0.34648   0.94098
 Alpha virt. eigenvalues --    0.97405   1.02146   1.20063   1.25253   1.28329
 Alpha virt. eigenvalues --    1.33722   1.91157

 Mulliken charges:
               1
     1  C   -0.723833
     2  H    0.184871
     3  H    0.185167
     4  H    0.210850
     5  H    0.142946
 Sum of Mulliken charges =  -0.00000

 Dipole moment (field-independent basis, Debye):
    X=             -0.0378    Y=              0.0854    Z=              0.0800  Tot=              0.1230
 Quadrupole moment (field-independent basis, Debye-Ang):
   XX=             -8.4841   YY=             -8.7967   ZZ=             -8.6909
   XY=              0.1285   XZ=              0.1654   YZ=             -0.0339

 Normal termination of Gaussian 16 at Fri Sep 22 17:12:56 2023.
