 Gaussian 16, Revision A.03,
 Gaussian 16:  ES64L-G16RevA.03 25-Dec-2016

 ----------
 # hf/3-21g
 ----------

 -----------------------
 tmpdir/M1_conf_45_1.gjf
 -----------------------
 Symbolic Z-matrix:
 Charge =  0 Multiplicity = 1

                         Standard orientation:
 ---------------------------------------------------------------------
 Center     Atomic      Atomic             Coordinates (Angstroms)
 Number     Number       Type             X           Y           Z
 ---------------------------------------------------------------------
      1         17           0        0.000000   -0.000000    0.081475
      2          1           0       -0.000000    0.000000   -1.385080
 ---------------------------------------------------------------------

 SCF Done:  E(RHF) =  -457.857679499     A.U. after    8 cycles

 The electronic state is 1-SG.
 Alpha  occ. eigenvalues -- -104.12419 -10.51659  -7.98034  -7.97611  -7.97611
 Alpha  occ. eigenvalues --   -1.09662  -0.57904  -0.47598  -0.47598
 Alpha virt. eigenvalues --    0.10393   0.70818   0.78450   0.78450   0.84599
 Alpha virt. eigenvalues --    1.07005

 Mulliken charges:
               1
     1  Cl  -0.232228
     2  H    0.232228
 Sum of Mulliken charges =  -0.00000

 Dipole moment (field-independent basis, Debye):
    X=             -0.0000    Y=              0.0000    Z=             -1.9306  Tot=              1.9306
 Quadrupole moment (field-independent basis, Debye-Ang):
   XX=            -14.3291   YY=            -14.3291   ZZ=            -10.3796
   XY=             -0.0000   XZ=              0.0000   YZ=             -0.0000

 Normal termination of Gaussian 16 at Fri Sep 22 17:12:03 2023.
