 Gaussian 16, Revision A.03,
 Gaussian 16:  ES64L-G16RevA.03 25-Dec-2016

 ----------
 # hf/3-21g
 ----------

 ------------------------
 tmpdir/M1_conf_226_1.gjf
 ------------------------
 Symbolic Z-matrix:
 Charge =  0 Multiplicity = 1

                         Standard orientation:
 ---------------------------------------------------------------------
 Center     Atomic      Atomic             Coordinates (Angstroms)
 Number     Number       Type             X           Y           Z
 ---------------------------------------------------------------------
      1         17           0       -0.000000   -0.000000    0.134395
      2          1           0        0.000000    0.000000   -2.284715
 ---------------------------------------------------------------------

 SCF Done:  E(RHF) =  -457.708536312     A.U. after    9 cycles

 The electronic state is 1-SG.
 Alpha  occ. eigenvalues -- -104.12026 -10.50586  -7.96912  -7.96605  -7.96605
 Alpha  occ. eigenvalues --   -1.03678  -0.45254  -0.45254  -0.43341
 Alpha virt. eigenvalues --   -0.09432   0.68560   0.80413   0.80413   0.84954
 Alpha virt. eigenvalues --    1.10283

 Mulliken charges:
               1
     1  Cl  -0.265972
     2  H    0.265972
 Sum of Mulliken charges =  -0.00000

 Dipole moment (field-independent basis, Debye):
    X=              0.0000    Y=              0.0000    Z=             -3.0153  Tot=              3.0153
 Quadrupole moment (field-independent basis, Debye-Ang):
   XX=            -14.7763   YY=            -14.7763   ZZ=             -5.4826
   XY=             -0.0000   XZ=             -0.0000   YZ=             -0.0000

 Normal termination of Gaussian 16 at Fri Sep 22 17:15:48 2023.
