 Gaussian 16, Revision A.03,
 Gaussian 16:  ES64L-G16RevA.03 25-Dec-2016

 ----------
 # hf/3-21g
 ----------

 ------------------------
 tmpdir/M1_conf_236_0.gjf
 ------------------------
 Symbolic Z-matrix:
 Charge =  0 Multiplicity = 1

                         Standard orientation:
 ---------------------------------------------------------------------
 Center     Atomic      Atomic             Coordinates (Angstroms)
 Number     Number       Type             X           Y           Z
 ---------------------------------------------------------------------
      1          6           0       -0.299388   -0.005266    0.067588
      2          1           0       -0.559091   -0.620422   -0.687337
      3          1           0        0.500740   -0.416002    0.749478
      4          1           0        0.006352    1.152066   -0.122824
      5          1           0        1.848326   -0.084044   -0.344846
 ---------------------------------------------------------------------

 SCF Done:  E(RHF) =  -39.7398258748     A.U. after   12 cycles

 The electronic state is 1-A.
 Alpha  occ. eigenvalues --  -11.24493  -0.93904  -0.62158  -0.55213  -0.31945
 Alpha virt. eigenvalues --    0.03459   0.26138   0.31179   0.35133   0.88267
 Alpha virt. eigenvalues --    0.95318   1.01445   1.16980   1.27246   1.27513
 Alpha virt. eigenvalues --    1.35442   1.73455

 Mulliken charges:
               1
     1  C   -0.562828
     2  H    0.253315
     3  H    0.259756
     4  H    0.231888
     5  H   -0.182130
 Sum of Mulliken charges =   0.00000

 Dipole moment (field-independent basis, Debye):
    X=             -1.0897    Y=              0.0347    Z=             -0.0567  Tot=              1.0917
 Quadrupole moment (field-independent basis, Debye-Ang):
   XX=            -11.6666   YY=             -8.3972   ZZ=             -9.5848
   XY=              0.3791   XZ=              1.4414   YZ=              0.0338

 Normal termination of Gaussian 16 at Fri Sep 22 17:16:00 2023.
