 Gaussian 16, Revision A.03,
 Gaussian 16:  ES64L-G16RevA.03 25-Dec-2016

 ----------
 # hf/3-21g
 ----------

 ------------------------
 tmpdir/M1_conf_154_1.gjf
 ------------------------
 Symbolic Z-matrix:
 Charge =  0 Multiplicity = 1

                         Standard orientation:
 ---------------------------------------------------------------------
 Center     Atomic      Atomic             Coordinates (Angstroms)
 Number     Number       Type             X           Y           Z
 ---------------------------------------------------------------------
      1         17           0       -0.000000    0.000000    0.099577
      2          1           0        0.000000   -0.000000   -1.692815
 ---------------------------------------------------------------------

 SCF Done:  E(RHF) =  -457.808478126     A.U. after    8 cycles

 The electronic state is 1-SG.
 Alpha  occ. eigenvalues -- -104.13105 -10.51833  -7.98176  -7.97823  -7.97823
 Alpha  occ. eigenvalues --   -1.06546  -0.51888  -0.46833  -0.46833
 Alpha virt. eigenvalues --    0.01172   0.69910   0.78985   0.78985   0.86255
 Alpha virt. eigenvalues --    1.10787

 Mulliken charges:
               1
     1  Cl  -0.246597
     2  H    0.246597
 Sum of Mulliken charges =  -0.00000

 Dipole moment (field-independent basis, Debye):
    X=              0.0000    Y=             -0.0000    Z=             -2.1686  Tot=              2.1686
 Quadrupole moment (field-independent basis, Debye-Ang):
   XX=            -14.5994   YY=            -14.5994   ZZ=             -9.0905
   XY=              0.0000   XZ=             -0.0000   YZ=              0.0000

 Normal termination of Gaussian 16 at Fri Sep 22 17:14:23 2023.
