 Gaussian 16, Revision A.03,
 Gaussian 16:  ES64L-G16RevA.03 25-Dec-2016

 ----------
 # hf/3-21g
 ----------

 -----------------------
 tmpdir/M1_conf_34_0.gjf
 -----------------------
 Symbolic Z-matrix:
 Charge =  0 Multiplicity = 1

                         Standard orientation:
 ---------------------------------------------------------------------
 Center     Atomic      Atomic             Coordinates (Angstroms)
 Number     Number       Type             X           Y           Z
 ---------------------------------------------------------------------
      1          6           0        0.022469   -0.006717    0.023570
      2          1           0       -0.463226   -0.435003    0.845475
      3          1           0        0.250770    1.047743    0.137422
      4          1           0       -0.911824   -0.054209   -0.771308
      5          1           0        0.989464   -0.518230   -0.353009
 ---------------------------------------------------------------------

 SCF Done:  E(RHF) =  -39.9564830798     A.U. after    9 cycles

 The electronic state is 1-A.
 Alpha  occ. eigenvalues --  -11.16638  -0.93188  -0.57244  -0.53139  -0.49435
 Alpha virt. eigenvalues --    0.27415   0.31521   0.33640   0.36407   0.91408
 Alpha virt. eigenvalues --    0.93834   1.01029   1.23743   1.27453   1.33813
 Alpha virt. eigenvalues --    1.39055   1.92849

 Mulliken charges:
               1
     1  C   -0.760926
     2  H    0.219404
     3  H    0.205592
     4  H    0.149341
     5  H    0.186588
 Sum of Mulliken charges =   0.00000

 Dipole moment (field-independent basis, Debye):
    X=             -0.0241    Y=              0.0522    Z=              0.1047  Tot=              0.1194
 Quadrupole moment (field-independent basis, Debye-Ang):
   XX=             -8.1238   YY=             -8.5866   ZZ=             -8.9000
   XY=              0.0660   XZ=             -0.2508   YZ=             -0.0725

 Normal termination of Gaussian 16 at Fri Sep 22 17:11:50 2023.
