 Gaussian 16, Revision A.03,
 Gaussian 16:  ES64L-G16RevA.03 25-Dec-2016

 ----------
 # hf/3-21g
 ----------

 -----------------------
 tmpdir/M1_conf_49_0.gjf
 -----------------------
 Symbolic Z-matrix:
 Charge =  0 Multiplicity = 1

                         Standard orientation:
 ---------------------------------------------------------------------
 Center     Atomic      Atomic             Coordinates (Angstroms)
 Number     Number       Type             X           Y           Z
 ---------------------------------------------------------------------
      1          6           0        0.035824   -0.025889   -0.044972
      2          1           0        0.306451    0.995336   -0.406368
      3          1           0        0.751190   -0.218165    0.758925
      4          1           0       -0.144869   -0.851434   -0.538422
      5          1           0       -1.127714    0.229598    0.455699
 ---------------------------------------------------------------------

 SCF Done:  E(RHF) =  -39.9361246300     A.U. after    9 cycles

 The electronic state is 1-A.
 Alpha  occ. eigenvalues --  -11.16313  -0.94082  -0.60383  -0.53339  -0.47037
 Alpha virt. eigenvalues --    0.26584   0.30333   0.34001   0.38283   0.89046
 Alpha virt. eigenvalues --    0.95692   1.01242   1.21566   1.29241   1.33574
 Alpha virt. eigenvalues --    1.46044   1.93373

 Mulliken charges:
               1
     1  C   -0.765056
     2  H    0.210083
     3  H    0.198945
     4  H    0.238730
     5  H    0.117298
 Sum of Mulliken charges =   0.00000

 Dipole moment (field-independent basis, Debye):
    X=              0.1243    Y=             -0.0291    Z=             -0.0219  Tot=              0.1296
 Quadrupole moment (field-independent basis, Debye-Ang):
   XX=             -8.5769   YY=             -7.9783   ZZ=             -9.0353
   XY=              0.1603   XZ=              0.2746   YZ=              0.0959

 Normal termination of Gaussian 16 at Fri Sep 22 17:12:08 2023.
