 Gaussian 16, Revision A.03,
 Gaussian 16:  ES64L-G16RevA.03 25-Dec-2016

 ----------
 # hf/3-21g
 ----------

 ------------------------
 tmpdir/M1_conf_102_0.gjf
 ------------------------
 Symbolic Z-matrix:
 Charge =  0 Multiplicity = 1

                         Standard orientation:
 ---------------------------------------------------------------------
 Center     Atomic      Atomic             Coordinates (Angstroms)
 Number     Number       Type             X           Y           Z
 ---------------------------------------------------------------------
      1          6           0        0.004147    0.020298    0.008161
      2          1           0       -0.550593    0.059912    0.784331
      3          1           0        0.284324    0.927800   -0.319196
      4          1           0       -0.756028   -0.499201   -0.590364
      5          1           0        0.997415   -0.610300    0.076265
 ---------------------------------------------------------------------

 SCF Done:  E(RHF) =  -39.9418149275     A.U. after    9 cycles

 The electronic state is 1-A.
 Alpha  occ. eigenvalues --  -11.13380  -0.96510  -0.60252  -0.53743  -0.51105
 Alpha virt. eigenvalues --    0.29138   0.32933   0.36378   0.38591   0.85987
 Alpha virt. eigenvalues --    0.90770   0.98860   1.27024   1.33331   1.42676
 Alpha virt. eigenvalues --    1.51217   1.94847

 Mulliken charges:
               1
     1  C   -0.802001
     2  H    0.231113
     3  H    0.218319
     4  H    0.185043
     5  H    0.167526
 Sum of Mulliken charges =  -0.00000

 Dipole moment (field-independent basis, Debye):
    X=             -0.1600    Y=              0.0671    Z=              0.0689  Tot=              0.1867
 Quadrupole moment (field-independent basis, Debye-Ang):
   XX=             -7.7983   YY=             -8.3180   ZZ=             -8.8645
   XY=              0.1269   XZ=             -0.2089   YZ=             -0.0739

 Normal termination of Gaussian 16 at Fri Sep 22 17:13:16 2023.
