 Gaussian 16, Revision A.03,
 Gaussian 16:  ES64L-G16RevA.03 25-Dec-2016

 ----------
 # hf/3-21g
 ----------

 ------------------------
 tmpdir/M1_conf_145_0.gjf
 ------------------------
 Symbolic Z-matrix:
 Charge =  0 Multiplicity = 1

                         Standard orientation:
 ---------------------------------------------------------------------
 Center     Atomic      Atomic             Coordinates (Angstroms)
 Number     Number       Type             X           Y           Z
 ---------------------------------------------------------------------
      1          6           0       -0.141523    0.044949    0.083429
      2          1           0        0.113028    1.026086   -0.497885
      3          1           0       -0.886282   -0.657202   -0.271815
      4          1           0        0.566854   -0.028178    0.814136
      5          1           0        1.055541   -0.610400   -0.545013
 ---------------------------------------------------------------------

 SCF Done:  E(RHF) =  -39.8659117061     A.U. after   10 cycles

 The electronic state is 1-A.
 Alpha  occ. eigenvalues --  -11.19696  -0.93552  -0.61563  -0.54160  -0.39840
 Alpha virt. eigenvalues --    0.18721   0.27375   0.32880   0.36992   0.90944
 Alpha virt. eigenvalues --    0.97691   1.03501   1.17001   1.26595   1.30412
 Alpha virt. eigenvalues --    1.43085   1.89608

 Mulliken charges:
               1
     1  C   -0.724809
     2  H    0.211180
     3  H    0.248363
     4  H    0.269006
     5  H   -0.003740
 Sum of Mulliken charges =   0.00000

 Dipole moment (field-independent basis, Debye):
    X=              0.0535    Y=              0.0082    Z=              0.0249  Tot=              0.0595
 Quadrupole moment (field-independent basis, Debye-Ang):
   XX=             -8.6360   YY=             -8.7680   ZZ=             -9.4135
   XY=              0.8884   XZ=              0.9520   YZ=             -0.4046

 Normal termination of Gaussian 16 at Fri Sep 22 17:14:12 2023.
