 Gaussian 16, Revision A.03,
 Gaussian 16:  ES64L-G16RevA.03 25-Dec-2016

 ----------
 # hf/3-21g
 ----------

 ------------------------
 tmpdir/M1_conf_282_0.gjf
 ------------------------
 Symbolic Z-matrix:
 Charge =  0 Multiplicity = 1

                         Standard orientation:
 ---------------------------------------------------------------------
 Center     Atomic      Atomic             Coordinates (Angstroms)
 Number     Number       Type             X           Y           Z
 ---------------------------------------------------------------------
      1          6           0        0.307714   -0.022254    0.069041
      2          1           0        0.355860    1.107874   -0.193273
      3          1           0       -0.530268   -0.308044    0.627389
      4          1           0        0.484497   -0.739646   -0.588969
      5          1           0       -2.156373    0.073341   -0.259393
 ---------------------------------------------------------------------

 SCF Done:  E(RHF) =  -39.7090954941     A.U. after   13 cycles

 The electronic state is 1-A.
 Alpha  occ. eigenvalues --  -11.24485  -0.96509  -0.63091  -0.60021  -0.29017
 Alpha virt. eigenvalues --    0.00176   0.26630   0.34051   0.35623   0.84131
 Alpha virt. eigenvalues --    0.93793   0.98731   1.13354   1.28263   1.34002
 Alpha virt. eigenvalues --    1.37667   1.73020

 Mulliken charges:
               1
     1  C   -0.554024
     2  H    0.244063
     3  H    0.278127
     4  H    0.255412
     5  H   -0.223578
 Sum of Mulliken charges =  -0.00000

 Dipole moment (field-independent basis, Debye):
    X=              2.0818    Y=             -0.0565    Z=             -0.0624  Tot=              2.0835
 Quadrupole moment (field-independent basis, Debye-Ang):
   XX=            -13.3377   YY=             -8.0393   ZZ=             -9.5891
   XY=              0.2900   XZ=             -1.2096   YZ=              0.0458

 Normal termination of Gaussian 16 at Fri Sep 22 17:16:55 2023.
