 Gaussian 16, Revision A.03,
 Gaussian 16:  ES64L-G16RevA.03 25-Dec-2016

 ----------
 # hf/3-21g
 ----------

 ------------------------
 tmpdir/M1_conf_237_1.gjf
 ------------------------
 Symbolic Z-matrix:
 Charge =  0 Multiplicity = 1

                         Standard orientation:
 ---------------------------------------------------------------------
 Center     Atomic      Atomic             Coordinates (Angstroms)
 Number     Number       Type             X           Y           Z
 ---------------------------------------------------------------------
      1         17           0       -0.000000    0.000000    0.143664
      2          1           0        0.000000   -0.000000   -2.442283
 ---------------------------------------------------------------------

 SCF Done:  E(RHF) =  -457.686591517     A.U. after    9 cycles

 The electronic state is 1-SG.
 Alpha  occ. eigenvalues -- -104.11579 -10.50160  -7.96487  -7.96181  -7.96181
 Alpha  occ. eigenvalues --   -1.03201  -0.44888  -0.44888  -0.41716
 Alpha virt. eigenvalues --   -0.11301   0.68261   0.80760   0.80760   0.83617
 Alpha virt. eigenvalues --    1.10216

 Mulliken charges:
               1
     1  Cl  -0.271346
     2  H    0.271346
 Sum of Mulliken charges =   0.00000

 Dipole moment (field-independent basis, Debye):
    X=              0.0000    Y=             -0.0000    Z=             -3.2844  Tot=              3.2844
 Quadrupole moment (field-independent basis, Debye-Ang):
   XX=            -14.7929   YY=            -14.7929   ZZ=             -4.3963
   XY=              0.0000   XZ=             -0.0000   YZ=              0.0000

 Normal termination of Gaussian 16 at Fri Sep 22 17:16:01 2023.
