 Gaussian 16, Revision A.03,
 Gaussian 16:  ES64L-G16RevA.03 25-Dec-2016

 ----------
 # hf/3-21g
 ----------

 ------------------------
 tmpdir/M1_conf_244_0.gjf
 ------------------------
 Symbolic Z-matrix:
 Charge =  0 Multiplicity = 1

                         Standard orientation:
 ---------------------------------------------------------------------
 Center     Atomic      Atomic             Coordinates (Angstroms)
 Number     Number       Type             X           Y           Z
 ---------------------------------------------------------------------
      1          6           0       -0.323118   -0.012135    0.060054
      2          1           0       -0.192427   -0.742876   -0.641205
      3          1           0        0.379288   -0.195034    0.792564
      4          1           0       -0.205376    0.957507   -0.320867
      5          1           0        1.957222    0.053212   -0.190815
 ---------------------------------------------------------------------

 SCF Done:  E(RHF) =  -39.7270750762     A.U. after   12 cycles

 The electronic state is 1-A.
 Alpha  occ. eigenvalues --  -11.22354  -0.97246  -0.61662  -0.60094  -0.31511
 Alpha virt. eigenvalues --    0.00909   0.30293   0.35000   0.35351   0.85162
 Alpha virt. eigenvalues --    0.87477   1.01274   1.21251   1.33633   1.36634
 Alpha virt. eigenvalues --    1.37903   1.77411

 Mulliken charges:
               1
     1  C   -0.597451
     2  H    0.253607
     3  H    0.268749
     4  H    0.251511
     5  H   -0.176416
 Sum of Mulliken charges =  -0.00000

 Dipole moment (field-independent basis, Debye):
    X=             -1.1256    Y=             -0.0129    Z=             -0.1351  Tot=              1.1337
 Quadrupole moment (field-independent basis, Debye-Ang):
   XX=            -11.9556   YY=             -8.4953   ZZ=             -9.0674
   XY=             -0.2100   XZ=              0.8217   YZ=              0.0149

 Normal termination of Gaussian 16 at Fri Sep 22 17:16:10 2023.
