 Gaussian 16, Revision A.03,
 Gaussian 16:  ES64L-G16RevA.03 25-Dec-2016

 ----------
 # hf/3-21g
 ----------

 ------------------------
 tmpdir/M1_conf_234_0.gjf
 ------------------------
 Symbolic Z-matrix:
 Charge =  0 Multiplicity = 1

                         Standard orientation:
 ---------------------------------------------------------------------
 Center     Atomic      Atomic             Coordinates (Angstroms)
 Number     Number       Type             X           Y           Z
 ---------------------------------------------------------------------
      1          6           0       -0.261727    0.001508    0.078194
      2          1           0       -0.602118   -0.624131   -0.676342
      3          1           0        0.444471   -0.361032    0.720328
      4          1           0       -0.121576    1.023951   -0.174773
      5          1           0        1.849585   -0.047836   -0.338377
 ---------------------------------------------------------------------

 SCF Done:  E(RHF) =  -39.7615153014     A.U. after   12 cycles

 The electronic state is 1-A.
 Alpha  occ. eigenvalues --  -11.22433  -0.96008  -0.62634  -0.60824  -0.31740
 Alpha virt. eigenvalues --    0.04302   0.29628   0.34360   0.36099   0.87122
 Alpha virt. eigenvalues --    0.88842   1.02047   1.18281   1.28521   1.35464
 Alpha virt. eigenvalues --    1.39617   1.74575

 Mulliken charges:
               1
     1  C   -0.585043
     2  H    0.242526
     3  H    0.278030
     4  H    0.251731
     5  H   -0.187244
 Sum of Mulliken charges =   0.00000

 Dipole moment (field-independent basis, Debye):
    X=             -1.3651    Y=              0.0435    Z=              0.0701  Tot=              1.3676
 Quadrupole moment (field-independent basis, Debye-Ang):
   XX=            -11.5293   YY=             -8.3901   ZZ=             -9.2042
   XY=              0.1506   XZ=              1.4137   YZ=             -0.0445

 Normal termination of Gaussian 16 at Fri Sep 22 17:15:58 2023.
