 Gaussian 16, Revision A.03,
 Gaussian 16:  ES64L-G16RevA.03 25-Dec-2016

 ----------
 # hf/3-21g
 ----------

 ------------------------
 tmpdir/M1_conf_261_0.gjf
 ------------------------
 Symbolic Z-matrix:
 Charge =  0 Multiplicity = 1

                         Standard orientation:
 ---------------------------------------------------------------------
 Center     Atomic      Atomic             Coordinates (Angstroms)
 Number     Number       Type             X           Y           Z
 ---------------------------------------------------------------------
      1          6           0       -0.325981   -0.038383   -0.100200
      2          1           0       -0.502214    1.031260    0.374168
      3          1           0        0.614935   -0.073132   -0.571140
      4          1           0       -0.269491   -0.850267    0.563826
      5          1           0        2.112658    0.122439    0.234346
 ---------------------------------------------------------------------

 SCF Done:  E(RHF) =  -39.6992545100     A.U. after   13 cycles

 The electronic state is 1-A.
 Alpha  occ. eigenvalues --  -11.24661  -0.95569  -0.60073  -0.58512  -0.30213
 Alpha virt. eigenvalues --   -0.01083   0.26292   0.32846   0.37016   0.85836
 Alpha virt. eigenvalues --    0.94378   0.98690   1.16083   1.25636   1.32854
 Alpha virt. eigenvalues --    1.36354   1.74102

 Mulliken charges:
               1
     1  C   -0.549607
     2  H    0.221948
     3  H    0.264698
     4  H    0.246524
     5  H   -0.183562
 Sum of Mulliken charges =   0.00000

 Dipole moment (field-independent basis, Debye):
    X=             -1.5442    Y=             -0.0567    Z=              0.4005  Tot=              1.5963
 Quadrupole moment (field-independent basis, Debye-Ang):
   XX=            -12.4391   YY=             -8.4572   ZZ=             -9.8420
   XY=             -0.4351   XZ=             -0.9151   YZ=             -0.0431

 Normal termination of Gaussian 16 at Fri Sep 22 17:16:30 2023.
