 Gaussian 16, Revision A.03,
 Gaussian 16:  ES64L-G16RevA.03 25-Dec-2016

 ----------
 # hf/3-21g
 ----------

 ------------------------
 tmpdir/M1_conf_223_0.gjf
 ------------------------
 Symbolic Z-matrix:
 Charge =  0 Multiplicity = 1

                         Standard orientation:
 ---------------------------------------------------------------------
 Center     Atomic      Atomic             Coordinates (Angstroms)
 Number     Number       Type             X           Y           Z
 ---------------------------------------------------------------------
      1          6           0        0.257889   -0.018839    0.077794
      2          1           0        0.200882    1.051280   -0.211634
      3          1           0       -0.499294   -0.262255    0.678295
      4          1           0        0.499712   -0.664949   -0.609963
      5          1           0       -1.748634   -0.011041   -0.323461
 ---------------------------------------------------------------------

 SCF Done:  E(RHF) =  -39.7559371939     A.U. after   12 cycles

 The electronic state is 1-A.
 Alpha  occ. eigenvalues --  -11.21400  -0.96846  -0.64118  -0.59366  -0.32783
 Alpha virt. eigenvalues --    0.05256   0.29603   0.35030   0.37580   0.84794
 Alpha virt. eigenvalues --    0.89540   1.02618   1.20566   1.27314   1.35710
 Alpha virt. eigenvalues --    1.44718   1.77439

 Mulliken charges:
               1
     1  C   -0.594859
     2  H    0.235049
     3  H    0.276234
     4  H    0.249206
     5  H   -0.165631
 Sum of Mulliken charges =   0.00000

 Dipole moment (field-independent basis, Debye):
    X=              1.0388    Y=              0.0200    Z=             -0.0302  Tot=              1.0394
 Quadrupole moment (field-independent basis, Debye-Ang):
   XX=            -10.9838   YY=             -8.3230   ZZ=             -9.3637
   XY=             -0.0566   XZ=             -1.3193   YZ=              0.0434

 Normal termination of Gaussian 16 at Fri Sep 22 17:15:45 2023.
