 Gaussian 16, Revision A.03,
 Gaussian 16:  ES64L-G16RevA.03 25-Dec-2016

 ----------
 # hf/3-21g
 ----------

 ------------------------
 tmpdir/M1_conf_227_1.gjf
 ------------------------
 Symbolic Z-matrix:
 Charge =  0 Multiplicity = 1

                         Standard orientation:
 ---------------------------------------------------------------------
 Center     Atomic      Atomic             Coordinates (Angstroms)
 Number     Number       Type             X           Y           Z
 ---------------------------------------------------------------------
      1         17           0        0.000000   -0.000000    0.134874
      2          1           0       -0.000000    0.000000   -2.292860
 ---------------------------------------------------------------------

 SCF Done:  E(RHF) =  -457.707342915     A.U. after    9 cycles

 The electronic state is 1-SG.
 Alpha  occ. eigenvalues -- -104.12004 -10.50564  -7.96891  -7.96583  -7.96583
 Alpha  occ. eigenvalues --   -1.03652  -0.45234  -0.45234  -0.43251
 Alpha virt. eigenvalues --   -0.09536   0.68543   0.80431   0.80431   0.84887
 Alpha virt. eigenvalues --    1.10284

 Mulliken charges:
               1
     1  Cl  -0.266261
     2  H    0.266261
 Sum of Mulliken charges =  -0.00000

 Dipole moment (field-independent basis, Debye):
    X=             -0.0000    Y=              0.0000    Z=             -3.0290  Tot=              3.0290
 Quadrupole moment (field-independent basis, Debye-Ang):
   XX=            -14.7773   YY=            -14.7773   ZZ=             -5.4273
   XY=             -0.0000   XZ=             -0.0000   YZ=             -0.0000

 Normal termination of Gaussian 16 at Fri Sep 22 17:15:49 2023.
