 Gaussian 16, Revision A.03,
 Gaussian 16:  ES64L-G16RevA.03 25-Dec-2016

 ----------
 # hf/3-21g
 ----------

 -----------------------
 tmpdir/M1_conf_62_0.gjf
 -----------------------
 Symbolic Z-matrix:
 Charge =  0 Multiplicity = 1

                         Standard orientation:
 ---------------------------------------------------------------------
 Center     Atomic      Atomic             Coordinates (Angstroms)
 Number     Number       Type             X           Y           Z
 ---------------------------------------------------------------------
      1          6           0       -0.060421    0.046597    0.005645
      2          1           0       -0.074316   -0.106554    0.983086
      3          1           0        0.179197    0.945149   -0.308274
      4          1           0       -0.910091   -0.551222   -0.461012
      5          1           0        1.167738   -0.566956   -0.247672
 ---------------------------------------------------------------------

 SCF Done:  E(RHF) =  -39.9155437257     A.U. after    9 cycles

 The electronic state is 1-A.
 Alpha  occ. eigenvalues --  -11.16530  -0.94807  -0.60781  -0.55292  -0.45089
 Alpha virt. eigenvalues --    0.23663   0.30647   0.35496   0.38502   0.86831
 Alpha virt. eigenvalues --    0.92550   1.03397   1.19694   1.27859   1.41035
 Alpha virt. eigenvalues --    1.47271   1.93570

 Mulliken charges:
               1
     1  C   -0.734690
     2  H    0.235247
     3  H    0.236587
     4  H    0.193676
     5  H    0.069180
 Sum of Mulliken charges =  -0.00000

 Dipole moment (field-independent basis, Debye):
    X=             -0.1996    Y=              0.1766    Z=              0.1878  Tot=              0.3260
 Quadrupole moment (field-independent basis, Debye-Ang):
   XX=             -8.4857   YY=             -8.5370   ZZ=             -8.6408
   XY=              0.5051   XZ=              0.1617   YZ=             -0.2289

 Normal termination of Gaussian 16 at Fri Sep 22 17:12:23 2023.
