 Gaussian 16, Revision A.03,
 Gaussian 16:  ES64L-G16RevA.03 25-Dec-2016

 ----------
 # hf/3-21g
 ----------

 ------------------------
 tmpdir/M1_conf_119_0.gjf
 ------------------------
 Symbolic Z-matrix:
 Charge =  0 Multiplicity = 1

                         Standard orientation:
 ---------------------------------------------------------------------
 Center     Atomic      Atomic             Coordinates (Angstroms)
 Number     Number       Type             X           Y           Z
 ---------------------------------------------------------------------
      1          6           0       -0.071397    0.048838    0.046972
      2          1           0        0.391783   -0.591093    0.888484
      3          1           0        0.043977    1.081991    0.061284
      4          1           0       -0.952172   -0.498464   -0.439092
      5          1           0        0.944793   -0.285464   -0.792509
 ---------------------------------------------------------------------

 SCF Done:  E(RHF) =  -39.9251897349     A.U. after    9 cycles

 The electronic state is 1-A.
 Alpha  occ. eigenvalues --  -11.18788  -0.92081  -0.58614  -0.53608  -0.44466
 Alpha virt. eigenvalues --    0.24648   0.28029   0.32852   0.36434   0.93692
 Alpha virt. eigenvalues --    0.96378   1.01601   1.19658   1.25577   1.29433
 Alpha virt. eigenvalues --    1.38605   1.92494

 Mulliken charges:
               1
     1  C   -0.731475
     2  H    0.202702
     3  H    0.235378
     4  H    0.208869
     5  H    0.084526
 Sum of Mulliken charges =  -0.00000

 Dipole moment (field-independent basis, Debye):
    X=             -0.0061    Y=             -0.0081    Z=              0.0594  Tot=              0.0603
 Quadrupole moment (field-independent basis, Debye-Ang):
   XX=             -8.7675   YY=             -8.1547   ZZ=             -9.2196
   XY=              0.1904   XZ=              0.5217   YZ=             -0.1094

 Normal termination of Gaussian 16 at Fri Sep 22 17:13:36 2023.
