 Gaussian 16, Revision A.03,
 Gaussian 16:  ES64L-G16RevA.03 25-Dec-2016

 ----------
 # hf/3-21g
 ----------

 ------------------------
 tmpdir/M1_conf_259_0.gjf
 ------------------------
 Symbolic Z-matrix:
 Charge =  0 Multiplicity = 1

                         Standard orientation:
 ---------------------------------------------------------------------
 Center     Atomic      Atomic             Coordinates (Angstroms)
 Number     Number       Type             X           Y           Z
 ---------------------------------------------------------------------
      1          6           0       -0.317165   -0.003782   -0.108405
      2          1           0       -0.490896    1.030132    0.434853
      3          1           0        0.685090   -0.092248   -0.627215
      4          1           0       -0.391260   -0.996918    0.535074
      5          1           0        2.100057    0.081729    0.307718
 ---------------------------------------------------------------------

 SCF Done:  E(RHF) =  -39.7057774708     A.U. after   13 cycles

 The electronic state is 1-A.
 Alpha  occ. eigenvalues --  -11.26805  -0.92332  -0.58870  -0.56407  -0.30263
 Alpha virt. eigenvalues --   -0.00041   0.24429   0.29850   0.33971   0.92019
 Alpha virt. eigenvalues --    0.97573   0.98584   1.12454   1.23079   1.26246
 Alpha virt. eigenvalues --    1.30570   1.69120

 Mulliken charges:
               1
     1  C   -0.520579
     2  H    0.232098
     3  H    0.261024
     4  H    0.222218
     5  H   -0.194761
 Sum of Mulliken charges =   0.00000

 Dipole moment (field-independent basis, Debye):
    X=             -1.6213    Y=             -0.0471    Z=              0.3439  Tot=              1.6580
 Quadrupole moment (field-independent basis, Debye-Ang):
   XX=            -12.6793   YY=             -8.4365   ZZ=            -10.0655
   XY=             -0.3644   XZ=             -1.2302   YZ=              0.0369

 Normal termination of Gaussian 16 at Fri Sep 22 17:16:27 2023.
