 Gaussian 16, Revision A.03,
 Gaussian 16:  ES64L-G16RevA.03 25-Dec-2016

 ----------
 # hf/3-21g
 ----------

 ------------------------
 tmpdir/M1_conf_242_0.gjf
 ------------------------
 Symbolic Z-matrix:
 Charge =  0 Multiplicity = 1

                         Standard orientation:
 ---------------------------------------------------------------------
 Center     Atomic      Atomic             Coordinates (Angstroms)
 Number     Number       Type             X           Y           Z
 ---------------------------------------------------------------------
      1          6           0        0.324942   -0.044598    0.045796
      2          1           0        0.267042    1.032191   -0.289418
      3          1           0       -0.372355   -0.127715    0.765120
      4          1           0        0.086291   -0.726767   -0.583066
      5          1           0       -1.930629    0.089882   -0.167412
 ---------------------------------------------------------------------

 SCF Done:  E(RHF) =  -39.7081680863     A.U. after   13 cycles

 The electronic state is 1-A.
 Alpha  occ. eigenvalues --  -11.22183  -0.98030  -0.62760  -0.58444  -0.31790
 Alpha virt. eigenvalues --    0.00785   0.28880   0.35419   0.36597   0.82421
 Alpha virt. eigenvalues --    0.90464   1.01369   1.20423   1.29041   1.40123
 Alpha virt. eigenvalues --    1.42729   1.79189

 Mulliken charges:
               1
     1  C   -0.598473
     2  H    0.234734
     3  H    0.269203
     4  H    0.266161
     5  H   -0.171625
 Sum of Mulliken charges =   0.00000

 Dipole moment (field-independent basis, Debye):
    X=              1.0195    Y=              0.0017    Z=             -0.0899  Tot=              1.0235
 Quadrupole moment (field-independent basis, Debye-Ang):
   XX=            -11.8503   YY=             -8.3346   ZZ=             -9.2407
   XY=              0.2887   XZ=             -0.6869   YZ=              0.1114

 Normal termination of Gaussian 16 at Fri Sep 22 17:16:07 2023.
