 Gaussian 16, Revision A.03,
 Gaussian 16:  ES64L-G16RevA.03 25-Dec-2016

 ----------
 # hf/3-21g
 ----------

 ------------------------
 tmpdir/M1_conf_152_0.gjf
 ------------------------
 Symbolic Z-matrix:
 Charge =  0 Multiplicity = 1

                         Standard orientation:
 ---------------------------------------------------------------------
 Center     Atomic      Atomic             Coordinates (Angstroms)
 Number     Number       Type             X           Y           Z
 ---------------------------------------------------------------------
      1          6           0       -0.126163    0.006395   -0.062662
      2          1           0        0.110420   -0.724373   -0.664672
      3          1           0       -0.588137   -0.303252    0.868534
      4          1           0       -0.092554    0.990640   -0.217175
      5          1           0        1.327248   -0.001386    0.389284
 ---------------------------------------------------------------------

 SCF Done:  E(RHF) =  -39.8813433928     A.U. after   10 cycles

 The electronic state is 1-A.
 Alpha  occ. eigenvalues --  -11.17466  -0.95237  -0.63165  -0.57224  -0.40676
 Alpha virt. eigenvalues --    0.19357   0.30730   0.35514   0.38554   0.89079
 Alpha virt. eigenvalues --    0.90560   1.02930   1.18177   1.30940   1.37856
 Alpha virt. eigenvalues --    1.49492   1.91686

 Mulliken charges:
               1
     1  C   -0.719458
     2  H    0.256387
     3  H    0.217064
     4  H    0.250680
     5  H   -0.004672
 Sum of Mulliken charges =   0.00000

 Dipole moment (field-independent basis, Debye):
    X=             -0.3069    Y=             -0.0116    Z=             -0.1065  Tot=              0.3250
 Quadrupole moment (field-independent basis, Debye-Ang):
   XX=             -9.4858   YY=             -8.0016   ZZ=             -8.6997
   XY=             -0.0437   XZ=             -0.6543   YZ=              0.0815

 Normal termination of Gaussian 16 at Fri Sep 22 17:14:20 2023.
