 Gaussian 16, Revision A.03,
 Gaussian 16:  ES64L-G16RevA.03 25-Dec-2016

 ----------
 # hf/3-21g
 ----------

 ------------------------
 tmpdir/M1_conf_147_0.gjf
 ------------------------
 Symbolic Z-matrix:
 Charge =  0 Multiplicity = 1

                         Standard orientation:
 ---------------------------------------------------------------------
 Center     Atomic      Atomic             Coordinates (Angstroms)
 Number     Number       Type             X           Y           Z
 ---------------------------------------------------------------------
      1          6           0        0.141034    0.006561   -0.094071
      2          1           0        0.032796    1.147398    0.259257
      3          1           0        0.864890   -0.629654    0.326062
      4          1           0       -0.734127   -0.221845   -0.841702
      5          1           0       -1.009762   -0.335264    0.820811
 ---------------------------------------------------------------------

 SCF Done:  E(RHF) =  -39.8661023281     A.U. after   10 cycles

 The electronic state is 1-A.
 Alpha  occ. eigenvalues --  -11.21226  -0.91378  -0.60033  -0.52620  -0.39817
 Alpha virt. eigenvalues --    0.19087   0.25588   0.30973   0.36022   0.95413
 Alpha virt. eigenvalues --    0.98258   1.02910   1.17746   1.24614   1.26708
 Alpha virt. eigenvalues --    1.35568   1.89307

 Mulliken charges:
               1
     1  C   -0.700292
     2  H    0.209224
     3  H    0.251799
     4  H    0.236342
     5  H    0.002928
 Sum of Mulliken charges =  -0.00000

 Dipole moment (field-independent basis, Debye):
    X=             -0.0606    Y=              0.0064    Z=             -0.0001  Tot=              0.0609
 Quadrupole moment (field-independent basis, Debye-Ang):
   XX=             -8.5642   YY=             -8.6318   ZZ=             -9.7884
   XY=             -0.5262   XZ=              1.0998   YZ=              0.2915

 Normal termination of Gaussian 16 at Fri Sep 22 17:14:14 2023.
