 Gaussian 16, Revision A.03,
 Gaussian 16:  ES64L-G16RevA.03 25-Dec-2016

 ----------
 # hf/3-21g
 ----------

 ------------------------
 tmpdir/M1_conf_129_0.gjf
 ------------------------
 Symbolic Z-matrix:
 Charge =  0 Multiplicity = 1

                         Standard orientation:
 ---------------------------------------------------------------------
 Center     Atomic      Atomic             Coordinates (Angstroms)
 Number     Number       Type             X           Y           Z
 ---------------------------------------------------------------------
      1          6           0        0.063415    0.016890    0.018958
      2          1           0       -0.194307    1.103977   -0.237558
      3          1           0        0.054649   -0.186358    1.028403
      4          1           0        0.963821   -0.465407   -0.553058
      5          1           0       -1.204654   -0.553551   -0.351533
 ---------------------------------------------------------------------

 SCF Done:  E(RHF) =  -39.9174032810     A.U. after    9 cycles

 The electronic state is 1-A.
 Alpha  occ. eigenvalues --  -11.19524  -0.91747  -0.56483  -0.54515  -0.44481
 Alpha virt. eigenvalues --    0.22398   0.28575   0.33117   0.35968   0.90860
 Alpha virt. eigenvalues --    0.98001   1.03390   1.19950   1.23082   1.29544
 Alpha virt. eigenvalues --    1.38589   1.89270

 Mulliken charges:
               1
     1  C   -0.693040
     2  H    0.200537
     3  H    0.230844
     4  H    0.192781
     5  H    0.068877
 Sum of Mulliken charges =  -0.00000

 Dipole moment (field-independent basis, Debye):
    X=              0.2144    Y=              0.1661    Z=              0.1950  Tot=              0.3340
 Quadrupole moment (field-independent basis, Debye-Ang):
   XX=             -8.5930   YY=             -8.8061   ZZ=             -8.7719
   XY=             -0.4534   XZ=             -0.2641   YZ=             -0.1838

 Normal termination of Gaussian 16 at Fri Sep 22 17:13:53 2023.
