 Gaussian 16, Revision A.03,
 Gaussian 16:  ES64L-G16RevA.03 25-Dec-2016

 ----------
 # hf/3-21g
 ----------

 ------------------------
 tmpdir/M1_conf_175_0.gjf
 ------------------------
 Symbolic Z-matrix:
 Charge =  0 Multiplicity = 1

                         Standard orientation:
 ---------------------------------------------------------------------
 Center     Atomic      Atomic             Coordinates (Angstroms)
 Number     Number       Type             X           Y           Z
 ---------------------------------------------------------------------
      1          6           0        0.185686   -0.120265   -0.054643
      2          1           0        0.697906    0.888351   -0.268680
      3          1           0        0.103125   -0.274086    0.958630
      4          1           0       -0.687951   -0.604588   -0.546735
      5          1           0       -1.227199    0.711913    0.184643
 ---------------------------------------------------------------------

 SCF Done:  E(RHF) =  -39.8227986521     A.U. after   11 cycles

 The electronic state is 1-A.
 Alpha  occ. eigenvalues --  -11.21030  -0.93956  -0.59069  -0.56555  -0.37286
 Alpha virt. eigenvalues --    0.13219   0.26143   0.34486   0.34895   0.88192
 Alpha virt. eigenvalues --    0.99815   1.03202   1.19210   1.25381   1.31816
 Alpha virt. eigenvalues --    1.38396   1.86484

 Mulliken charges:
               1
     1  C   -0.689447
     2  H    0.241978
     3  H    0.251657
     4  H    0.262177
     5  H   -0.066365
 Sum of Mulliken charges =   0.00000

 Dipole moment (field-independent basis, Debye):
    X=             -0.0259    Y=              0.0692    Z=              0.1799  Tot=              0.1945
 Quadrupole moment (field-independent basis, Debye-Ang):
   XX=             -9.3369   YY=             -9.2212   ZZ=             -9.0744
   XY=              1.5590   XZ=              0.5156   YZ=             -0.3022

 Normal termination of Gaussian 16 at Fri Sep 22 17:14:48 2023.
