 Gaussian 16, Revision A.03,
 Gaussian 16:  ES64L-G16RevA.03 25-Dec-2016

 ----------
 # hf/3-21g
 ----------

 ------------------------
 tmpdir/M1_conf_135_0.gjf
 ------------------------
 Symbolic Z-matrix:
 Charge =  0 Multiplicity = 1

                         Standard orientation:
 ---------------------------------------------------------------------
 Center     Atomic      Atomic             Coordinates (Angstroms)
 Number     Number       Type             X           Y           Z
 ---------------------------------------------------------------------
      1          6           0        0.094835   -0.043857   -0.046897
      2          1           0        0.798651    0.869296   -0.028570
      3          1           0        0.129305   -0.730675    0.840233
      4          1           0       -0.340392   -0.527840   -0.823899
      5          1           0       -1.156575    0.652358    0.293620
 ---------------------------------------------------------------------

 SCF Done:  E(RHF) =  -39.9020797777     A.U. after   10 cycles

 The electronic state is 1-A.
 Alpha  occ. eigenvalues --  -11.19364  -0.92507  -0.59268  -0.54518  -0.42311
 Alpha virt. eigenvalues --    0.21506   0.27770   0.33363   0.36859   0.90184
 Alpha virt. eigenvalues --    0.99641   1.02267   1.19430   1.23864   1.31163
 Alpha virt. eigenvalues --    1.41328   1.90163

 Mulliken charges:
               1
     1  C   -0.712399
     2  H    0.220960
     3  H    0.209296
     4  H    0.250063
     5  H    0.032081
 Sum of Mulliken charges =   0.00000

 Dipole moment (field-independent basis, Debye):
    X=              0.1883    Y=             -0.1763    Z=             -0.0692  Tot=              0.2671
 Quadrupole moment (field-independent basis, Debye-Ang):
   XX=             -9.0838   YY=             -8.4237   ZZ=             -8.8089
   XY=              0.7871   XZ=              0.3940   YZ=             -0.0681

 Normal termination of Gaussian 16 at Fri Sep 22 17:14:00 2023.
