 Gaussian 16, Revision A.03,
 Gaussian 16:  ES64L-G16RevA.03 25-Dec-2016

 ----------
 # hf/3-21g
 ----------

 ------------------------
 tmpdir/M1_conf_245_0.gjf
 ------------------------
 Symbolic Z-matrix:
 Charge =  0 Multiplicity = 1

                         Standard orientation:
 ---------------------------------------------------------------------
 Center     Atomic      Atomic             Coordinates (Angstroms)
 Number     Number       Type             X           Y           Z
 ---------------------------------------------------------------------
      1          6           0        0.320815   -0.053283   -0.051325
      2          1           0        0.177053   -0.447845    0.848742
      3          1           0       -0.420081   -0.475982   -0.713778
      4          1           0        0.283843    1.078579   -0.005016
      5          1           0       -1.965707    0.164948    0.178001
 ---------------------------------------------------------------------

 SCF Done:  E(RHF) =  -39.7270671575     A.U. after   12 cycles

 The electronic state is 1-A.
 Alpha  occ. eigenvalues --  -11.23455  -0.96029  -0.60623  -0.58966  -0.31434
 Alpha virt. eigenvalues --    0.01066   0.28423   0.33551   0.34965   0.85179
 Alpha virt. eigenvalues --    0.91875   1.01140   1.18945   1.29019   1.32588
 Alpha virt. eigenvalues --    1.38633   1.76368

 Mulliken charges:
               1
     1  C   -0.581962
     2  H    0.260616
     3  H    0.264692
     4  H    0.235688
     5  H   -0.179034
 Sum of Mulliken charges =   0.00000

 Dipole moment (field-independent basis, Debye):
    X=              1.1335    Y=              0.0152    Z=              0.1658  Tot=              1.1456
 Quadrupole moment (field-independent basis, Debye-Ang):
   XX=            -12.0853   YY=             -8.6011   ZZ=             -9.0687
   XY=              0.6414   XZ=              0.8175   YZ=             -0.0919

 Normal termination of Gaussian 16 at Fri Sep 22 17:16:11 2023.
