 Gaussian 16, Revision A.03,
 Gaussian 16:  ES64L-G16RevA.03 25-Dec-2016

 ----------
 # hf/3-21g
 ----------

 -----------------------
 tmpdir/M1_conf_89_0.gjf
 -----------------------
 Symbolic Z-matrix:
 Charge =  0 Multiplicity = 1

                         Standard orientation:
 ---------------------------------------------------------------------
 Center     Atomic      Atomic             Coordinates (Angstroms)
 Number     Number       Type             X           Y           Z
 ---------------------------------------------------------------------
      1          6           0       -0.035183   -0.019329   -0.029765
      2          1           0        0.859634   -0.557493   -0.503799
      3          1           0       -0.365017   -0.631905    0.780189
      4          1           0       -0.883293    0.363049   -0.519357
      5          1           0        0.599775    0.942324    0.421554
 ---------------------------------------------------------------------

 SCF Done:  E(RHF) =  -39.9521157852     A.U. after    9 cycles

 The electronic state is 1-A.
 Alpha  occ. eigenvalues --  -11.16518  -0.93358  -0.57829  -0.54116  -0.48028
 Alpha virt. eigenvalues --    0.27733   0.29936   0.34838   0.36495   0.90033
 Alpha virt. eigenvalues --    0.97881   0.98605   1.23933   1.27564   1.35928
 Alpha virt. eigenvalues --    1.38216   1.93087

 Mulliken charges:
               1
     1  C   -0.769548
     2  H    0.196448
     3  H    0.208941
     4  H    0.219869
     5  H    0.144290
 Sum of Mulliken charges =   0.00000

 Dipole moment (field-independent basis, Debye):
    X=             -0.0236    Y=             -0.0630    Z=              0.0501  Tot=              0.0839
 Quadrupole moment (field-independent basis, Debye-Ang):
   XX=             -7.9657   YY=             -8.6595   ZZ=             -8.9827
   XY=             -0.1853   XZ=             -0.0065   YZ=             -0.2268

 Normal termination of Gaussian 16 at Fri Sep 22 17:13:00 2023.
