 Gaussian 16, Revision A.03,
 Gaussian 16:  ES64L-G16RevA.03 25-Dec-2016

 ----------
 # hf/3-21g
 ----------

 ------------------------
 tmpdir/M1_conf_246_0.gjf
 ------------------------
 Symbolic Z-matrix:
 Charge =  0 Multiplicity = 1

                         Standard orientation:
 ---------------------------------------------------------------------
 Center     Atomic      Atomic             Coordinates (Angstroms)
 Number     Number       Type             X           Y           Z
 ---------------------------------------------------------------------
      1          6           0        0.316305   -0.079116   -0.043822
      2          1           0        0.169411   -0.286577    0.933490
      3          1           0       -0.465958   -0.601398   -0.660535
      4          1           0        0.370948    1.112156   -0.171788
      5          1           0       -1.972234    0.250518    0.161763
 ---------------------------------------------------------------------

 SCF Done:  E(RHF) =  -39.7238435437     A.U. after   12 cycles

 The electronic state is 1-A.
 Alpha  occ. eigenvalues --  -11.24751  -0.94527  -0.59813  -0.57252  -0.31342
 Alpha virt. eigenvalues --    0.01212   0.26242   0.32006   0.34220   0.86656
 Alpha virt. eigenvalues --    0.95904   1.00853   1.16047   1.26498   1.28819
 Alpha virt. eigenvalues --    1.36826   1.74619

 Mulliken charges:
               1
     1  C   -0.563764
     2  H    0.260861
     3  H    0.262959
     4  H    0.222039
     5  H   -0.182095
 Sum of Mulliken charges =  -0.00000

 Dipole moment (field-independent basis, Debye):
    X=              1.1412    Y=              0.0225    Z=              0.1742  Tot=              1.1546
 Quadrupole moment (field-independent basis, Debye-Ang):
   XX=            -12.2266   YY=             -8.7245   ZZ=             -9.0810
   XY=              0.9871   XZ=              0.7897   YZ=             -0.0874

 Normal termination of Gaussian 16 at Fri Sep 22 17:16:12 2023.
