 Gaussian 16, Revision A.03,
 Gaussian 16:  ES64L-G16RevA.03 25-Dec-2016

 ----------
 # hf/3-21g
 ----------

 ------------------------
 tmpdir/M1_conf_155_0.gjf
 ------------------------
 Symbolic Z-matrix:
 Charge =  0 Multiplicity = 1

                         Standard orientation:
 ---------------------------------------------------------------------
 Center     Atomic      Atomic             Coordinates (Angstroms)
 Number     Number       Type             X           Y           Z
 ---------------------------------------------------------------------
      1          6           0       -0.099871   -0.078415   -0.040793
      2          1           0        0.712864   -0.883004   -0.276928
      3          1           0       -0.434926   -0.078508    0.961743
      4          1           0       -0.750590    0.541356   -0.583245
      5          1           0        1.071881    0.890644    0.143185
 ---------------------------------------------------------------------

 SCF Done:  E(RHF) =  -39.8844083230     A.U. after   10 cycles

 The electronic state is 1-A.
 Alpha  occ. eigenvalues --  -11.19728  -0.92648  -0.59579  -0.55217  -0.40562
 Alpha virt. eigenvalues --    0.19668   0.26746   0.34514   0.36349   0.88746
 Alpha virt. eigenvalues --    1.02233   1.02916   1.19604   1.23980   1.35710
 Alpha virt. eigenvalues --    1.36976   1.88135

 Mulliken charges:
               1
     1  C   -0.712897
     2  H    0.235206
     3  H    0.227709
     4  H    0.246184
     5  H    0.003797
 Sum of Mulliken charges =  -0.00000

 Dipole moment (field-independent basis, Debye):
    X=             -0.2424    Y=             -0.2197    Z=              0.0589  Tot=              0.3324
 Quadrupole moment (field-independent basis, Debye-Ang):
   XX=             -8.4573   YY=             -9.0948   ZZ=             -8.9301
   XY=             -1.1544   XZ=             -0.1435   YZ=             -0.2086

 Normal termination of Gaussian 16 at Fri Sep 22 17:14:24 2023.
