 Gaussian 16, Revision A.03,
 Gaussian 16:  ES64L-G16RevA.03 25-Dec-2016

 ----------
 # hf/3-21g
 ----------

 ------------------------
 tmpdir/M1_conf_185_0.gjf
 ------------------------
 Symbolic Z-matrix:
 Charge =  0 Multiplicity = 1

                         Standard orientation:
 ---------------------------------------------------------------------
 Center     Atomic      Atomic             Coordinates (Angstroms)
 Number     Number       Type             X           Y           Z
 ---------------------------------------------------------------------
      1          6           0       -0.236103    0.036306    0.043146
      2          1           0        0.267761   -0.415910    0.953598
      3          1           0       -0.041559    1.020229   -0.194402
      4          1           0       -0.320876   -0.790162   -0.729358
      5          1           0        1.511291   -0.031991   -0.288712
 ---------------------------------------------------------------------

 SCF Done:  E(RHF) =  -39.8146512133     A.U. after   11 cycles

 The electronic state is 1-A.
 Alpha  occ. eigenvalues --  -11.22048  -0.93307  -0.61064  -0.55302  -0.36031
 Alpha virt. eigenvalues --    0.10823   0.27483   0.32051   0.35808   0.92166
 Alpha virt. eigenvalues --    0.93982   1.02508   1.22510   1.25416   1.28389
 Alpha virt. eigenvalues --    1.37110   1.82344

 Mulliken charges:
               1
     1  C   -0.649265
     2  H    0.244730
     3  H    0.267315
     4  H    0.238370
     5  H   -0.101149
 Sum of Mulliken charges =   0.00000

 Dipole moment (field-independent basis, Debye):
    X=             -0.2660    Y=             -0.0581    Z=              0.0211  Tot=              0.2731
 Quadrupole moment (field-independent basis, Debye-Ang):
   XX=            -10.9011   YY=             -8.0979   ZZ=             -8.9497
   XY=              0.0692   XZ=              0.8360   YZ=             -0.0739

 Normal termination of Gaussian 16 at Fri Sep 22 17:15:00 2023.
