 Gaussian 16, Revision A.03,
 Gaussian 16:  ES64L-G16RevA.03 25-Dec-2016

 ----------
 # hf/3-21g
 ----------

 ------------------------
 tmpdir/M1_conf_258_0.gjf
 ------------------------
 Symbolic Z-matrix:
 Charge =  0 Multiplicity = 1

                         Standard orientation:
 ---------------------------------------------------------------------
 Center     Atomic      Atomic             Coordinates (Angstroms)
 Number     Number       Type             X           Y           Z
 ---------------------------------------------------------------------
      1          6           0       -0.311599   -0.016727    0.105968
      2          1           0       -0.460256   -0.985329   -0.458207
      3          1           0        0.694800    0.094934    0.658997
      4          1           0       -0.459528    1.028129   -0.501808
      5          1           0        2.094578   -0.037374   -0.334789
 ---------------------------------------------------------------------

 SCF Done:  E(RHF) =  -39.7091583495     A.U. after   13 cycles

 The electronic state is 1-A.
 Alpha  occ. eigenvalues --  -11.26880  -0.92226  -0.59838  -0.55781  -0.30198
 Alpha virt. eigenvalues --    0.00357   0.24424   0.29959   0.33276   0.92903
 Alpha virt. eigenvalues --    0.96473   0.98716   1.12566   1.23470   1.25795
 Alpha virt. eigenvalues --    1.30184   1.68659

 Mulliken charges:
               1
     1  C   -0.518616
     2  H    0.242800
     3  H    0.262045
     4  H    0.214437
     5  H   -0.200666
 Sum of Mulliken charges =  -0.00000

 Dipole moment (field-independent basis, Debye):
    X=             -1.6751    Y=              0.0264    Z=             -0.2828  Tot=              1.6990
 Quadrupole moment (field-independent basis, Debye-Ang):
   XX=            -12.7040   YY=             -8.4531   ZZ=            -10.0376
   XY=              0.2349   XZ=              1.3804   YZ=              0.0922

 Normal termination of Gaussian 16 at Fri Sep 22 17:16:26 2023.
