 Gaussian 16, Revision A.03,
 Gaussian 16:  ES64L-G16RevA.03 25-Dec-2016

 ----------
 # hf/3-21g
 ----------

 ------------------------
 tmpdir/M1_conf_229_1.gjf
 ------------------------
 Symbolic Z-matrix:
 Charge =  0 Multiplicity = 1

                         Standard orientation:
 ---------------------------------------------------------------------
 Center     Atomic      Atomic             Coordinates (Angstroms)
 Number     Number       Type             X           Y           Z
 ---------------------------------------------------------------------
      1         17           0        0.000000    0.000000    0.135970
      2          1           0       -0.000000   -0.000000   -2.311493
 ---------------------------------------------------------------------

 SCF Done:  E(RHF) =  -457.704636847     A.U. after    9 cycles

 The electronic state is 1-SG.
 Alpha  occ. eigenvalues -- -104.11951 -10.50514  -7.96840  -7.96533  -7.96533
 Alpha  occ. eigenvalues --   -1.03592  -0.45190  -0.45190  -0.43048
 Alpha virt. eigenvalues --   -0.09770   0.68505   0.80473   0.80473   0.84731
 Alpha virt. eigenvalues --    1.10285

 Mulliken charges:
               1
     1  Cl  -0.266918
     2  H    0.266918
 Sum of Mulliken charges =  -0.00000

 Dipole moment (field-independent basis, Debye):
    X=             -0.0000    Y=             -0.0000    Z=             -3.0604  Tot=              3.0604
 Quadrupole moment (field-independent basis, Debye-Ang):
   XX=            -14.7795   YY=            -14.7795   ZZ=             -5.3005
   XY=              0.0000   XZ=              0.0000   YZ=             -0.0000

 Normal termination of Gaussian 16 at Fri Sep 22 17:15:52 2023.
