 Gaussian 16, Revision A.03,
 Gaussian 16:  ES64L-G16RevA.03 25-Dec-2016

 ----------
 # hf/3-21g
 ----------

 ------------------------
 tmpdir/M1_conf_262_0.gjf
 ------------------------
 Symbolic Z-matrix:
 Charge =  0 Multiplicity = 1

                         Standard orientation:
 ---------------------------------------------------------------------
 Center     Atomic      Atomic             Coordinates (Angstroms)
 Number     Number       Type             X           Y           Z
 ---------------------------------------------------------------------
      1          6           0       -0.330715   -0.043071   -0.094912
      2          1           0       -0.484346    0.978506    0.371515
      3          1           0        0.581060   -0.040147   -0.561391
      4          1           0       -0.230181   -0.788660    0.549549
      5          1           0        2.117757    0.108730    0.209800
 ---------------------------------------------------------------------

 SCF Done:  E(RHF) =  -39.6892118846     A.U. after   14 cycles

 The electronic state is 1-A.
 Alpha  occ. eigenvalues --  -11.23213  -0.97596  -0.61696  -0.59276  -0.30214
 Alpha virt. eigenvalues --   -0.01571   0.28148   0.34578   0.38063   0.83413
 Alpha virt. eigenvalues --    0.90802   0.98651   1.19456   1.27335   1.38637
 Alpha virt. eigenvalues --    1.39411   1.77707

 Mulliken charges:
               1
     1  C   -0.567910
     2  H    0.225445
     3  H    0.265432
     4  H    0.254588
     5  H   -0.177553
 Sum of Mulliken charges =   0.00000

 Dipole moment (field-independent basis, Debye):
    X=             -1.5016    Y=             -0.0325    Z=              0.4119  Tot=              1.5574
 Quadrupole moment (field-independent basis, Debye-Ang):
   XX=            -12.2165   YY=             -8.5081   ZZ=             -9.6835
   XY=             -0.3661   XZ=             -0.8190   YZ=             -0.0584

 Normal termination of Gaussian 16 at Fri Sep 22 17:16:31 2023.
