 Gaussian 16, Revision A.03,
 Gaussian 16:  ES64L-G16RevA.03 25-Dec-2016

 ----------
 # hf/3-21g
 ----------

 -----------------------
 tmpdir/M1_conf_44_1.gjf
 -----------------------
 Symbolic Z-matrix:
 Charge =  0 Multiplicity = 1

                         Standard orientation:
 ---------------------------------------------------------------------
 Center     Atomic      Atomic             Coordinates (Angstroms)
 Number     Number       Type             X           Y           Z
 ---------------------------------------------------------------------
      1         17           0        0.000000   -0.000000    0.080827
      2          1           0        0.000000    0.000000   -1.374052
 ---------------------------------------------------------------------

 SCF Done:  E(RHF) =  -457.859007843     A.U. after    8 cycles

 The electronic state is 1-SG.
 Alpha  occ. eigenvalues -- -104.12371 -10.51637  -7.98013  -7.97587  -7.97587
 Alpha  occ. eigenvalues --   -1.09818  -0.58133  -0.47621  -0.47621
 Alpha virt. eigenvalues --    0.10787   0.70848   0.78437   0.78437   0.84345
 Alpha virt. eigenvalues --    1.07002

 Mulliken charges:
               1
     1  Cl  -0.231206
     2  H    0.231206
 Sum of Mulliken charges =  -0.00000

 Dipole moment (field-independent basis, Debye):
    X=             -0.0000    Y=              0.0000    Z=             -1.9249  Tot=              1.9249
 Quadrupole moment (field-independent basis, Debye-Ang):
   XX=            -14.3159   YY=            -14.3159   ZZ=            -10.4147
   XY=             -0.0000   XZ=             -0.0000   YZ=              0.0000

 Normal termination of Gaussian 16 at Fri Sep 22 17:12:02 2023.
