 Gaussian 16, Revision A.03,
 Gaussian 16:  ES64L-G16RevA.03 25-Dec-2016

 ----------
 # hf/3-21g
 ----------

 -----------------------
 tmpdir/M1_conf_43_1.gjf
 -----------------------
 Symbolic Z-matrix:
 Charge =  0 Multiplicity = 1

                         Standard orientation:
 ---------------------------------------------------------------------
 Center     Atomic      Atomic             Coordinates (Angstroms)
 Number     Number       Type             X           Y           Z
 ---------------------------------------------------------------------
      1         17           0       -0.000000    0.000000    0.080166
      2          1           0        0.000000   -0.000000   -1.362819
 ---------------------------------------------------------------------

 SCF Done:  E(RHF) =  -457.860303684     A.U. after    8 cycles

 The electronic state is 1-SG.
 Alpha  occ. eigenvalues -- -104.12321 -10.51613  -7.97991  -7.97561  -7.97561
 Alpha  occ. eigenvalues --   -1.09982  -0.58366  -0.47645  -0.47645
 Alpha virt. eigenvalues --    0.11193   0.70878   0.78425   0.78425   0.84060
 Alpha virt. eigenvalues --    1.07029

 Mulliken charges:
               1
     1  Cl  -0.230104
     2  H    0.230104
 Sum of Mulliken charges =  -0.00000

 Dipole moment (field-independent basis, Debye):
    X=              0.0000    Y=             -0.0000    Z=             -1.9191  Tot=              1.9191
 Quadrupole moment (field-independent basis, Debye-Ang):
   XX=            -14.3024   YY=            -14.3024   ZZ=            -10.4497
   XY=             -0.0000   XZ=             -0.0000   YZ=             -0.0000

 Normal termination of Gaussian 16 at Fri Sep 22 17:12:01 2023.
