 Gaussian 16, Revision A.03,
 Gaussian 16:  ES64L-G16RevA.03 25-Dec-2016

 ----------
 # hf/3-21g
 ----------

 ------------------------
 tmpdir/M1_conf_275_0.gjf
 ------------------------
 Symbolic Z-matrix:
 Charge =  0 Multiplicity = 1

                         Standard orientation:
 ---------------------------------------------------------------------
 Center     Atomic      Atomic             Coordinates (Angstroms)
 Number     Number       Type             X           Y           Z
 ---------------------------------------------------------------------
      1          6           0       -0.290492   -0.031437    0.044401
      2          1           0       -0.404315   -0.674370   -0.644785
      3          1           0        0.374447   -0.234457    0.849344
      4          1           0       -0.391908    1.022958   -0.202677
      5          1           0        2.164731    0.074488   -0.268289
 ---------------------------------------------------------------------

 SCF Done:  E(RHF) =  -39.7241612110     A.U. after   13 cycles

 The electronic state is 1-A.
 Alpha  occ. eigenvalues --  -11.23851  -0.97215  -0.65449  -0.61061  -0.28997
 Alpha virt. eigenvalues --    0.01420   0.28732   0.33333   0.35981   0.84523
 Alpha virt. eigenvalues --    0.89184   0.99430   1.12551   1.30582   1.33249
 Alpha virt. eigenvalues --    1.42103   1.75494

 Mulliken charges:
               1
     1  C   -0.558045
     2  H    0.262875
     3  H    0.278292
     4  H    0.246669
     5  H   -0.229791
 Sum of Mulliken charges =   0.00000

 Dipole moment (field-independent basis, Debye):
    X=             -2.2313    Y=             -0.0366    Z=              0.1888  Tot=              2.2395
 Quadrupole moment (field-independent basis, Debye-Ang):
   XX=            -13.4146   YY=             -8.3311   ZZ=             -8.8244
   XY=             -0.3152   XZ=              1.3487   YZ=              0.1013

 Normal termination of Gaussian 16 at Fri Sep 22 17:16:46 2023.
