 Gaussian 16, Revision A.03,
 Gaussian 16:  ES64L-G16RevA.03 25-Dec-2016

 ----------
 # hf/3-21g
 ----------

 ------------------------
 tmpdir/M1_conf_162_0.gjf
 ------------------------
 Symbolic Z-matrix:
 Charge =  0 Multiplicity = 1

                         Standard orientation:
 ---------------------------------------------------------------------
 Center     Atomic      Atomic             Coordinates (Angstroms)
 Number     Number       Type             X           Y           Z
 ---------------------------------------------------------------------
      1          6           0        0.170198   -0.022637   -0.015646
      2          1           0       -0.099578   -0.665241   -0.759050
      3          1           0        0.234330    1.038857   -0.182254
      4          1           0        0.217763   -0.385317    0.882918
      5          1           0       -1.373704    0.147524    0.152264
 ---------------------------------------------------------------------

 SCF Done:  E(RHF) =  -39.8659236701     A.U. after   10 cycles

 The electronic state is 1-A.
 Alpha  occ. eigenvalues --  -11.17962  -0.95532  -0.61090  -0.59676  -0.39355
 Alpha virt. eigenvalues --    0.17434   0.30096   0.36367   0.37764   0.86638
 Alpha virt. eigenvalues --    0.92229   1.03326   1.17298   1.31200   1.40799
 Alpha virt. eigenvalues --    1.46070   1.91898

 Mulliken charges:
               1
     1  C   -0.716516
     2  H    0.250632
     3  H    0.239137
     4  H    0.254550
     5  H   -0.027803
 Sum of Mulliken charges =  -0.00000

 Dipole moment (field-independent basis, Debye):
    X=              0.2145    Y=             -0.0447    Z=             -0.0199  Tot=              0.2201
 Quadrupole moment (field-independent basis, Debye-Ang):
   XX=            -10.0476   YY=             -8.0553   ZZ=             -8.3966
   XY=              0.2877   XZ=              0.3764   YZ=             -0.0486

 Normal termination of Gaussian 16 at Fri Sep 22 17:14:32 2023.
