 Gaussian 16, Revision A.03,
 Gaussian 16:  ES64L-G16RevA.03 25-Dec-2016

 ----------
 # hf/3-21g
 ----------

 ------------------------
 tmpdir/M1_conf_177_0.gjf
 ------------------------
 Symbolic Z-matrix:
 Charge =  0 Multiplicity = 1

                         Standard orientation:
 ---------------------------------------------------------------------
 Center     Atomic      Atomic             Coordinates (Angstroms)
 Number     Number       Type             X           Y           Z
 ---------------------------------------------------------------------
      1          6           0        0.189010   -0.114117   -0.056419
      2          1           0        0.671081    0.785685   -0.420471
      3          1           0        0.183121   -0.151003    1.035334
      4          1           0       -0.790134   -0.760450   -0.427798
      5          1           0       -1.198129    0.810471    0.151450
 ---------------------------------------------------------------------

 SCF Done:  E(RHF) =  -39.8189083027     A.U. after   10 cycles

 The electronic state is 1-A.
 Alpha  occ. eigenvalues --  -11.22235  -0.92225  -0.59288  -0.54070  -0.37024
 Alpha virt. eigenvalues --    0.13272   0.24231   0.32492   0.35005   0.91000
 Alpha virt. eigenvalues --    1.01739   1.03021   1.19344   1.23971   1.30176
 Alpha virt. eigenvalues --    1.32816   1.85359

 Mulliken charges:
               1
     1  C   -0.674477
     2  H    0.261130
     3  H    0.237288
     4  H    0.247530
     5  H   -0.071470
 Sum of Mulliken charges =   0.00000

 Dipole moment (field-independent basis, Debye):
    X=              0.0105    Y=              0.0147    Z=              0.1521  Tot=              0.1532
 Quadrupole moment (field-independent basis, Debye-Ang):
   XX=             -9.2304   YY=             -9.4172   ZZ=             -9.0965
   XY=              1.7338   XZ=              0.3166   YZ=             -0.3375

 Normal termination of Gaussian 16 at Fri Sep 22 17:14:50 2023.
