 Gaussian 16, Revision A.03,
 Gaussian 16:  ES64L-G16RevA.03 25-Dec-2016

 ----------
 # hf/3-21g
 ----------

 ------------------------
 tmpdir/M1_conf_221_1.gjf
 ------------------------
 Symbolic Z-matrix:
 Charge =  0 Multiplicity = 1

                         Standard orientation:
 ---------------------------------------------------------------------
 Center     Atomic      Atomic             Coordinates (Angstroms)
 Number     Number       Type             X           Y           Z
 ---------------------------------------------------------------------
      1         17           0       -0.000000    0.000000    0.132924
      2          1           0        0.000000   -0.000000   -2.259710
 ---------------------------------------------------------------------

 SCF Done:  E(RHF) =  -457.712239749     A.U. after    9 cycles

 The electronic state is 1-SG.
 Alpha  occ. eigenvalues -- -104.12096 -10.50652  -7.96979  -7.96671  -7.96671
 Alpha  occ. eigenvalues --   -1.03761  -0.45314  -0.45314  -0.43621
 Alpha virt. eigenvalues --   -0.09107   0.68613   0.80355   0.80355   0.85156
 Alpha virt. eigenvalues --    1.10281

 Mulliken charges:
               1
     1  Cl  -0.265079
     2  H    0.265079
 Sum of Mulliken charges =  -0.00000

 Dipole moment (field-independent basis, Debye):
    X=              0.0000    Y=             -0.0000    Z=             -2.9734  Tot=              2.9734
 Quadrupole moment (field-independent basis, Debye-Ang):
   XX=            -14.7730   YY=            -14.7730   ZZ=             -5.6518
   XY=              0.0000   XZ=              0.0000   YZ=             -0.0000

 Normal termination of Gaussian 16 at Fri Sep 22 17:15:42 2023.
