 Gaussian 16, Revision A.03,
 Gaussian 16:  ES64L-G16RevA.03 25-Dec-2016

 ----------
 # hf/3-21g
 ----------

 ------------------------
 tmpdir/M1_conf_238_1.gjf
 ------------------------
 Symbolic Z-matrix:
 Charge =  0 Multiplicity = 1

                         Standard orientation:
 ---------------------------------------------------------------------
 Center     Atomic      Atomic             Coordinates (Angstroms)
 Number     Number       Type             X           Y           Z
 ---------------------------------------------------------------------
      1         17           0       -0.000000   -0.000000    0.144667
      2          1           0        0.000000    0.000000   -2.459347
 ---------------------------------------------------------------------

 SCF Done:  E(RHF) =  -457.684360106     A.U. after    9 cycles

 The electronic state is 1-SG.
 Alpha  occ. eigenvalues -- -104.11530 -10.50114  -7.96441  -7.96135  -7.96135
 Alpha  occ. eigenvalues --   -1.03154  -0.44849  -0.44849  -0.41554
 Alpha virt. eigenvalues --   -0.11486   0.68234   0.80797   0.80797   0.83476
 Alpha virt. eigenvalues --    1.10191

 Mulliken charges:
               1
     1  Cl  -0.271895
     2  H    0.271895
 Sum of Mulliken charges =   0.00000

 Dipole moment (field-independent basis, Debye):
    X=              0.0000    Y=              0.0000    Z=             -3.3140  Tot=              3.3140
 Quadrupole moment (field-independent basis, Debye-Ang):
   XX=            -14.7943   YY=            -14.7943   ZZ=             -4.2767
   XY=              0.0000   XZ=              0.0000   YZ=             -0.0000

 Normal termination of Gaussian 16 at Fri Sep 22 17:16:02 2023.
