 Gaussian 16, Revision A.03,
 Gaussian 16:  ES64L-G16RevA.03 25-Dec-2016

 ----------
 # hf/3-21g
 ----------

 -----------------------
 tmpdir/M1_conf_64_0.gjf
 -----------------------
 Symbolic Z-matrix:
 Charge =  0 Multiplicity = 1

                         Standard orientation:
 ---------------------------------------------------------------------
 Center     Atomic      Atomic             Coordinates (Angstroms)
 Number     Number       Type             X           Y           Z
 ---------------------------------------------------------------------
      1          6           0        0.066716   -0.054990    0.000413
      2          1           0       -0.147148   -0.512801    0.932169
      3          1           0       -0.401557   -0.603908   -0.840991
      4          1           0        1.088010    0.524421   -0.142385
      5          1           0       -0.939600    0.922227    0.048731
 ---------------------------------------------------------------------

 SCF Done:  E(RHF) =  -39.9215186731     A.U. after    9 cycles

 The electronic state is 1-A.
 Alpha  occ. eigenvalues --  -11.19286  -0.91787  -0.56107  -0.55414  -0.44248
 Alpha virt. eigenvalues --    0.23505   0.27765   0.33939   0.35345   0.91572
 Alpha virt. eigenvalues --    0.98661   1.02428   1.19815   1.22638   1.32442
 Alpha virt. eigenvalues --    1.36369   1.90765

 Mulliken charges:
               1
     1  C   -0.714076
     2  H    0.227918
     3  H    0.216351
     4  H    0.199256
     5  H    0.070552
 Sum of Mulliken charges =   0.00000

 Dipole moment (field-independent basis, Debye):
    X=              0.0535    Y=             -0.2030    Z=              0.0145  Tot=              0.2104
 Quadrupole moment (field-independent basis, Debye-Ang):
   XX=             -8.4264   YY=             -9.1327   ZZ=             -8.6264
   XY=              0.6437   XZ=              0.0407   YZ=             -0.0831

 Normal termination of Gaussian 16 at Fri Sep 22 17:12:26 2023.
