 Gaussian 16, Revision A.03,
 Gaussian 16:  ES64L-G16RevA.03 25-Dec-2016

 ----------
 # hf/3-21g
 ----------

 ------------------------
 tmpdir/M1_conf_222_0.gjf
 ------------------------
 Symbolic Z-matrix:
 Charge =  0 Multiplicity = 1

                         Standard orientation:
 ---------------------------------------------------------------------
 Center     Atomic      Atomic             Coordinates (Angstroms)
 Number     Number       Type             X           Y           Z
 ---------------------------------------------------------------------
      1          6           0        0.271245   -0.017466    0.069738
      2          1           0        0.149037    1.082794   -0.166921
      3          1           0       -0.496824   -0.321618    0.652988
      4          1           0        0.458976   -0.652503   -0.608292
      5          1           0       -1.738659   -0.003879   -0.296201
 ---------------------------------------------------------------------

 SCF Done:  E(RHF) =  -39.7451064398     A.U. after   12 cycles

 The electronic state is 1-A.
 Alpha  occ. eigenvalues --  -11.21362  -0.97165  -0.63851  -0.58765  -0.32932
 Alpha virt. eigenvalues --    0.04952   0.29037   0.35358   0.37444   0.83414
 Alpha virt. eigenvalues --    0.91347   1.02670   1.20609   1.26817   1.37559
 Alpha virt. eigenvalues --    1.43829   1.78585

 Mulliken charges:
               1
     1  C   -0.597381
     2  H    0.236050
     3  H    0.270501
     4  H    0.251728
     5  H   -0.160898
 Sum of Mulliken charges =   0.00000

 Dipole moment (field-independent basis, Debye):
    X=              0.9177    Y=             -0.0039    Z=             -0.0932  Tot=              0.9224
 Quadrupole moment (field-independent basis, Debye-Ang):
   XX=            -10.9843   YY=             -8.1923   ZZ=             -9.5089
   XY=             -0.0510   XZ=             -1.2084   YZ=              0.0609

 Normal termination of Gaussian 16 at Fri Sep 22 17:15:43 2023.
