 Gaussian 16, Revision A.03,
 Gaussian 16:  ES64L-G16RevA.03 25-Dec-2016

 ----------
 # hf/3-21g
 ----------

 -----------------------
 tmpdir/M1_conf_73_0.gjf
 -----------------------
 Symbolic Z-matrix:
 Charge =  0 Multiplicity = 1

                         Standard orientation:
 ---------------------------------------------------------------------
 Center     Atomic      Atomic             Coordinates (Angstroms)
 Number     Number       Type             X           Y           Z
 ---------------------------------------------------------------------
      1          6           0       -0.086949    0.018255   -0.014512
      2          1           0       -0.859728   -0.520473   -0.409888
      3          1           0       -0.140436    0.260652    1.008829
      4          1           0        0.442811    0.885692   -0.525034
      5          1           0        1.079048   -0.735398    0.013164
 ---------------------------------------------------------------------

 SCF Done:  E(RHF) =  -39.9253446567     A.U. after    9 cycles

 The electronic state is 1-A.
 Alpha  occ. eigenvalues --  -11.17621  -0.93339  -0.59901  -0.54476  -0.44614
 Alpha virt. eigenvalues --    0.23945   0.29583   0.34799   0.37029   0.89711
 Alpha virt. eigenvalues --    0.94844   1.01712   1.19613   1.28687   1.35533
 Alpha virt. eigenvalues --    1.41397   1.93204

 Mulliken charges:
               1
     1  C   -0.735799
     2  H    0.227632
     3  H    0.223509
     4  H    0.206410
     5  H    0.078249
 Sum of Mulliken charges =  -0.00000

 Dipole moment (field-independent basis, Debye):
    X=             -0.1233    Y=              0.1869    Z=              0.0727  Tot=              0.2354
 Quadrupole moment (field-independent basis, Debye-Ang):
   XX=             -8.3728   YY=             -8.8707   ZZ=             -8.6524
   XY=              0.6471   XZ=              0.0592   YZ=              0.1101

 Normal termination of Gaussian 16 at Fri Sep 22 17:12:41 2023.
