 Gaussian 16, Revision A.03,
 Gaussian 16:  ES64L-G16RevA.03 25-Dec-2016

 ----------
 # hf/3-21g
 ----------

 ------------------------
 tmpdir/M1_conf_230_0.gjf
 ------------------------
 Symbolic Z-matrix:
 Charge =  0 Multiplicity = 1

                         Standard orientation:
 ---------------------------------------------------------------------
 Center     Atomic      Atomic             Coordinates (Angstroms)
 Number     Number       Type             X           Y           Z
 ---------------------------------------------------------------------
      1          6           0        0.213885   -0.049823   -0.096060
      2          1           0        0.628921   -0.390027    0.896665
      3          1           0       -0.598108   -0.602586   -0.575253
      4          1           0        0.480208    0.996376   -0.143878
      5          1           0       -1.794331    0.295176    0.398827
 ---------------------------------------------------------------------

 SCF Done:  E(RHF) =  -39.7725547213     A.U. after   12 cycles

 The electronic state is 1-A.
 Alpha  occ. eigenvalues --  -11.24119  -0.93334  -0.62759  -0.56649  -0.32133
 Alpha virt. eigenvalues --    0.06186   0.26861   0.31397   0.34983   0.90168
 Alpha virt. eigenvalues --    0.97047   1.01949   1.14988   1.27773   1.28145
 Alpha virt. eigenvalues --    1.35528   1.71172

 Mulliken charges:
               1
     1  C   -0.587897
     2  H    0.224226
     3  H    0.290745
     4  H    0.255213
     5  H   -0.182287
 Sum of Mulliken charges =  -0.00000

 Dipole moment (field-independent basis, Debye):
    X=              1.3511    Y=             -0.1561    Z=             -0.1516  Tot=              1.3685
 Quadrupole moment (field-independent basis, Debye-Ang):
   XX=            -10.9902   YY=             -8.7460   ZZ=             -9.3964
   XY=              1.2790   XZ=              1.5553   YZ=             -0.1291

 Normal termination of Gaussian 16 at Fri Sep 22 17:15:53 2023.
