 Gaussian 16, Revision A.03,
 Gaussian 16:  ES64L-G16RevA.03 25-Dec-2016

 ----------
 # hf/3-21g
 ----------

 ------------------------
 tmpdir/M1_conf_270_0.gjf
 ------------------------
 Symbolic Z-matrix:
 Charge =  0 Multiplicity = 1

                         Standard orientation:
 ---------------------------------------------------------------------
 Center     Atomic      Atomic             Coordinates (Angstroms)
 Number     Number       Type             X           Y           Z
 ---------------------------------------------------------------------
      1          6           0        0.319337   -0.010824   -0.122744
      2          1           0        0.477714   -0.589770    0.940813
      3          1           0       -0.501392   -0.509899   -0.653249
      4          1           0        0.242345    1.065575    0.175205
      5          1           0       -2.134691    0.099038    0.273695
 ---------------------------------------------------------------------

 SCF Done:  E(RHF) =  -39.7026113311     A.U. after   13 cycles

 The electronic state is 1-A.
 Alpha  occ. eigenvalues --  -11.26439  -0.93166  -0.61045  -0.54720  -0.30099
 Alpha virt. eigenvalues --   -0.00764   0.25585   0.28964   0.33909   0.92830
 Alpha virt. eigenvalues --    0.93758   0.98936   1.14457   1.22078   1.29603
 Alpha virt. eigenvalues --    1.31041   1.71849

 Mulliken charges:
               1
     1  C   -0.541779
     2  H    0.201134
     3  H    0.276185
     4  H    0.253467
     5  H   -0.189007
 Sum of Mulliken charges =   0.00000

 Dipole moment (field-independent basis, Debye):
    X=              1.4361    Y=              0.0523    Z=              0.2325  Tot=              1.4558
 Quadrupole moment (field-independent basis, Debye-Ang):
   XX=            -12.9292   YY=             -8.7203   ZZ=             -9.3606
   XY=              0.5471   XZ=              1.1732   YZ=              0.1630

 Normal termination of Gaussian 16 at Fri Sep 22 17:16:40 2023.
