 Gaussian 16, Revision A.03,
 Gaussian 16:  ES64L-G16RevA.03 25-Dec-2016

 ----------
 # hf/3-21g
 ----------

 -----------------------
 tmpdir/M1_conf_83_0.gjf
 -----------------------
 Symbolic Z-matrix:
 Charge =  0 Multiplicity = 1

                         Standard orientation:
 ---------------------------------------------------------------------
 Center     Atomic      Atomic             Coordinates (Angstroms)
 Number     Number       Type             X           Y           Z
 ---------------------------------------------------------------------
      1          6           0        0.035066   -0.019892   -0.000815
      2          1           0        0.382285    0.302157    0.888961
      3          1           0        0.594136   -0.838723   -0.366046
      4          1           0        0.047553    0.933470   -0.594121
      5          1           0       -1.234371   -0.277552    0.076097
 ---------------------------------------------------------------------

 SCF Done:  E(RHF) =  -39.9458204188     A.U. after    9 cycles

 The electronic state is 1-A.
 Alpha  occ. eigenvalues --  -11.16224  -0.94087  -0.57681  -0.54169  -0.48708
 Alpha virt. eigenvalues --    0.26424   0.31123   0.35497   0.36787   0.88051
 Alpha virt. eigenvalues --    0.94116   1.01645   1.20997   1.30492   1.36646
 Alpha virt. eigenvalues --    1.42934   1.93856

 Mulliken charges:
               1
     1  C   -0.756361
     2  H    0.224747
     3  H    0.211735
     4  H    0.190454
     5  H    0.129425
 Sum of Mulliken charges =  -0.00000

 Dipole moment (field-independent basis, Debye):
    X=              0.1929    Y=              0.1221    Z=              0.0676  Tot=              0.2381
 Quadrupole moment (field-independent basis, Debye-Ang):
   XX=             -8.3879   YY=             -8.2826   ZZ=             -8.8481
   XY=             -0.1767   XZ=              0.0818   YZ=              0.1488

 Normal termination of Gaussian 16 at Fri Sep 22 17:12:53 2023.
