 Gaussian 16, Revision A.03,
 Gaussian 16:  ES64L-G16RevA.03 25-Dec-2016

 ----------
 # hf/3-21g
 ----------

 ------------------------
 tmpdir/M1_conf_292_0.gjf
 ------------------------
 Symbolic Z-matrix:
 Charge =  0 Multiplicity = 1

                         Standard orientation:
 ---------------------------------------------------------------------
 Center     Atomic      Atomic             Coordinates (Angstroms)
 Number     Number       Type             X           Y           Z
 ---------------------------------------------------------------------
      1          6           0       -0.302293   -0.064734   -0.120793
      2          1           0       -0.540459    1.035020    0.302467
      3          1           0        0.667824   -0.083942   -0.528901
      4          1           0       -0.495986   -0.644421    0.663940
      5          1           0        2.182378    0.081749    0.287255
 ---------------------------------------------------------------------

 SCF Done:  E(RHF) =  -39.6890415377     A.U. after   13 cycles

 The electronic state is 1-A.
 Alpha  occ. eigenvalues --  -11.24670  -0.96394  -0.63931  -0.56364  -0.29782
 Alpha virt. eigenvalues --   -0.01479   0.26248   0.32476   0.38460   0.85904
 Alpha virt. eigenvalues --    0.91844   0.98311   1.17711   1.25267   1.29879
 Alpha virt. eigenvalues --    1.41255   1.75362

 Mulliken charges:
               1
     1  C   -0.531740
     2  H    0.196630
     3  H    0.268094
     4  H    0.252577
     5  H   -0.185561
 Sum of Mulliken charges =   0.00000

 Dipole moment (field-independent basis, Debye):
    X=             -1.8132    Y=              0.0418    Z=              0.4594  Tot=              1.8710
 Quadrupole moment (field-independent basis, Debye-Ang):
   XX=            -12.4167   YY=             -9.0167   ZZ=             -9.5619
   XY=             -0.1913   XZ=             -1.2293   YZ=             -0.1391

 Normal termination of Gaussian 16 at Fri Sep 22 17:17:07 2023.
