 Gaussian 16, Revision A.03,
 Gaussian 16:  ES64L-G16RevA.03 25-Dec-2016

 ----------
 # hf/3-21g
 ----------

 -----------------------
 tmpdir/M1_conf_90_0.gjf
 -----------------------
 Symbolic Z-matrix:
 Charge =  0 Multiplicity = 1

                         Standard orientation:
 ---------------------------------------------------------------------
 Center     Atomic      Atomic             Coordinates (Angstroms)
 Number     Number       Type             X           Y           Z
 ---------------------------------------------------------------------
      1          6           0       -0.034157   -0.029165   -0.028159
      2          1           0        0.723431   -0.553039   -0.550864
      3          1           0       -0.254393   -0.562528    0.791249
      4          1           0       -0.955605    0.389425   -0.390638
      5          1           0        0.691510    0.901133    0.319206
 ---------------------------------------------------------------------

 SCF Done:  E(RHF) =  -39.9480870001     A.U. after    9 cycles

 The electronic state is 1-A.
 Alpha  occ. eigenvalues --  -11.14936  -0.94967  -0.58947  -0.55425  -0.48217
 Alpha virt. eigenvalues --    0.28176   0.30996   0.36497   0.37212   0.87260
 Alpha virt. eigenvalues --    0.95528   0.98607   1.24699   1.31600   1.40668
 Alpha virt. eigenvalues --    1.43588   1.94668

 Mulliken charges:
               1
     1  C   -0.796451
     2  H    0.219592
     3  H    0.224640
     4  H    0.212587
     5  H    0.139632
 Sum of Mulliken charges =   0.00000

 Dipole moment (field-independent basis, Debye):
    X=              0.0108    Y=             -0.1077    Z=              0.0797  Tot=              0.1344
 Quadrupole moment (field-independent basis, Debye-Ang):
   XX=             -7.8337   YY=             -8.6196   ZZ=             -8.8707
   XY=             -0.2640   XZ=             -0.1327   YZ=             -0.1927

 Normal termination of Gaussian 16 at Fri Sep 22 17:13:02 2023.
