 Gaussian 16, Revision A.03,
 Gaussian 16:  ES64L-G16RevA.03 25-Dec-2016

 ----------
 # hf/3-21g
 ----------

 -----------------------
 tmpdir/M1_conf_19_0.gjf
 -----------------------
 Symbolic Z-matrix:
 Charge =  0 Multiplicity = 1

                         Standard orientation:
 ---------------------------------------------------------------------
 Center     Atomic      Atomic             Coordinates (Angstroms)
 Number     Number       Type             X           Y           Z
 ---------------------------------------------------------------------
      1          6           0        0.023494   -0.059001    0.012921
      2          1           0       -0.885532   -0.313700   -0.628207
      3          1           0        1.054816   -0.349364   -0.246706
      4          1           0       -0.335933   -0.201629    0.880404
      5          1           0        0.025688    1.218699   -0.083015
 ---------------------------------------------------------------------

 SCF Done:  E(RHF) =  -39.9303156672     A.U. after    9 cycles

 The electronic state is 1-A.
 Alpha  occ. eigenvalues --  -11.16236  -0.94537  -0.59382  -0.53701  -0.47535
 Alpha virt. eigenvalues --    0.26940   0.29701   0.34572   0.38057   0.86664
 Alpha virt. eigenvalues --    0.97769   1.00433   1.22339   1.28033   1.32581
 Alpha virt. eigenvalues --    1.50689   1.95291

 Mulliken charges:
               1
     1  C   -0.768543
     2  H    0.189743
     3  H    0.211017
     4  H    0.246997
     5  H    0.120786
 Sum of Mulliken charges =   0.00000

 Dipole moment (field-independent basis, Debye):
    X=             -0.0756    Y=             -0.0838    Z=              0.1266  Tot=              0.1696
 Quadrupole moment (field-independent basis, Debye-Ang):
   XX=             -7.8338   YY=             -8.9322   ZZ=             -8.7894
   XY=             -0.0448   XZ=             -0.1846   YZ=             -0.0362

 Normal termination of Gaussian 16 at Fri Sep 22 17:11:32 2023.
