 Gaussian 16, Revision A.03,
 Gaussian 16:  ES64L-G16RevA.03 25-Dec-2016

 ----------
 # hf/3-21g
 ----------

 ----------------------
 tmpdir/M1_conf_4_0.gjf
 ----------------------
 Symbolic Z-matrix:
 Charge =  0 Multiplicity = 1

                         Standard orientation:
 ---------------------------------------------------------------------
 Center     Atomic      Atomic             Coordinates (Angstroms)
 Number     Number       Type             X           Y           Z
 ---------------------------------------------------------------------
      1          6           0        0.048371   -0.051226   -0.038182
      2          1           0        0.918854    0.061588   -0.556810
      3          1           0        0.336073   -0.192168    0.973547
      4          1           0       -0.963407   -0.727410   -0.226289
      5          1           0       -0.581744    1.165344    0.038647
 ---------------------------------------------------------------------

 SCF Done:  E(RHF) =  -39.9153552014     A.U. after    9 cycles

 The electronic state is 1-A.
 Alpha  occ. eigenvalues --  -11.18462  -0.92829  -0.58492  -0.52870  -0.45247
 Alpha virt. eigenvalues --    0.24528   0.26839   0.34179   0.36907   0.88494
 Alpha virt. eigenvalues --    1.00474   1.03956   1.19757   1.22344   1.36059
 Alpha virt. eigenvalues --    1.39910   1.91826

 Mulliken charges:
               1
     1  C   -0.731286
     2  H    0.233908
     3  H    0.215659
     4  H    0.189349
     5  H    0.092371
 Sum of Mulliken charges =  -0.00000

 Dipole moment (field-independent basis, Debye):
    X=              0.1381    Y=             -0.1552    Z=              0.1663  Tot=              0.2661
 Quadrupole moment (field-independent basis, Debye-Ang):
   XX=             -7.8744   YY=             -9.1067   ZZ=             -8.9887
   XY=              0.3083   XZ=             -0.1168   YZ=             -0.0612

 Normal termination of Gaussian 16 at Fri Sep 22 17:11:15 2023.
