 Gaussian 16, Revision A.03,
 Gaussian 16:  ES64L-G16RevA.03 25-Dec-2016

 ----------
 # hf/3-21g
 ----------

 ------------------------
 tmpdir/M1_conf_122_0.gjf
 ------------------------
 Symbolic Z-matrix:
 Charge =  0 Multiplicity = 1

                         Standard orientation:
 ---------------------------------------------------------------------
 Center     Atomic      Atomic             Coordinates (Angstroms)
 Number     Number       Type             X           Y           Z
 ---------------------------------------------------------------------
      1          6           0       -0.075748    0.052611    0.006675
      2          1           0       -0.057235   -0.273800    0.886543
      3          1           0        0.219743    1.020181   -0.158074
      4          1           0       -0.846035   -0.500337   -0.485418
      5          1           0        1.138017   -0.561713   -0.283098
 ---------------------------------------------------------------------

 SCF Done:  E(RHF) =  -39.9050770932     A.U. after   10 cycles

 The electronic state is 1-A.
 Alpha  occ. eigenvalues --  -11.15662  -0.95912  -0.61191  -0.56993  -0.44420
 Alpha virt. eigenvalues --    0.23667   0.31165   0.36728   0.38441   0.84687
 Alpha virt. eigenvalues --    0.94316   1.02063   1.19171   1.32329   1.41429
 Alpha virt. eigenvalues --    1.51859   1.94950

 Mulliken charges:
               1
     1  C   -0.760587
     2  H    0.251017
     3  H    0.231910
     4  H    0.215597
     5  H    0.062063
 Sum of Mulliken charges =   0.00000

 Dipole moment (field-independent basis, Debye):
    X=             -0.1947    Y=              0.0657    Z=              0.2459  Tot=              0.3205
 Quadrupole moment (field-independent basis, Debye-Ang):
   XX=             -8.5415   YY=             -8.2074   ZZ=             -8.8100
   XY=              0.5785   XZ=              0.2771   YZ=             -0.2431

 Normal termination of Gaussian 16 at Fri Sep 22 17:13:40 2023.
