 Gaussian 16, Revision A.03,
 Gaussian 16:  ES64L-G16RevA.03 25-Dec-2016

 ----------
 # hf/3-21g
 ----------

 -----------------------
 tmpdir/M1_conf_91_0.gjf
 -----------------------
 Symbolic Z-matrix:
 Charge =  0 Multiplicity = 1

                         Standard orientation:
 ---------------------------------------------------------------------
 Center     Atomic      Atomic             Coordinates (Angstroms)
 Number     Number       Type             X           Y           Z
 ---------------------------------------------------------------------
      1          6           0       -0.032423   -0.034692   -0.032157
      2          1           0        0.605888   -0.505843   -0.598151
      3          1           0       -0.181826   -0.566120    0.769234
      4          1           0       -0.988503    0.443369   -0.274357
      5          1           0        0.758980    0.836744    0.296215
 ---------------------------------------------------------------------

 SCF Done:  E(RHF) =  -39.9329373446     A.U. after    9 cycles

 The electronic state is 1-A.
 Alpha  occ. eigenvalues --  -11.13803  -0.96410  -0.60571  -0.55586  -0.48459
 Alpha virt. eigenvalues --    0.28341   0.31602   0.36813   0.38731   0.85246
 Alpha virt. eigenvalues --    0.93043   0.99407   1.25291   1.31693   1.47184
 Alpha virt. eigenvalues --    1.49478   1.96311

 Mulliken charges:
               1
     1  C   -0.810192
     2  H    0.237385
     3  H    0.230150
     4  H    0.206603
     5  H    0.136054
 Sum of Mulliken charges =  -0.00000

 Dipole moment (field-independent basis, Debye):
    X=              0.0360    Y=             -0.1348    Z=              0.0801  Tot=              0.1609
 Quadrupole moment (field-independent basis, Debye-Ang):
   XX=             -7.7898   YY=             -8.5682   ZZ=             -8.7460
   XY=             -0.3151   XZ=             -0.2223   YZ=             -0.1438

 Normal termination of Gaussian 16 at Fri Sep 22 17:13:03 2023.
