 Gaussian 16, Revision A.03,
 Gaussian 16:  ES64L-G16RevA.03 25-Dec-2016

 ----------
 # hf/3-21g
 ----------

 -----------------------
 tmpdir/M1_conf_20_0.gjf
 -----------------------
 Symbolic Z-matrix:
 Charge =  0 Multiplicity = 1

                         Standard orientation:
 ---------------------------------------------------------------------
 Center     Atomic      Atomic             Coordinates (Angstroms)
 Number     Number       Type             X           Y           Z
 ---------------------------------------------------------------------
      1          6           0        0.036638   -0.056988    0.003857
      2          1           0       -0.809192   -0.362895   -0.668503
      3          1           0        1.030915   -0.122161   -0.306865
      4          1           0       -0.238379   -0.364649    0.908235
      5          1           0       -0.203175    1.191634    0.043992
 ---------------------------------------------------------------------

 SCF Done:  E(RHF) =  -39.9443252767     A.U. after    9 cycles

 The electronic state is 1-A.
 Alpha  occ. eigenvalues --  -11.15756  -0.94460  -0.59663  -0.54540  -0.47583
 Alpha virt. eigenvalues --    0.27270   0.30654   0.35416   0.37673   0.88398
 Alpha virt. eigenvalues --    0.94177   0.99196   1.22681   1.30607   1.36695
 Alpha virt. eigenvalues --    1.45978   1.95681

 Mulliken charges:
               1
     1  C   -0.773543
     2  H    0.196246
     3  H    0.220901
     4  H    0.234001
     5  H    0.122395
 Sum of Mulliken charges =  -0.00000

 Dipole moment (field-independent basis, Debye):
    X=             -0.0419    Y=             -0.0820    Z=              0.0592  Tot=              0.1095
 Quadrupole moment (field-independent basis, Debye-Ang):
   XX=             -7.9779   YY=             -8.9173   ZZ=             -8.6004
   XY=              0.0886   XZ=             -0.1315   YZ=             -0.1224

 Normal termination of Gaussian 16 at Fri Sep 22 17:11:34 2023.
