 Gaussian 16, Revision A.03,
 Gaussian 16:  ES64L-G16RevA.03 25-Dec-2016

 ----------
 # hf/3-21g
 ----------

 ------------------------
 tmpdir/M1_conf_251_0.gjf
 ------------------------
 Symbolic Z-matrix:
 Charge =  0 Multiplicity = 1

                         Standard orientation:
 ---------------------------------------------------------------------
 Center     Atomic      Atomic             Coordinates (Angstroms)
 Number     Number       Type             X           Y           Z
 ---------------------------------------------------------------------
      1          6           0       -0.288127   -0.065444   -0.074298
      2          1           0       -0.227143    1.099925   -0.185305
      3          1           0        0.442419   -0.622326   -0.548619
      4          1           0       -0.537432   -0.226485    0.906872
      5          1           0        2.050919    0.141552    0.272837
 ---------------------------------------------------------------------

 SCF Done:  E(RHF) =  -39.7272610543     A.U. after   12 cycles

 The electronic state is 1-A.
 Alpha  occ. eigenvalues --  -11.24448  -0.95471  -0.64102  -0.57397  -0.30157
 Alpha virt. eigenvalues --    0.01389   0.27173   0.31953   0.35975   0.87631
 Alpha virt. eigenvalues --    0.91503   1.00217   1.14929   1.26968   1.31262
 Alpha virt. eigenvalues --    1.39159   1.73404

 Mulliken charges:
               1
     1  C   -0.562540
     2  H    0.230232
     3  H    0.284597
     4  H    0.252957
     5  H   -0.205245
 Sum of Mulliken charges =  -0.00000

 Dipole moment (field-independent basis, Debye):
    X=             -1.7018    Y=              0.0189    Z=              0.0526  Tot=              1.7028
 Quadrupole moment (field-independent basis, Debye-Ang):
   XX=            -12.6202   YY=             -8.5431   ZZ=             -9.0936
   XY=             -0.6608   XZ=             -1.3003   YZ=              0.0436

 Normal termination of Gaussian 16 at Fri Sep 22 17:16:18 2023.
