 Gaussian 16, Revision A.03,
 Gaussian 16:  ES64L-G16RevA.03 25-Dec-2016

 ----------
 # hf/3-21g
 ----------

 -----------------------
 tmpdir/M1_conf_57_0.gjf
 -----------------------
 Symbolic Z-matrix:
 Charge =  0 Multiplicity = 1

                         Standard orientation:
 ---------------------------------------------------------------------
 Center     Atomic      Atomic             Coordinates (Angstroms)
 Number     Number       Type             X           Y           Z
 ---------------------------------------------------------------------
      1          6           0       -0.040872    0.012319   -0.012120
      2          1           0        0.137334   -0.849327    0.751711
      3          1           0       -0.550859    1.026235    0.326136
      4          1           0       -0.602968   -0.537053   -0.719499
      5          1           0        1.261725    0.286233   -0.285630
 ---------------------------------------------------------------------

 SCF Done:  E(RHF) =  -39.9232901647     A.U. after    9 cycles

 The electronic state is 1-A.
 Alpha  occ. eigenvalues --  -11.19340  -0.91465  -0.55662  -0.53102  -0.46101
 Alpha virt. eigenvalues --    0.24116   0.28014   0.33146   0.35090   0.91509
 Alpha virt. eigenvalues --    1.01043   1.03913   1.18511   1.23640   1.28436
 Alpha virt. eigenvalues --    1.36532   1.88636

 Mulliken charges:
               1
     1  C   -0.713394
     2  H    0.184137
     3  H    0.190184
     4  H    0.219929
     5  H    0.119144
 Sum of Mulliken charges =  -0.00000

 Dipole moment (field-independent basis, Debye):
    X=             -0.1720    Y=             -0.1680    Z=              0.0499  Tot=              0.2456
 Quadrupole moment (field-independent basis, Debye-Ang):
   XX=             -8.4988   YY=             -8.1818   ZZ=             -9.4008
   XY=             -0.0742   XZ=              0.2173   YZ=              0.1679

 Normal termination of Gaussian 16 at Fri Sep 22 17:12:17 2023.
