 Gaussian 16, Revision A.03,
 Gaussian 16:  ES64L-G16RevA.03 25-Dec-2016

 ----------
 # hf/3-21g
 ----------

 ------------------------
 tmpdir/M1_conf_263_0.gjf
 ------------------------
 Symbolic Z-matrix:
 Charge =  0 Multiplicity = 1

                         Standard orientation:
 ---------------------------------------------------------------------
 Center     Atomic      Atomic             Coordinates (Angstroms)
 Number     Number       Type             X           Y           Z
 ---------------------------------------------------------------------
      1          6           0       -0.336794   -0.031289   -0.095243
      2          1           0       -0.460682    0.873021    0.446017
      3          1           0        0.565404    0.049321   -0.568951
      4          1           0       -0.204305   -0.803859    0.489388
      5          1           0        2.120348    0.069252    0.205004
 ---------------------------------------------------------------------

 SCF Done:  E(RHF) =  -39.6840866054     A.U. after   14 cycles

 The electronic state is 1-A.
 Alpha  occ. eigenvalues --  -11.22203  -0.98701  -0.62554  -0.59825  -0.30317
 Alpha virt. eigenvalues --   -0.01893   0.30050   0.35437   0.38087   0.83153
 Alpha virt. eigenvalues --    0.87171   0.98651   1.21686   1.32105   1.40041
 Alpha virt. eigenvalues --    1.41025   1.79714

 Mulliken charges:
               1
     1  C   -0.582396
     2  H    0.234469
     3  H    0.263119
     4  H    0.255862
     5  H   -0.171054
 Sum of Mulliken charges =   0.00000

 Dipole moment (field-independent basis, Debye):
    X=             -1.4401    Y=             -0.0094    Z=              0.4428  Tot=              1.5066
 Quadrupole moment (field-independent basis, Debye-Ang):
   XX=            -11.9738   YY=             -8.6004   ZZ=             -9.5792
   XY=             -0.2306   XZ=             -0.7997   YZ=             -0.0380

 Normal termination of Gaussian 16 at Fri Sep 22 17:16:32 2023.
