 Gaussian 16, Revision A.03,
 Gaussian 16:  ES64L-G16RevA.03 25-Dec-2016

 ----------
 # hf/3-21g
 ----------

 ------------------------
 tmpdir/M1_conf_298_1.gjf
 ------------------------
 Symbolic Z-matrix:
 Charge =  0 Multiplicity = 1

                         Standard orientation:
 ---------------------------------------------------------------------
 Center     Atomic      Atomic             Coordinates (Angstroms)
 Number     Number       Type             X           Y           Z
 ---------------------------------------------------------------------
      1         17           0       -0.000000    0.000000    0.166628
      2          1           0        0.000000   -0.000000   -2.832680
 ---------------------------------------------------------------------

 SCF Done:  E(RHF) =  -457.642377308     A.U. after   10 cycles

 The electronic state is 1-SG.
 Alpha  occ. eigenvalues -- -104.10460 -10.49111  -7.95441  -7.95136  -7.95136
 Alpha  occ. eigenvalues --   -1.02230  -0.44057  -0.44057  -0.38542
 Alpha virt. eigenvalues --   -0.14838   0.68017   0.81367   0.81539   0.81539
 Alpha virt. eigenvalues --    1.08363

 Mulliken charges:
               1
     1  Cl  -0.281919
     2  H    0.281919
 Sum of Mulliken charges =  -0.00000

 Dipole moment (field-independent basis, Debye):
    X=              0.0000    Y=             -0.0000    Z=             -3.9704  Tot=              3.9704
 Quadrupole moment (field-independent basis, Debye-Ang):
   XX=            -14.8155   YY=            -14.8155   ZZ=             -1.5503
   XY=              0.0000   XZ=             -0.0000   YZ=              0.0000

 Normal termination of Gaussian 16 at Fri Sep 22 17:17:14 2023.
