 Gaussian 16, Revision A.03,
 Gaussian 16:  ES64L-G16RevA.03 25-Dec-2016

 ----------
 # hf/3-21g
 ----------

 ------------------------
 tmpdir/M1_conf_135_1.gjf
 ------------------------
 Symbolic Z-matrix:
 Charge =  0 Multiplicity = 1

                         Standard orientation:
 ---------------------------------------------------------------------
 Center     Atomic      Atomic             Coordinates (Angstroms)
 Number     Number       Type             X           Y           Z
 ---------------------------------------------------------------------
      1         17           0        0.000000    0.000000    0.095897
      2          1           0       -0.000000   -0.000000   -1.630251
 ---------------------------------------------------------------------

 SCF Done:  E(RHF) =  -457.819528623     A.U. after    8 cycles

 The electronic state is 1-SG.
 Alpha  occ. eigenvalues -- -104.13068 -10.51868  -7.98215  -7.97851  -7.97851
 Alpha  occ. eigenvalues --   -1.07031  -0.53037  -0.47004  -0.47004
 Alpha virt. eigenvalues --    0.02779   0.70080   0.78850   0.78850   0.86222
 Alpha virt. eigenvalues --    1.10210

 Mulliken charges:
               1
     1  Cl  -0.244840
     2  H    0.244840
 Sum of Mulliken charges =  -0.00000

 Dipole moment (field-independent basis, Debye):
    X=             -0.0000    Y=             -0.0000    Z=             -2.1068  Tot=              2.1068
 Quadrupole moment (field-independent basis, Debye-Ang):
   XX=            -14.5588   YY=            -14.5588   ZZ=             -9.3971
   XY=              0.0000   XZ=              0.0000   YZ=             -0.0000

 Normal termination of Gaussian 16 at Fri Sep 22 17:14:00 2023.
