 Gaussian 16, Revision A.03,
 Gaussian 16:  ES64L-G16RevA.03 25-Dec-2016

 ----------
 # hf/3-21g
 ----------

 -----------------------
 tmpdir/M1_conf_99_0.gjf
 -----------------------
 Symbolic Z-matrix:
 Charge =  0 Multiplicity = 1

                         Standard orientation:
 ---------------------------------------------------------------------
 Center     Atomic      Atomic             Coordinates (Angstroms)
 Number     Number       Type             X           Y           Z
 ---------------------------------------------------------------------
      1          6           0        0.001012   -0.026993   -0.010631
      2          1           0       -0.757994    0.760341   -0.424720
      3          1           0        0.642148   -0.468006   -0.721017
      4          1           0       -0.671516   -0.673793    0.553317
      5          1           0        0.781292    0.543413    0.656208
 ---------------------------------------------------------------------

 SCF Done:  E(RHF) =  -39.9608910035     A.U. after    9 cycles

 The electronic state is 1-A.
 Alpha  occ. eigenvalues --  -11.16332  -0.93264  -0.57906  -0.51988  -0.50426
 Alpha virt. eigenvalues --    0.28214   0.31776   0.33479   0.36430   0.92029
 Alpha virt. eigenvalues --    0.93810   0.99833   1.26001   1.28148   1.32219
 Alpha virt. eigenvalues --    1.38937   1.92501

 Mulliken charges:
               1
     1  C   -0.768185
     2  H    0.175427
     3  H    0.215948
     4  H    0.205551
     5  H    0.171259
 Sum of Mulliken charges =  -0.00000

 Dipole moment (field-independent basis, Debye):
    X=              0.0058    Y=             -0.0338    Z=             -0.0110  Tot=              0.0360
 Quadrupole moment (field-independent basis, Debye-Ang):
   XX=             -7.9895   YY=             -8.7324   ZZ=             -8.8336
   XY=             -0.0047   XZ=             -0.2201   YZ=              0.0143

 Normal termination of Gaussian 16 at Fri Sep 22 17:13:12 2023.
