 Gaussian 16, Revision A.03,
 Gaussian 16:  ES64L-G16RevA.03 25-Dec-2016

 ----------
 # hf/3-21g
 ----------

 -----------------------
 tmpdir/M1_conf_54_0.gjf
 -----------------------
 Symbolic Z-matrix:
 Charge =  0 Multiplicity = 1

                         Standard orientation:
 ---------------------------------------------------------------------
 Center     Atomic      Atomic             Coordinates (Angstroms)
 Number     Number       Type             X           Y           Z
 ---------------------------------------------------------------------
      1          6           0       -0.023862    0.016535    0.010222
      2          1           0        0.175365   -0.387849    0.965835
      3          1           0       -0.365720    1.065073   -0.016316
      4          1           0       -0.865222   -0.673775   -0.502856
      5          1           0        1.198748   -0.102660   -0.507996
 ---------------------------------------------------------------------

 SCF Done:  E(RHF) =  -39.9368203873     A.U. after    9 cycles

 The electronic state is 1-A.
 Alpha  occ. eigenvalues --  -11.18596  -0.91919  -0.56726  -0.51889  -0.47954
 Alpha virt. eigenvalues --    0.24570   0.30201   0.32487   0.35905   0.92046
 Alpha virt. eigenvalues --    0.95629   1.05146   1.19100   1.24728   1.30517
 Alpha virt. eigenvalues --    1.37270   1.90395

 Mulliken charges:
               1
     1  C   -0.718922
     2  H    0.220081
     3  H    0.206226
     4  H    0.171193
     5  H    0.121423
 Sum of Mulliken charges =   0.00000

 Dipole moment (field-independent basis, Debye):
    X=             -0.1109    Y=              0.0133    Z=              0.2286  Tot=              0.2544
 Quadrupole moment (field-independent basis, Debye-Ang):
   XX=             -8.3638   YY=             -8.5423   ZZ=             -9.0415
   XY=             -0.0795   XZ=              0.2211   YZ=             -0.1285

 Normal termination of Gaussian 16 at Fri Sep 22 17:12:14 2023.
