 Gaussian 16, Revision A.03,
 Gaussian 16:  ES64L-G16RevA.03 25-Dec-2016

 ----------
 # hf/3-21g
 ----------

 ------------------------
 tmpdir/M1_conf_252_0.gjf
 ------------------------
 Symbolic Z-matrix:
 Charge =  0 Multiplicity = 1

                         Standard orientation:
 ---------------------------------------------------------------------
 Center     Atomic      Atomic             Coordinates (Angstroms)
 Number     Number       Type             X           Y           Z
 ---------------------------------------------------------------------
      1          6           0       -0.285953   -0.057801   -0.069872
      2          1           0       -0.254831    1.070472   -0.122129
      3          1           0        0.434063   -0.568434   -0.546687
      4          1           0       -0.531035   -0.285272    0.832491
      5          1           0        2.067520    0.130043    0.255560
 ---------------------------------------------------------------------

 SCF Done:  E(RHF) =  -39.7172348858     A.U. after   13 cycles

 The electronic state is 1-A.
 Alpha  occ. eigenvalues --  -11.23194  -0.97449  -0.65578  -0.59346  -0.29925
 Alpha virt. eigenvalues --    0.01265   0.28472   0.33800   0.37129   0.84229
 Alpha virt. eigenvalues --    0.89493   1.00188   1.16188   1.29753   1.32986
 Alpha virt. eigenvalues --    1.44751   1.76368

 Mulliken charges:
               1
     1  C   -0.566563
     2  H    0.235841
     3  H    0.284009
     4  H    0.255664
     5  H   -0.208951
 Sum of Mulliken charges =  -0.00000

 Dipole moment (field-independent basis, Debye):
    X=             -1.8342    Y=              0.0017    Z=              0.0489  Tot=              1.8349
 Quadrupole moment (field-independent basis, Debye-Ang):
   XX=            -12.5711   YY=             -8.4531   ZZ=             -9.0589
   XY=             -0.5989   XZ=             -1.2422   YZ=              0.0180

 Normal termination of Gaussian 16 at Fri Sep 22 17:16:19 2023.
