 Gaussian 16, Revision A.03,
 Gaussian 16:  ES64L-G16RevA.03 25-Dec-2016

 ----------
 # hf/3-21g
 ----------

 -----------------------
 tmpdir/M1_conf_87_0.gjf
 -----------------------
 Symbolic Z-matrix:
 Charge =  0 Multiplicity = 1

                         Standard orientation:
 ---------------------------------------------------------------------
 Center     Atomic      Atomic             Coordinates (Angstroms)
 Number     Number       Type             X           Y           Z
 ---------------------------------------------------------------------
      1          6           0        0.027915   -0.011191   -0.030598
      2          1           0       -0.586099    1.005310   -0.361023
      3          1           0        0.932115    0.346027    0.645492
      4          1           0        0.335380   -0.693746   -0.754711
      5          1           0       -0.848885   -0.590442    0.653832
 ---------------------------------------------------------------------

 SCF Done:  E(RHF) =  -39.9400482878     A.U. after    9 cycles

 The electronic state is 1-A.
 Alpha  occ. eigenvalues --  -11.18859  -0.91457  -0.56386  -0.51669  -0.48136
 Alpha virt. eigenvalues --    0.26279   0.28930   0.31611   0.35907   0.92306
 Alpha virt. eigenvalues --    1.00257   1.01612   1.20101   1.23667   1.26633
 Alpha virt. eigenvalues --    1.37501   1.90967

 Mulliken charges:
               1
     1  C   -0.720051
     2  H    0.167406
     3  H    0.180115
     4  H    0.224471
     5  H    0.148059
 Sum of Mulliken charges =   0.00000

 Dipole moment (field-independent basis, Debye):
    X=              0.0382    Y=             -0.0366    Z=             -0.0448  Tot=              0.0693
 Quadrupole moment (field-independent basis, Debye-Ang):
   XX=             -8.5025   YY=             -8.5144   ZZ=             -8.9796
   XY=             -0.1180   XZ=              0.0057   YZ=              0.2788

 Normal termination of Gaussian 16 at Fri Sep 22 17:12:58 2023.
