 Gaussian 16, Revision A.03,
 Gaussian 16:  ES64L-G16RevA.03 25-Dec-2016

 ----------
 # hf/3-21g
 ----------

 ------------------------
 tmpdir/M1_conf_100_1.gjf
 ------------------------
 Symbolic Z-matrix:
 Charge =  0 Multiplicity = 1

                         Standard orientation:
 ---------------------------------------------------------------------
 Center     Atomic      Atomic             Coordinates (Angstroms)
 Number     Number       Type             X           Y           Z
 ---------------------------------------------------------------------
      1         17           0        0.000000    0.000000    0.076521
      2          1           0       -0.000000   -0.000000   -1.300850
 ---------------------------------------------------------------------

 SCF Done:  E(RHF) =  -457.866202922     A.U. after    8 cycles

 The electronic state is 1-SG.
 Alpha  occ. eigenvalues -- -104.12020 -10.51466  -7.97856  -7.97405  -7.97405
 Alpha  occ. eigenvalues --   -1.10971  -0.59658  -0.47766  -0.47766
 Alpha virt. eigenvalues --    0.13504   0.71005   0.78367   0.78367   0.82018
 Alpha virt. eigenvalues --    1.07801

 Mulliken charges:
               1
     1  Cl  -0.222781
     2  H    0.222781
 Sum of Mulliken charges =   0.00000

 Dipole moment (field-independent basis, Debye):
    X=             -0.0000    Y=             -0.0000    Z=             -1.8899  Tot=              1.8899
 Quadrupole moment (field-independent basis, Debye-Ang):
   XX=            -14.2234   YY=            -14.2234   ZZ=            -10.6271
   XY=              0.0000   XZ=             -0.0000   YZ=              0.0000

 Normal termination of Gaussian 16 at Fri Sep 22 17:13:13 2023.
