 Gaussian 16, Revision A.03,
 Gaussian 16:  ES64L-G16RevA.03 25-Dec-2016

 ----------
 # hf/3-21g
 ----------

 ------------------------
 tmpdir/M1_conf_237_0.gjf
 ------------------------
 Symbolic Z-matrix:
 Charge =  0 Multiplicity = 1

                         Standard orientation:
 ---------------------------------------------------------------------
 Center     Atomic      Atomic             Coordinates (Angstroms)
 Number     Number       Type             X           Y           Z
 ---------------------------------------------------------------------
      1          6           0       -0.312889    0.005515    0.068914
      2          1           0       -0.542126   -0.696777   -0.668969
      3          1           0        0.518145   -0.369937    0.786884
      4          1           0        0.051602    1.161005   -0.190157
      5          1           0        1.849713   -0.127380   -0.341241
 ---------------------------------------------------------------------

 SCF Done:  E(RHF) =  -39.7319271989     A.U. after   13 cycles

 The electronic state is 1-A.
 Alpha  occ. eigenvalues --  -11.25313  -0.92819  -0.60940  -0.53910  -0.32112
 Alpha virt. eigenvalues --    0.02996   0.25051   0.30130   0.34151   0.90001
 Alpha virt. eigenvalues --    0.97111   1.01201   1.16490   1.25649   1.26859
 Alpha virt. eigenvalues --    1.32216   1.72340

 Mulliken charges:
               1
     1  C   -0.553839
     2  H    0.252017
     3  H    0.250811
     4  H    0.228380
     5  H   -0.177370
 Sum of Mulliken charges =  -0.00000

 Dipole moment (field-independent basis, Debye):
    X=             -0.9631    Y=              0.0266    Z=             -0.1155  Tot=              0.9704
 Quadrupole moment (field-independent basis, Debye-Ang):
   XX=            -11.7051   YY=             -8.4455   ZZ=             -9.7155
   XY=              0.5533   XZ=              1.3887   YZ=              0.0207

 Normal termination of Gaussian 16 at Fri Sep 22 17:16:01 2023.
