 Gaussian 16, Revision A.03,
 Gaussian 16:  ES64L-G16RevA.03 25-Dec-2016

 ----------
 # hf/3-21g
 ----------

 ------------------------
 tmpdir/M1_conf_189_0.gjf
 ------------------------
 Symbolic Z-matrix:
 Charge =  0 Multiplicity = 1

                         Standard orientation:
 ---------------------------------------------------------------------
 Center     Atomic      Atomic             Coordinates (Angstroms)
 Number     Number       Type             X           Y           Z
 ---------------------------------------------------------------------
      1          6           0       -0.259620    0.096517    0.038057
      2          1           0        0.079854   -0.387026    0.860970
      3          1           0        0.385980    0.987967   -0.291626
      4          1           0       -0.418298   -0.820333   -0.678122
      5          1           0        1.510183   -0.359710   -0.119565
 ---------------------------------------------------------------------

 SCF Done:  E(RHF) =  -39.7775141385     A.U. after   11 cycles

 The electronic state is 1-A.
 Alpha  occ. eigenvalues --  -11.22547  -0.94287  -0.59121  -0.55161  -0.35795
 Alpha virt. eigenvalues --    0.08008   0.26265   0.32170   0.34996   0.87878
 Alpha virt. eigenvalues --    0.98697   1.02547   1.22526   1.23700   1.27537
 Alpha virt. eigenvalues --    1.39656   1.81574

 Mulliken charges:
               1
     1  C   -0.635153
     2  H    0.266816
     3  H    0.255922
     4  H    0.218743
     5  H   -0.106329
 Sum of Mulliken charges =  -0.00000

 Dipole moment (field-independent basis, Debye):
    X=             -0.0286    Y=             -0.1532    Z=             -0.0038  Tot=              0.1559
 Quadrupole moment (field-independent basis, Debye-Ang):
   XX=            -10.8180   YY=             -8.4576   ZZ=             -9.2158
   XY=              1.0955   XZ=              0.2951   YZ=             -0.2652

 Normal termination of Gaussian 16 at Fri Sep 22 17:15:04 2023.
