 Gaussian 16, Revision A.03,
 Gaussian 16:  ES64L-G16RevA.03 25-Dec-2016

 ----------
 # hf/3-21g
 ----------

 -----------------------
 tmpdir/M1_conf_88_0.gjf
 -----------------------
 Symbolic Z-matrix:
 Charge =  0 Multiplicity = 1

                         Standard orientation:
 ---------------------------------------------------------------------
 Center     Atomic      Atomic             Coordinates (Angstroms)
 Number     Number       Type             X           Y           Z
 ---------------------------------------------------------------------
      1          6           0       -0.034242   -0.007645   -0.031987
      2          1           0        0.930433   -0.611623   -0.438923
      3          1           0       -0.542698   -0.688947    0.722149
      4          1           0       -0.746692    0.431946   -0.644695
      5          1           0        0.564405    0.914492    0.553393
 ---------------------------------------------------------------------

 SCF Done:  E(RHF) =  -39.9455604756     A.U. after    9 cycles

 The electronic state is 1-A.
 Alpha  occ. eigenvalues --  -11.17932  -0.92198  -0.57137  -0.52615  -0.47946
 Alpha virt. eigenvalues --    0.26959   0.29115   0.32901   0.36292   0.91584
 Alpha virt. eigenvalues --    0.98982   1.00567   1.22253   1.24220   1.29833
 Alpha virt. eigenvalues --    1.38316   1.91837

 Mulliken charges:
               1
     1  C   -0.740192
     2  H    0.176937
     3  H    0.191485
     4  H    0.224480
     5  H    0.147290
 Sum of Mulliken charges =  -0.00000

 Dipole moment (field-independent basis, Debye):
    X=             -0.0503    Y=             -0.0139    Z=              0.0032  Tot=              0.0523
 Quadrupole moment (field-independent basis, Debye-Ang):
   XX=             -8.1910   YY=             -8.6344   ZZ=             -9.0208
   XY=             -0.1446   XZ=              0.0880   YZ=             -0.2442

 Normal termination of Gaussian 16 at Fri Sep 22 17:12:59 2023.
