 Gaussian 16, Revision A.03,
 Gaussian 16:  ES64L-G16RevA.03 25-Dec-2016

 ----------
 # hf/3-21g
 ----------

 -----------------------
 tmpdir/M1_conf_43_0.gjf
 -----------------------
 Symbolic Z-matrix:
 Charge =  0 Multiplicity = 1

                         Standard orientation:
 ---------------------------------------------------------------------
 Center     Atomic      Atomic             Coordinates (Angstroms)
 Number     Number       Type             X           Y           Z
 ---------------------------------------------------------------------
      1          6           0       -0.055466   -0.031767   -0.021288
      2          1           0       -0.739896   -0.517145    0.560483
      3          1           0       -0.474441    0.613196   -0.709654
      4          1           0        0.906807   -0.611019   -0.399198
      5          1           0        0.640326    0.705572    0.676095
 ---------------------------------------------------------------------

 SCF Done:  E(RHF) =  -39.9453834983     A.U. after    9 cycles

 The electronic state is 1-A.
 Alpha  occ. eigenvalues --  -11.16159  -0.93943  -0.58093  -0.55789  -0.47003
 Alpha virt. eigenvalues --    0.27893   0.29384   0.35602   0.36986   0.88832
 Alpha virt. eigenvalues --    0.95990   0.98401   1.23951   1.26975   1.38102
 Alpha virt. eigenvalues --    1.41719   1.94576

 Mulliken charges:
               1
     1  C   -0.767880
     2  H    0.223073
     3  H    0.222134
     4  H    0.180480
     5  H    0.142192
 Sum of Mulliken charges =  -0.00000

 Dipole moment (field-independent basis, Debye):
    X=              0.0107    Y=              0.0678    Z=              0.0129  Tot=              0.0698
 Quadrupole moment (field-independent basis, Debye-Ang):
   XX=             -7.9664   YY=             -8.7808   ZZ=             -8.8263
   XY=             -0.0464   XZ=             -0.1249   YZ=             -0.3836

 Normal termination of Gaussian 16 at Fri Sep 22 17:12:01 2023.
