 Gaussian 16, Revision A.03,
 Gaussian 16:  ES64L-G16RevA.03 25-Dec-2016

 ----------
 # hf/3-21g
 ----------

 ------------------------
 tmpdir/M1_conf_295_0.gjf
 ------------------------
 Symbolic Z-matrix:
 Charge =  0 Multiplicity = 1

                         Standard orientation:
 ---------------------------------------------------------------------
 Center     Atomic      Atomic             Coordinates (Angstroms)
 Number     Number       Type             X           Y           Z
 ---------------------------------------------------------------------
      1          6           0        0.299819   -0.036910   -0.086018
      2          1           0        0.591866   -0.616060    0.605883
      3          1           0       -0.632744   -0.256552   -0.564231
      4          1           0        0.450025    1.009924    0.183123
      5          1           0       -2.208060    0.084147    0.291335
 ---------------------------------------------------------------------

 SCF Done:  E(RHF) =  -39.7009439091     A.U. after   13 cycles

 The electronic state is 1-A.
 Alpha  occ. eigenvalues --  -11.23801  -0.97899  -0.64654  -0.61070  -0.28748
 Alpha virt. eigenvalues --   -0.00434   0.28792   0.34171   0.36770   0.83405
 Alpha virt. eigenvalues --    0.89667   0.98023   1.16831   1.28398   1.32862
 Alpha virt. eigenvalues --    1.42244   1.75318

 Mulliken charges:
               1
     1  C   -0.540520
     2  H    0.252551
     3  H    0.277219
     4  H    0.236116
     5  H   -0.225366
 Sum of Mulliken charges =   0.00000

 Dipole moment (field-independent basis, Debye):
    X=              2.3025    Y=              0.0143    Z=              0.1691  Tot=              2.3088
 Quadrupole moment (field-independent basis, Debye-Ang):
   XX=            -13.1556   YY=             -8.5895   ZZ=             -9.4743
   XY=              0.3548   XZ=              1.4008   YZ=             -0.0946

 Normal termination of Gaussian 16 at Fri Sep 22 17:17:10 2023.
