 Gaussian 16, Revision A.03,
 Gaussian 16:  ES64L-G16RevA.03 25-Dec-2016

 ----------
 # hf/3-21g
 ----------

 ----------------------
 tmpdir/M1_conf_2_1.gjf
 ----------------------
 Symbolic Z-matrix:
 Charge =  0 Multiplicity = 1

                         Standard orientation:
 ---------------------------------------------------------------------
 Center     Atomic      Atomic             Coordinates (Angstroms)
 Number     Number       Type             X           Y           Z
 ---------------------------------------------------------------------
      1         17           0       -0.000000   -0.000000    0.089581
      2          1           0        0.000000    0.000000   -1.522875
 ---------------------------------------------------------------------

 SCF Done:  E(RHF) =  -457.837679317     A.U. after    8 cycles

 The electronic state is 1-SG.
 Alpha  occ. eigenvalues -- -104.12885 -10.51847  -7.98204  -7.97817  -7.97817
 Alpha  occ. eigenvalues --   -1.08014  -0.55107  -0.47282  -0.47282
 Alpha virt. eigenvalues --    0.05845   0.70396   0.78646   0.78646   0.86085
 Alpha virt. eigenvalues --    1.08631

 Mulliken charges:
               1
     1  Cl  -0.241031
     2  H    0.241031
 Sum of Mulliken charges =  -0.00000

 Dipole moment (field-independent basis, Debye):
    X=              0.0000    Y=              0.0000    Z=             -2.0172  Tot=              2.0172
 Quadrupole moment (field-independent basis, Debye-Ang):
   XX=            -14.4728   YY=            -14.4728   ZZ=             -9.8732
   XY=              0.0000   XZ=              0.0000   YZ=              0.0000

 Normal termination of Gaussian 16 at Fri Sep 22 17:11:12 2023.
