 Gaussian 16, Revision A.03,
 Gaussian 16:  ES64L-G16RevA.03 25-Dec-2016

 ----------
 # hf/3-21g
 ----------

 ------------------------
 tmpdir/M1_conf_129_1.gjf
 ------------------------
 Symbolic Z-matrix:
 Charge =  0 Multiplicity = 1

                         Standard orientation:
 ---------------------------------------------------------------------
 Center     Atomic      Atomic             Coordinates (Angstroms)
 Number     Number       Type             X           Y           Z
 ---------------------------------------------------------------------
      1         17           0       -0.000000    0.000000    0.093748
      2          1           0        0.000000   -0.000000   -1.593715
 ---------------------------------------------------------------------

 SCF Done:  E(RHF) =  -457.825852939     A.U. after    8 cycles

 The electronic state is 1-SG.
 Alpha  occ. eigenvalues -- -104.13023 -10.51873  -7.98223  -7.97852  -7.97852
 Alpha  occ. eigenvalues --   -1.07343  -0.53728  -0.47101  -0.47101
 Alpha virt. eigenvalues --    0.03777   0.70184   0.78777   0.78777   0.86203
 Alpha virt. eigenvalues --    1.09740

 Mulliken charges:
               1
     1  Cl  -0.243704
     2  H    0.243704
 Sum of Mulliken charges =  -0.00000

 Dipole moment (field-independent basis, Debye):
    X=              0.0000    Y=             -0.0000    Z=             -2.0740  Tot=              2.0740
 Quadrupole moment (field-independent basis, Debye-Ang):
   XX=            -14.5319   YY=            -14.5319   ZZ=             -9.5665
   XY=              0.0000   XZ=              0.0000   YZ=             -0.0000

 Normal termination of Gaussian 16 at Fri Sep 22 17:13:53 2023.
