 Gaussian 16, Revision A.03,
 Gaussian 16:  ES64L-G16RevA.03 25-Dec-2016

 ----------
 # hf/3-21g
 ----------

 ------------------------
 tmpdir/M1_conf_208_0.gjf
 ------------------------
 Symbolic Z-matrix:
 Charge =  0 Multiplicity = 1

                         Standard orientation:
 ---------------------------------------------------------------------
 Center     Atomic      Atomic             Coordinates (Angstroms)
 Number     Number       Type             X           Y           Z
 ---------------------------------------------------------------------
      1          6           0        0.246048   -0.065548   -0.041760
      2          1           0        0.303922    0.086501    0.981657
      3          1           0       -0.292854   -1.018970   -0.382439
      4          1           0        0.197889    1.065402   -0.497185
      5          1           0       -1.685247    0.260355    0.148529
 ---------------------------------------------------------------------

 SCF Done:  E(RHF) =  -39.7777262209     A.U. after   11 cycles

 The electronic state is 1-A.
 Alpha  occ. eigenvalues --  -11.24037  -0.92406  -0.59572  -0.55221  -0.33863
 Alpha virt. eigenvalues --    0.07844   0.24248   0.32029   0.34307   0.89171
 Alpha virt. eigenvalues --    1.01314   1.02721   1.18086   1.25212   1.27334
 Alpha virt. eigenvalues --    1.35011   1.76121

 Mulliken charges:
               1
     1  C   -0.611638
     2  H    0.254064
     3  H    0.268570
     4  H    0.236931
     5  H   -0.147928
 Sum of Mulliken charges =  -0.00000

 Dipole moment (field-independent basis, Debye):
    X=              0.7349    Y=             -0.0618    Z=              0.1170  Tot=              0.7467
 Quadrupole moment (field-independent basis, Debye-Ang):
   XX=            -11.5354   YY=             -7.8540   ZZ=             -9.1714
   XY=              0.9180   XZ=              0.6256   YZ=              0.0111

 Normal termination of Gaussian 16 at Fri Sep 22 17:15:27 2023.
