 Gaussian 16, Revision A.03,
 Gaussian 16:  ES64L-G16RevA.03 25-Dec-2016

 ----------
 # hf/3-21g
 ----------

 ------------------------
 tmpdir/M1_conf_181_0.gjf
 ------------------------
 Symbolic Z-matrix:
 Charge =  0 Multiplicity = 1

                         Standard orientation:
 ---------------------------------------------------------------------
 Center     Atomic      Atomic             Coordinates (Angstroms)
 Number     Number       Type             X           Y           Z
 ---------------------------------------------------------------------
      1          6           0        0.216080    0.014154   -0.038800
      2          1           0        0.005248    1.034106   -0.079925
      3          1           0        0.216619   -0.422855    0.947766
      4          1           0       -0.016176   -0.658110   -0.745980
      5          1           0       -1.502171   -0.038062    0.110939
 ---------------------------------------------------------------------

 SCF Done:  E(RHF) =  -39.8312220146     A.U. after   11 cycles

 The electronic state is 1-A.
 Alpha  occ. eigenvalues --  -11.19937  -0.95162  -0.62266  -0.58002  -0.36746
 Alpha virt. eigenvalues --    0.12415   0.29616   0.34743   0.36990   0.88468
 Alpha virt. eigenvalues --    0.91498   1.03172   1.21187   1.29483   1.35055
 Alpha virt. eigenvalues --    1.42851   1.85709

 Mulliken charges:
               1
     1  C   -0.677266
     2  H    0.260484
     3  H    0.238511
     4  H    0.265556
     5  H   -0.087284
 Sum of Mulliken charges =  -0.00000

 Dipole moment (field-independent basis, Debye):
    X=              0.3516    Y=             -0.0177    Z=              0.0179  Tot=              0.3525
 Quadrupole moment (field-independent basis, Debye-Ang):
   XX=            -10.7408   YY=             -8.0675   ZZ=             -8.5397
   XY=             -0.1102   XZ=              0.3082   YZ=              0.0954

 Normal termination of Gaussian 16 at Fri Sep 22 17:14:55 2023.
