 Gaussian 16, Revision A.03,
 Gaussian 16:  ES64L-G16RevA.03 25-Dec-2016

 ----------
 # hf/3-21g
 ----------

 ------------------------
 tmpdir/M1_conf_200_0.gjf
 ------------------------
 Symbolic Z-matrix:
 Charge =  0 Multiplicity = 1

                         Standard orientation:
 ---------------------------------------------------------------------
 Center     Atomic      Atomic             Coordinates (Angstroms)
 Number     Number       Type             X           Y           Z
 ---------------------------------------------------------------------
      1          6           0       -0.275966    0.039132    0.054042
      2          1           0       -0.501580   -0.768365   -0.571259
      3          1           0        0.442293   -0.282223    0.860608
      4          1           0        0.112592    1.008847   -0.272234
      5          1           0        1.602493   -0.193052   -0.341367
 ---------------------------------------------------------------------

 SCF Done:  E(RHF) =  -39.7793629993     A.U. after   12 cycles

 The electronic state is 1-A.
 Alpha  occ. eigenvalues --  -11.22493  -0.94330  -0.61846  -0.55589  -0.34451
 Alpha virt. eigenvalues --    0.06864   0.28461   0.31873   0.35597   0.89523
 Alpha virt. eigenvalues --    0.93251   1.02594   1.24251   1.25413   1.29542
 Alpha virt. eigenvalues --    1.36199   1.77477

 Mulliken charges:
               1
     1  C   -0.619219
     2  H    0.252663
     3  H    0.245236
     4  H    0.257562
     5  H   -0.136241
 Sum of Mulliken charges =  -0.00000

 Dipole moment (field-independent basis, Debye):
    X=             -0.4377    Y=             -0.0120    Z=             -0.0539  Tot=              0.4412
 Quadrupole moment (field-independent basis, Debye-Ang):
   XX=            -10.7475   YY=             -8.4045   ZZ=             -9.4906
   XY=              0.6731   XZ=              1.1831   YZ=             -0.0930

 Normal termination of Gaussian 16 at Fri Sep 22 17:15:17 2023.
