 Gaussian 16, Revision A.03,
 Gaussian 16:  ES64L-G16RevA.03 25-Dec-2016

 ----------
 # hf/3-21g
 ----------

 -----------------------
 tmpdir/M1_conf_98_0.gjf
 -----------------------
 Symbolic Z-matrix:
 Charge =  0 Multiplicity = 1

                         Standard orientation:
 ---------------------------------------------------------------------
 Center     Atomic      Atomic             Coordinates (Angstroms)
 Number     Number       Type             X           Y           Z
 ---------------------------------------------------------------------
      1          6           0        0.000558    0.033763   -0.005927
      2          1           0        0.927297   -0.657522   -0.409822
      3          1           0       -0.819970    0.218981   -0.747302
      4          1           0        0.466754    0.886258    0.436679
      5          1           0       -0.577427   -0.650297    0.756009
 ---------------------------------------------------------------------

 SCF Done:  E(RHF) =  -39.9551432366     A.U. after    9 cycles

 The electronic state is 1-A.
 Alpha  occ. eigenvalues --  -11.17491  -0.92331  -0.56964  -0.51912  -0.49521
 Alpha virt. eigenvalues --    0.27276   0.30825   0.32834   0.35781   0.93352
 Alpha virt. eigenvalues --    0.95062   1.01177   1.22860   1.27091   1.30013
 Alpha virt. eigenvalues --    1.36516   1.91913

 Mulliken charges:
               1
     1  C   -0.748850
     2  H    0.159956
     3  H    0.199700
     4  H    0.214926
     5  H    0.174268
 Sum of Mulliken charges =   0.00000

 Dipole moment (field-independent basis, Debye):
    X=             -0.0596    Y=              0.0332    Z=              0.0484  Tot=              0.0837
 Quadrupole moment (field-independent basis, Debye-Ang):
   XX=             -8.1763   YY=             -8.6139   ZZ=             -8.9728
   XY=              0.1358   XZ=              0.1891   YZ=              0.0724

 Normal termination of Gaussian 16 at Fri Sep 22 17:13:11 2023.
