 Gaussian 16, Revision A.03,
 Gaussian 16:  ES64L-G16RevA.03 25-Dec-2016

 ----------
 # hf/3-21g
 ----------

 ------------------------
 tmpdir/M1_conf_170_0.gjf
 ------------------------
 Symbolic Z-matrix:
 Charge =  0 Multiplicity = 1

                         Standard orientation:
 ---------------------------------------------------------------------
 Center     Atomic      Atomic             Coordinates (Angstroms)
 Number     Number       Type             X           Y           Z
 ---------------------------------------------------------------------
      1          6           0       -0.215128   -0.061675   -0.072891
      2          1           0       -0.277569   -0.455729    0.825961
      3          1           0       -0.316566    1.037779   -0.140176
      4          1           0        0.608198   -0.588002   -0.610293
      5          1           0        1.276702    0.376002    0.361854
 ---------------------------------------------------------------------

 SCF Done:  E(RHF) =  -39.8204023789     A.U. after   11 cycles

 The electronic state is 1-A.
 Alpha  occ. eigenvalues --  -11.19796  -0.95585  -0.59690  -0.57854  -0.37681
 Alpha virt. eigenvalues --    0.13457   0.27921   0.34039   0.36639   0.86943
 Alpha virt. eigenvalues --    0.95591   1.03752   1.16875   1.30389   1.31705
 Alpha virt. eigenvalues --    1.43875   1.90733

 Mulliken charges:
               1
     1  C   -0.700499
     2  H    0.257244
     3  H    0.245153
     4  H    0.246023
     5  H   -0.047921
 Sum of Mulliken charges =   0.00000

 Dipole moment (field-independent basis, Debye):
    X=              0.2429    Y=              0.0755    Z=              0.2704  Tot=              0.3713
 Quadrupole moment (field-independent basis, Debye-Ang):
   XX=             -9.7448   YY=             -8.4061   ZZ=             -9.3447
   XY=             -0.8315   XZ=             -0.9524   YZ=             -0.3718

 Normal termination of Gaussian 16 at Fri Sep 22 17:14:42 2023.
