 Gaussian 16, Revision A.03,
 Gaussian 16:  ES64L-G16RevA.03 25-Dec-2016

 ----------
 # hf/3-21g
 ----------

 ------------------------
 tmpdir/M1_conf_256_0.gjf
 ------------------------
 Symbolic Z-matrix:
 Charge =  0 Multiplicity = 1

                         Standard orientation:
 ---------------------------------------------------------------------
 Center     Atomic      Atomic             Coordinates (Angstroms)
 Number     Number       Type             X           Y           Z
 ---------------------------------------------------------------------
      1          6           0       -0.298710   -0.039523    0.091857
      2          1           0       -0.381372   -0.865651   -0.464181
      3          1           0        0.636726    0.100368    0.708566
      4          1           0       -0.550928    0.969305   -0.453764
      5          1           0        2.087837    0.033116   -0.341764
 ---------------------------------------------------------------------

 SCF Done:  E(RHF) =  -39.7177984604     A.U. after   12 cycles

 The electronic state is 1-A.
 Alpha  occ. eigenvalues --  -11.25134  -0.94933  -0.62979  -0.57372  -0.29919
 Alpha virt. eigenvalues --    0.00783   0.26658   0.31833   0.35026   0.87565
 Alpha virt. eigenvalues --    0.93522   0.99232   1.14807   1.26847   1.27472
 Alpha virt. eigenvalues --    1.36910   1.72206

 Mulliken charges:
               1
     1  C   -0.538567
     2  H    0.259137
     3  H    0.270919
     4  H    0.218661
     5  H   -0.210150
 Sum of Mulliken charges =  -0.00000

 Dipole moment (field-independent basis, Debye):
    X=             -1.8095    Y=              0.0054    Z=             -0.1281  Tot=              1.8140
 Quadrupole moment (field-independent basis, Debye-Ang):
   XX=            -12.6262   YY=             -8.5200   ZZ=             -9.6638
   XY=             -0.0232   XZ=              1.5203   YZ=              0.1519

 Normal termination of Gaussian 16 at Fri Sep 22 17:16:24 2023.
