 Gaussian 16, Revision A.03,
 Gaussian 16:  ES64L-G16RevA.03 25-Dec-2016

 ----------
 # hf/3-21g
 ----------

 ------------------------
 tmpdir/M1_conf_297_0.gjf
 ------------------------
 Symbolic Z-matrix:
 Charge =  0 Multiplicity = 1

                         Standard orientation:
 ---------------------------------------------------------------------
 Center     Atomic      Atomic             Coordinates (Angstroms)
 Number     Number       Type             X           Y           Z
 ---------------------------------------------------------------------
      1          6           0       -0.293518   -0.023803    0.076236
      2          1           0       -0.695929   -0.724754   -0.564305
      3          1           0        0.623894   -0.257942    0.643226
      4          1           0       -0.391390    1.104433   -0.203879
      5          1           0        2.224534    0.021081   -0.332455
 ---------------------------------------------------------------------

 SCF Done:  E(RHF) =  -39.7152484528     A.U. after   13 cycles

 The electronic state is 1-A.
 Alpha  occ. eigenvalues --  -11.26015  -0.94938  -0.63386  -0.59135  -0.28306
 Alpha virt. eigenvalues --    0.00200   0.26031   0.31811   0.34658   0.88681
 Alpha virt. eigenvalues --    0.92441   0.97796   1.11292   1.27325   1.28557
 Alpha virt. eigenvalues --    1.34850   1.69298

 Mulliken charges:
               1
     1  C   -0.530022
     2  H    0.252071
     3  H    0.283779
     4  H    0.236860
     5  H   -0.242687
 Sum of Mulliken charges =   0.00000

 Dipole moment (field-independent basis, Debye):
    X=             -2.4752    Y=              0.0230    Z=              0.0494  Tot=              2.4758
 Quadrupole moment (field-independent basis, Debye-Ang):
   XX=            -13.8002   YY=             -8.3554   ZZ=             -9.6575
   XY=             -0.0619   XZ=              1.6668   YZ=              0.0761

 Normal termination of Gaussian 16 at Fri Sep 22 17:17:13 2023.
