 Gaussian 16, Revision A.03,
 Gaussian 16:  ES64L-G16RevA.03 25-Dec-2016

 ----------
 # hf/3-21g
 ----------

 -----------------------
 tmpdir/M1_conf_61_0.gjf
 -----------------------
 Symbolic Z-matrix:
 Charge =  0 Multiplicity = 1

                         Standard orientation:
 ---------------------------------------------------------------------
 Center     Atomic      Atomic             Coordinates (Angstroms)
 Number     Number       Type             X           Y           Z
 ---------------------------------------------------------------------
      1          6           0       -0.058429    0.041932    0.007363
      2          1           0       -0.154289   -0.512230    0.850515
      3          1           0        0.088015    1.000759    0.074719
      4          1           0       -0.811750   -0.370964   -0.646088
      5          1           0        1.228599   -0.369155   -0.323321
 ---------------------------------------------------------------------

 SCF Done:  E(RHF) =  -39.9188957984     A.U. after   10 cycles

 The electronic state is 1-A.
 Alpha  occ. eigenvalues --  -11.15945  -0.95134  -0.61491  -0.55193  -0.45442
 Alpha virt. eigenvalues --    0.23845   0.31877   0.35542   0.38620   0.87775
 Alpha virt. eigenvalues --    0.90433   1.03097   1.19651   1.32975   1.38998
 Alpha virt. eigenvalues --    1.48147   1.93535

 Mulliken charges:
               1
     1  C   -0.743560
     2  H    0.227565
     3  H    0.235511
     4  H    0.205580
     5  H    0.074904
 Sum of Mulliken charges =   0.00000

 Dipole moment (field-independent basis, Debye):
    X=             -0.2691    Y=              0.0483    Z=              0.2117  Tot=              0.3458
 Quadrupole moment (field-independent basis, Debye-Ang):
   XX=             -8.4690   YY=             -8.2173   ZZ=             -8.8624
   XY=              0.3603   XZ=              0.2787   YZ=             -0.1273

 Normal termination of Gaussian 16 at Fri Sep 22 17:12:22 2023.
