 Gaussian 16, Revision A.03,
 Gaussian 16:  ES64L-G16RevA.03 25-Dec-2016

 ----------
 # hf/3-21g
 ----------

 ------------------------
 tmpdir/M1_conf_144_1.gjf
 ------------------------
 Symbolic Z-matrix:
 Charge =  0 Multiplicity = 1

                         Standard orientation:
 ---------------------------------------------------------------------
 Center     Atomic      Atomic             Coordinates (Angstroms)
 Number     Number       Type             X           Y           Z
 ---------------------------------------------------------------------
      1         17           0       -0.000000    0.000000    0.097665
      2          1           0        0.000000   -0.000000   -1.660311
 ---------------------------------------------------------------------

 SCF Done:  E(RHF) =  -457.814246922     A.U. after    8 cycles

 The electronic state is 1-SG.
 Alpha  occ. eigenvalues -- -104.13091 -10.51856  -7.98200  -7.97842  -7.97842
 Alpha  occ. eigenvalues --   -1.06791  -0.52480  -0.46922  -0.46922
 Alpha virt. eigenvalues --    0.01991   0.69997   0.78914   0.78914   0.86236
 Alpha virt. eigenvalues --    1.10524

 Mulliken charges:
               1
     1  Cl  -0.245704
     2  H    0.245704
 Sum of Mulliken charges =   0.00000

 Dipole moment (field-independent basis, Debye):
    X=              0.0000    Y=             -0.0000    Z=             -2.1356  Tot=              2.1356
 Quadrupole moment (field-independent basis, Debye-Ang):
   XX=            -14.5791   YY=            -14.5791   ZZ=             -9.2523
   XY=              0.0000   XZ=             -0.0000   YZ=              0.0000

 Normal termination of Gaussian 16 at Fri Sep 22 17:14:11 2023.
