 Gaussian 16, Revision A.03,
 Gaussian 16:  ES64L-G16RevA.03 25-Dec-2016

 ----------
 # hf/3-21g
 ----------

 ------------------------
 tmpdir/M1_conf_130_0.gjf
 ------------------------
 Symbolic Z-matrix:
 Charge =  0 Multiplicity = 1

                         Standard orientation:
 ---------------------------------------------------------------------
 Center     Atomic      Atomic             Coordinates (Angstroms)
 Number     Number       Type             X           Y           Z
 ---------------------------------------------------------------------
      1          6           0        0.064420    0.032026    0.004031
      2          1           0       -0.142743    0.958621   -0.458594
      3          1           0        0.106364    0.071029    1.015384
      4          1           0        0.891362   -0.656381   -0.420235
      5          1           0       -1.241506   -0.565423   -0.160742
 ---------------------------------------------------------------------

 SCF Done:  E(RHF) =  -39.9186442988     A.U. after    9 cycles

 The electronic state is 1-A.
 Alpha  occ. eigenvalues --  -11.18259  -0.93150  -0.58201  -0.55317  -0.44437
 Alpha virt. eigenvalues --    0.22403   0.29627   0.34690   0.36906   0.88695
 Alpha virt. eigenvalues --    0.95176   1.03463   1.19927   1.25324   1.35839
 Alpha virt. eigenvalues --    1.41185   1.90663

 Mulliken charges:
               1
     1  C   -0.706263
     2  H    0.222886
     3  H    0.230979
     4  H    0.192885
     5  H    0.059512
 Sum of Mulliken charges =   0.00000

 Dipole moment (field-independent basis, Debye):
    X=              0.2692    Y=              0.2324    Z=              0.1473  Tot=              0.3849
 Quadrupole moment (field-independent basis, Debye-Ang):
   XX=             -8.6390   YY=             -8.6678   ZZ=             -8.6582
   XY=             -0.5176   XZ=             -0.0996   YZ=             -0.1284

 Normal termination of Gaussian 16 at Fri Sep 22 17:13:54 2023.
