 Gaussian 16, Revision A.03,
 Gaussian 16:  ES64L-G16RevA.03 25-Dec-2016

 ----------
 # hf/3-21g
 ----------

 ------------------------
 tmpdir/M1_conf_141_0.gjf
 ------------------------
 Symbolic Z-matrix:
 Charge =  0 Multiplicity = 1

                         Standard orientation:
 ---------------------------------------------------------------------
 Center     Atomic      Atomic             Coordinates (Angstroms)
 Number     Number       Type             X           Y           Z
 ---------------------------------------------------------------------
      1          6           0        0.146044   -0.049844    0.053971
      2          1           0        0.270474   -0.720280   -0.617232
      3          1           0        0.629921    0.873288    0.030402
      4          1           0       -0.635200   -0.286205    0.791516
      5          1           0       -1.141458    0.432260   -0.528510
 ---------------------------------------------------------------------

 SCF Done:  E(RHF) =  -39.8697138847     A.U. after   10 cycles

 The electronic state is 1-A.
 Alpha  occ. eigenvalues --  -11.17678  -0.95336  -0.61520  -0.58593  -0.39884
 Alpha virt. eigenvalues --    0.19180   0.29485   0.35654   0.38085   0.87085
 Alpha virt. eigenvalues --    0.93323   1.03175   1.16049   1.31709   1.36449
 Alpha virt. eigenvalues --    1.48346   1.92614

 Mulliken charges:
               1
     1  C   -0.731340
     2  H    0.255033
     3  H    0.240812
     4  H    0.234912
     5  H    0.000583
 Sum of Mulliken charges =  -0.00000

 Dipole moment (field-independent basis, Debye):
    X=              0.0037    Y=             -0.0436    Z=              0.0222  Tot=              0.0491
 Quadrupole moment (field-independent basis, Debye-Ang):
   XX=             -8.7312   YY=             -8.4576   ZZ=             -9.2003
   XY=              0.6534   XZ=             -0.8904   YZ=              0.4800

 Normal termination of Gaussian 16 at Fri Sep 22 17:14:07 2023.
