 Gaussian 16, Revision A.03,
 Gaussian 16:  ES64L-G16RevA.03 25-Dec-2016

 ----------
 # hf/3-21g
 ----------

 ------------------------
 tmpdir/M1_conf_192_0.gjf
 ------------------------
 Symbolic Z-matrix:
 Charge =  0 Multiplicity = 1

                         Standard orientation:
 ---------------------------------------------------------------------
 Center     Atomic      Atomic             Coordinates (Angstroms)
 Number     Number       Type             X           Y           Z
 ---------------------------------------------------------------------
      1          6           0       -0.292268   -0.038550   -0.045354
      2          1           0        0.063023    0.970341   -0.332505
      3          1           0        0.327534   -0.746126   -0.474484
      4          1           0       -0.198363   -0.059417    0.902449
      5          1           0        1.561415    0.066503    0.176663
 ---------------------------------------------------------------------

 SCF Done:  E(RHF) =  -39.7557797326     A.U. after   11 cycles

 The electronic state is 1-A.
 Alpha  occ. eigenvalues --  -11.20219  -0.97989  -0.61411  -0.57412  -0.35793
 Alpha virt. eigenvalues --    0.06076   0.30332   0.34338   0.36995   0.84142
 Alpha virt. eigenvalues --    0.89731   1.02959   1.22024   1.30735   1.39200
 Alpha virt. eigenvalues --    1.46791   1.86407

 Mulliken charges:
               1
     1  C   -0.653905
     2  H    0.233242
     3  H    0.260059
     4  H    0.261934
     5  H   -0.101329
 Sum of Mulliken charges =   0.00000

 Dipole moment (field-independent basis, Debye):
    X=              0.0141    Y=              0.0882    Z=              0.2476  Tot=              0.2632
 Quadrupole moment (field-independent basis, Debye-Ang):
   XX=            -10.6119   YY=             -8.6022   ZZ=             -9.0251
   XY=             -0.2680   XZ=             -0.6936   YZ=              0.0213

 Normal termination of Gaussian 16 at Fri Sep 22 17:15:08 2023.
