 Gaussian 16, Revision A.03,
 Gaussian 16:  ES64L-G16RevA.03 25-Dec-2016

 ----------
 # hf/3-21g
 ----------

 ------------------------
 tmpdir/M1_conf_164_1.gjf
 ------------------------
 Symbolic Z-matrix:
 Charge =  0 Multiplicity = 1

                         Standard orientation:
 ---------------------------------------------------------------------
 Center     Atomic      Atomic             Coordinates (Angstroms)
 Number     Number       Type             X           Y           Z
 ---------------------------------------------------------------------
      1         17           0       -0.000000    0.000000    0.102620
      2          1           0        0.000000   -0.000000   -1.744542
 ---------------------------------------------------------------------

 SCF Done:  E(RHF) =  -457.799221382     A.U. after    8 cycles

 The electronic state is 1-SG.
 Alpha  occ. eigenvalues -- -104.13101 -10.51782  -7.98122  -7.97776  -7.97776
 Alpha  occ. eigenvalues --   -1.06184  -0.50972  -0.46689  -0.46689
 Alpha virt. eigenvalues --   -0.00067   0.69778   0.79104   0.79104   0.86303
 Alpha virt. eigenvalues --    1.11046

 Mulliken charges:
               1
     1  Cl  -0.247988
     2  H    0.247988
 Sum of Mulliken charges =   0.00000

 Dipole moment (field-independent basis, Debye):
    X=              0.0000    Y=             -0.0000    Z=             -2.2248  Tot=              2.2248
 Quadrupole moment (field-independent basis, Debye-Ang):
   XX=            -14.6283   YY=            -14.6283   ZZ=             -8.8223
   XY=              0.0000   XZ=              0.0000   YZ=              0.0000

 Normal termination of Gaussian 16 at Fri Sep 22 17:14:35 2023.
