 Gaussian 16, Revision A.03,
 Gaussian 16:  ES64L-G16RevA.03 25-Dec-2016

 ----------
 # hf/3-21g
 ----------

 ------------------------
 tmpdir/M1_conf_196_0.gjf
 ------------------------
 Symbolic Z-matrix:
 Charge =  0 Multiplicity = 1

                         Standard orientation:
 ---------------------------------------------------------------------
 Center     Atomic      Atomic             Coordinates (Angstroms)
 Number     Number       Type             X           Y           Z
 ---------------------------------------------------------------------
      1          6           0       -0.308962    0.022675    0.062551
      2          1           0       -0.288075   -0.907399   -0.510985
      3          1           0        0.459133   -0.043848    0.841313
      4          1           0        0.114752    1.016665   -0.474045
      5          1           0        1.567963   -0.201469   -0.231589
 ---------------------------------------------------------------------

 SCF Done:  E(RHF) =  -39.7575607852     A.U. after   12 cycles

 The electronic state is 1-A.
 Alpha  occ. eigenvalues --  -11.23408  -0.93994  -0.59019  -0.53549  -0.35699
 Alpha virt. eigenvalues --    0.05566   0.26414   0.31706   0.33893   0.89858
 Alpha virt. eigenvalues --    0.96360   1.02256   1.21714   1.22916   1.29576
 Alpha virt. eigenvalues --    1.34008   1.79922

 Mulliken charges:
               1
     1  C   -0.602425
     2  H    0.245687
     3  H    0.247939
     4  H    0.216333
     5  H   -0.107535
 Sum of Mulliken charges =   0.00000

 Dipole moment (field-independent basis, Debye):
    X=              0.0914    Y=             -0.0769    Z=             -0.2083  Tot=              0.2401
 Quadrupole moment (field-independent basis, Debye-Ang):
   XX=            -10.8099   YY=             -8.6163   ZZ=             -9.6218
   XY=              0.6328   XZ=              0.8131   YZ=              0.0142

 Normal termination of Gaussian 16 at Fri Sep 22 17:15:13 2023.
