 Gaussian 16, Revision A.03,
 Gaussian 16:  ES64L-G16RevA.03 25-Dec-2016

 ----------
 # hf/3-21g
 ----------

 ------------------------
 tmpdir/M1_conf_288_0.gjf
 ------------------------
 Symbolic Z-matrix:
 Charge =  0 Multiplicity = 1

                         Standard orientation:
 ---------------------------------------------------------------------
 Center     Atomic      Atomic             Coordinates (Angstroms)
 Number     Number       Type             X           Y           Z
 ---------------------------------------------------------------------
      1          6           0       -0.315623    0.006376   -0.144599
      2          1           0       -0.370979    0.942196    0.547690
      3          1           0        0.738131   -0.003033   -0.534175
      4          1           0       -0.623504   -0.888877    0.545395
      5          1           0        2.150087   -0.088541    0.308684
 ---------------------------------------------------------------------

 SCF Done:  E(RHF) =  -39.6975505178     A.U. after   14 cycles

 The electronic state is 1-A.
 Alpha  occ. eigenvalues --  -11.26296  -0.93195  -0.59166  -0.55806  -0.30701
 Alpha virt. eigenvalues --   -0.01301   0.25963   0.29174   0.35995   0.92134
 Alpha virt. eigenvalues --    0.94810   0.98183   1.15844   1.22637   1.26070
 Alpha virt. eigenvalues --    1.32420   1.72402

 Mulliken charges:
               1
     1  C   -0.511336
     2  H    0.212717
     3  H    0.248930
     4  H    0.217031
     5  H   -0.167342
 Sum of Mulliken charges =   0.00000

 Dipole moment (field-independent basis, Debye):
    X=             -1.5315    Y=              0.0704    Z=              0.6242  Tot=              1.6553
 Quadrupole moment (field-independent basis, Debye-Ang):
   XX=            -12.0641   YY=             -9.1086   ZZ=             -9.9628
   XY=              0.3173   XZ=             -1.1220   YZ=             -0.0565

 Normal termination of Gaussian 16 at Fri Sep 22 17:17:02 2023.
