 Gaussian 16, Revision A.03,
 Gaussian 16:  ES64L-G16RevA.03 25-Dec-2016

 ----------
 # hf/3-21g
 ----------

 ------------------------
 tmpdir/M1_conf_164_0.gjf
 ------------------------
 Symbolic Z-matrix:
 Charge =  0 Multiplicity = 1

                         Standard orientation:
 ---------------------------------------------------------------------
 Center     Atomic      Atomic             Coordinates (Angstroms)
 Number     Number       Type             X           Y           Z
 ---------------------------------------------------------------------
      1          6           0        0.197635   -0.017774    0.026217
      2          1           0       -0.064720   -0.810856   -0.745723
      3          1           0        0.352920    0.979149   -0.226942
      4          1           0       -0.138323   -0.383601    0.910174
      5          1           0       -1.335689    0.321950   -0.094811
 ---------------------------------------------------------------------

 SCF Done:  E(RHF) =  -39.8516499023     A.U. after   10 cycles

 The electronic state is 1-A.
 Alpha  occ. eigenvalues --  -11.19507  -0.94589  -0.62281  -0.55469  -0.38786
 Alpha virt. eigenvalues --    0.16072   0.28304   0.33952   0.37209   0.89387
 Alpha virt. eigenvalues --    0.95042   1.03689   1.17112   1.28995   1.34175
 Alpha virt. eigenvalues --    1.43671   1.91124

 Mulliken charges:
               1
     1  C   -0.717958
     2  H    0.227333
     3  H    0.259940
     4  H    0.265067
     5  H   -0.034382
 Sum of Mulliken charges =   0.00000

 Dipole moment (field-independent basis, Debye):
    X=             -0.0286    Y=             -0.0464    Z=              0.0192  Tot=              0.0578
 Quadrupole moment (field-independent basis, Debye-Ang):
   XX=            -10.2756   YY=             -8.0971   ZZ=             -8.6553
   XY=              0.7331   XZ=             -0.2390   YZ=             -0.1058

 Normal termination of Gaussian 16 at Fri Sep 22 17:14:35 2023.
