 Gaussian 16, Revision A.03,
 Gaussian 16:  ES64L-G16RevA.03 25-Dec-2016

 ----------
 # hf/3-21g
 ----------

 -----------------------
 tmpdir/M1_conf_26_0.gjf
 -----------------------
 Symbolic Z-matrix:
 Charge =  0 Multiplicity = 1

                         Standard orientation:
 ---------------------------------------------------------------------
 Center     Atomic      Atomic             Coordinates (Angstroms)
 Number     Number       Type             X           Y           Z
 ---------------------------------------------------------------------
      1          6           0        0.032251    0.006389   -0.039091
      2          1           0       -0.825920    0.020174   -0.710483
      3          1           0       -0.163224    0.998535    0.561833
      4          1           0        1.145683   -0.128100   -0.236270
      5          1           0       -0.350047   -0.928940    0.619464
 ---------------------------------------------------------------------

 SCF Done:  E(RHF) =  -39.9458221900     A.U. after    9 cycles

 The electronic state is 1-A.
 Alpha  occ. eigenvalues --  -11.17764  -0.92215  -0.57643  -0.51543  -0.48239
 Alpha virt. eigenvalues --    0.27160   0.29878   0.32150   0.35939   0.93043
 Alpha virt. eigenvalues --    0.99191   1.00861   1.24538   1.25926   1.27944
 Alpha virt. eigenvalues --    1.36455   1.91714

 Mulliken charges:
               1
     1  C   -0.766737
     2  H    0.221630
     3  H    0.175739
     4  H    0.209396
     5  H    0.159972
 Sum of Mulliken charges =   0.00000

 Dipole moment (field-independent basis, Debye):
    X=             -0.1034    Y=             -0.0032    Z=             -0.0099  Tot=              0.1039
 Quadrupole moment (field-independent basis, Debye-Ang):
   XX=             -7.8189   YY=             -8.6822   ZZ=             -9.3379
   XY=             -0.0588   XZ=              0.0914   YZ=              0.0684

 Normal termination of Gaussian 16 at Fri Sep 22 17:11:41 2023.
