 Gaussian 16, Revision A.03,
 Gaussian 16:  ES64L-G16RevA.03 25-Dec-2016

 ----------
 # hf/3-21g
 ----------

 ------------------------
 tmpdir/M1_conf_199_0.gjf
 ------------------------
 Symbolic Z-matrix:
 Charge =  0 Multiplicity = 1

                         Standard orientation:
 ---------------------------------------------------------------------
 Center     Atomic      Atomic             Coordinates (Angstroms)
 Number     Number       Type             X           Y           Z
 ---------------------------------------------------------------------
      1          6           0       -0.290279    0.028274    0.056804
      2          1           0       -0.477564   -0.738584   -0.595951
      3          1           0        0.483102   -0.307975    0.848970
      4          1           0        0.153527    1.079372   -0.240720
      5          1           0        1.582608   -0.202455   -0.353122
 ---------------------------------------------------------------------

 SCF Done:  E(RHF) =  -39.7659762674     A.U. after   12 cycles

 The electronic state is 1-A.
 Alpha  occ. eigenvalues --  -11.23257  -0.93682  -0.61363  -0.53565  -0.34752
 Alpha virt. eigenvalues --    0.06602   0.26915   0.30364   0.35461   0.89956
 Alpha virt. eigenvalues --    0.96000   1.02308   1.22461   1.23604   1.28483
 Alpha virt. eigenvalues --    1.34967   1.78121

 Mulliken charges:
               1
     1  C   -0.604748
     2  H    0.256863
     3  H    0.237330
     4  H    0.239968
     5  H   -0.129413
 Sum of Mulliken charges =  -0.00000

 Dipole moment (field-independent basis, Debye):
    X=             -0.2629    Y=             -0.0238    Z=             -0.1338  Tot=              0.2960
 Quadrupole moment (field-independent basis, Debye-Ang):
   XX=            -10.6948   YY=             -8.4793   ZZ=             -9.6755
   XY=              0.7106   XZ=              1.2176   YZ=             -0.0357

 Normal termination of Gaussian 16 at Fri Sep 22 17:15:16 2023.
