 Gaussian 16, Revision A.03,
 Gaussian 16:  ES64L-G16RevA.03 25-Dec-2016

 ----------
 # hf/3-21g
 ----------

 ------------------------
 tmpdir/M1_conf_289_0.gjf
 ------------------------
 Symbolic Z-matrix:
 Charge =  0 Multiplicity = 1

                         Standard orientation:
 ---------------------------------------------------------------------
 Center     Atomic      Atomic             Coordinates (Angstroms)
 Number     Number       Type             X           Y           Z
 ---------------------------------------------------------------------
      1          6           0       -0.312192   -0.028380   -0.149169
      2          1           0       -0.417346    1.044401    0.451617
      3          1           0        0.736706   -0.052032   -0.522703
      4          1           0       -0.602198   -0.795256    0.648528
      5          1           0        2.155992   -0.026833    0.317573
 ---------------------------------------------------------------------

 SCF Done:  E(RHF) =  -39.6911844619     A.U. after   14 cycles

 The electronic state is 1-A.
 Alpha  occ. eigenvalues --  -11.26652  -0.92925  -0.60031  -0.54291  -0.30716
 Alpha virt. eigenvalues --   -0.01449   0.25136   0.28500   0.36523   0.93429
 Alpha virt. eigenvalues --    0.94240   0.98303   1.15152   1.21801   1.25402
 Alpha virt. eigenvalues --    1.33025   1.72435

 Mulliken charges:
               1
     1  C   -0.503657
     2  H    0.191450
     3  H    0.251168
     4  H    0.225346
     5  H   -0.164307
 Sum of Mulliken charges =   0.00000

 Dipole moment (field-independent basis, Debye):
    X=             -1.5116    Y=              0.0737    Z=              0.6150  Tot=              1.6336
 Quadrupole moment (field-independent basis, Debye-Ang):
   XX=            -12.0690   YY=             -9.1993   ZZ=             -9.9192
   XY=              0.1649   XZ=             -1.1555   YZ=             -0.1251

 Normal termination of Gaussian 16 at Fri Sep 22 17:17:03 2023.
