 Gaussian 16, Revision A.03,
 Gaussian 16:  ES64L-G16RevA.03 25-Dec-2016

 ----------
 # hf/3-21g
 ----------

 ------------------------
 tmpdir/M1_conf_283_0.gjf
 ------------------------
 Symbolic Z-matrix:
 Charge =  0 Multiplicity = 1

                         Standard orientation:
 ---------------------------------------------------------------------
 Center     Atomic      Atomic             Coordinates (Angstroms)
 Number     Number       Type             X           Y           Z
 ---------------------------------------------------------------------
      1          6           0        0.312904   -0.010302    0.075738
      2          1           0        0.329460    1.013187   -0.248805
      3          1           0       -0.558863   -0.240955    0.608579
      4          1           0        0.506847   -0.743877   -0.554006
      5          1           0       -2.154866    0.033456   -0.260196
 ---------------------------------------------------------------------

 SCF Done:  E(RHF) =  -39.7096239003     A.U. after   13 cycles

 The electronic state is 1-A.
 Alpha  occ. eigenvalues --  -11.23469  -0.97464  -0.64240  -0.60750  -0.29159
 Alpha virt. eigenvalues --   -0.00242   0.29085   0.34755   0.36205   0.84365
 Alpha virt. eigenvalues --    0.88976   0.98590   1.17148   1.29266   1.35943
 Alpha virt. eigenvalues --    1.39291   1.74566

 Mulliken charges:
               1
     1  C   -0.559068
     2  H    0.249367
     3  H    0.274471
     4  H    0.252205
     5  H   -0.216974
 Sum of Mulliken charges =   0.00000

 Dipole moment (field-independent basis, Debye):
    X=              2.0388    Y=             -0.0103    Z=             -0.1346  Tot=              2.0433
 Quadrupole moment (field-independent basis, Debye-Ang):
   XX=            -13.0222   YY=             -8.2434   ZZ=             -9.5436
   XY=              0.1224   XZ=             -1.1780   YZ=              0.0444

 Normal termination of Gaussian 16 at Fri Sep 22 17:16:56 2023.
