 Gaussian 16, Revision A.03,
 Gaussian 16:  ES64L-G16RevA.03 25-Dec-2016

 ----------
 # hf/3-21g
 ----------

 ------------------------
 tmpdir/M1_conf_231_0.gjf
 ------------------------
 Symbolic Z-matrix:
 Charge =  0 Multiplicity = 1

                         Standard orientation:
 ---------------------------------------------------------------------
 Center     Atomic      Atomic             Coordinates (Angstroms)
 Number     Number       Type             X           Y           Z
 ---------------------------------------------------------------------
      1          6           0        0.219779   -0.005873   -0.102509
      2          1           0        0.652496   -0.594021    0.768012
      3          1           0       -0.521973   -0.426708   -0.696484
      4          1           0        0.369128    0.956685    0.118317
      5          1           0       -1.818327    0.099283    0.425209
 ---------------------------------------------------------------------

 SCF Done:  E(RHF) =  -39.7659782371     A.U. after   12 cycles

 The electronic state is 1-A.
 Alpha  occ. eigenvalues --  -11.22965  -0.95221  -0.64801  -0.57725  -0.32034
 Alpha virt. eigenvalues --    0.05738   0.28174   0.32806   0.36540   0.87694
 Alpha virt. eigenvalues --    0.93432   1.02081   1.16111   1.28134   1.29990
 Alpha virt. eigenvalues --    1.42716   1.74116

 Mulliken charges:
               1
     1  C   -0.587119
     2  H    0.218193
     3  H    0.288462
     4  H    0.263790
     5  H   -0.183327
 Sum of Mulliken charges =   0.00000

 Dipole moment (field-independent basis, Debye):
    X=              1.4161    Y=             -0.0367    Z=             -0.1909  Tot=              1.4294
 Quadrupole moment (field-independent basis, Debye-Ang):
   XX=            -11.1373   YY=             -8.6108   ZZ=             -9.2252
   XY=              0.5637   XZ=              1.6769   YZ=              0.0646

 Normal termination of Gaussian 16 at Fri Sep 22 17:15:54 2023.
