 Gaussian 16, Revision A.03,
 Gaussian 16:  ES64L-G16RevA.03 25-Dec-2016

 ----------
 # hf/3-21g
 ----------

 ------------------------
 tmpdir/M1_conf_121_1.gjf
 ------------------------
 Symbolic Z-matrix:
 Charge =  0 Multiplicity = 1

                         Standard orientation:
 ---------------------------------------------------------------------
 Center     Atomic      Atomic             Coordinates (Angstroms)
 Number     Number       Type             X           Y           Z
 ---------------------------------------------------------------------
      1         17           0        0.000000   -0.000000    0.089986
      2          1           0       -0.000000    0.000000   -1.529760
 ---------------------------------------------------------------------

 SCF Done:  E(RHF) =  -457.836561960     A.U. after    8 cycles

 The electronic state is 1-SG.
 Alpha  occ. eigenvalues -- -104.12901 -10.51852  -7.98208  -7.97822  -7.97822
 Alpha  occ. eigenvalues --   -1.07945  -0.54971  -0.47265  -0.47265
 Alpha virt. eigenvalues --    0.05636   0.70375   0.78658   0.78658   0.86106
 Alpha virt. eigenvalues --    1.08745

 Mulliken charges:
               1
     1  Cl  -0.241328
     2  H    0.241328
 Sum of Mulliken charges =   0.00000

 Dipole moment (field-independent basis, Debye):
    X=             -0.0000    Y=              0.0000    Z=             -2.0224  Tot=              2.0224
 Quadrupole moment (field-independent basis, Debye-Ang):
   XX=            -14.4789   YY=            -14.4789   ZZ=             -9.8447
   XY=              0.0000   XZ=             -0.0000   YZ=              0.0000

 Normal termination of Gaussian 16 at Fri Sep 22 17:13:38 2023.
