 Gaussian 16, Revision A.03,
 Gaussian 16:  ES64L-G16RevA.03 25-Dec-2016

 ----------
 # hf/3-21g
 ----------

 ------------------------
 tmpdir/M1_conf_239_0.gjf
 ------------------------
 Symbolic Z-matrix:
 Charge =  0 Multiplicity = 1

                         Standard orientation:
 ---------------------------------------------------------------------
 Center     Atomic      Atomic             Coordinates (Angstroms)
 Number     Number       Type             X           Y           Z
 ---------------------------------------------------------------------
      1          6           0       -0.326413    0.037624    0.065502
      2          1           0       -0.469950   -0.924690   -0.530674
      3          1           0        0.495528   -0.140897    0.836398
      4          1           0        0.062280    1.029719   -0.426636
      5          1           0        1.870619   -0.189876   -0.272099
 ---------------------------------------------------------------------

 SCF Done:  E(RHF) =  -39.7293067519     A.U. after   13 cycles

 The electronic state is 1-A.
 Alpha  occ. eigenvalues --  -11.25494  -0.92537  -0.59186  -0.54581  -0.32286
 Alpha virt. eigenvalues --    0.01964   0.25671   0.30851   0.32618   0.91133
 Alpha virt. eigenvalues --    0.97215   1.01106   1.16889   1.25446   1.27708
 Alpha virt. eigenvalues --    1.29031   1.72065

 Mulliken charges:
               1
     1  C   -0.560642
     2  H    0.239999
     3  H    0.249419
     4  H    0.241217
     5  H   -0.169993
 Sum of Mulliken charges =   0.00000

 Dipole moment (field-independent basis, Debye):
    X=             -0.8377    Y=             -0.0011    Z=             -0.1512  Tot=              0.8512
 Quadrupole moment (field-independent basis, Debye-Ang):
   XX=            -11.8287   YY=             -8.4822   ZZ=             -9.7262
   XY=              0.7430   XZ=              1.0504   YZ=             -0.0616

 Normal termination of Gaussian 16 at Fri Sep 22 17:16:04 2023.
