 Gaussian 16, Revision A.03,
 Gaussian 16:  ES64L-G16RevA.03 25-Dec-2016

 ----------
 # hf/3-21g
 ----------

 ------------------------
 tmpdir/M1_conf_109_0.gjf
 ------------------------
 Symbolic Z-matrix:
 Charge =  0 Multiplicity = 1

                         Standard orientation:
 ---------------------------------------------------------------------
 Center     Atomic      Atomic             Coordinates (Angstroms)
 Number     Number       Type             X           Y           Z
 ---------------------------------------------------------------------
      1          6           0       -0.022448    0.000901    0.001324
      2          1           0       -1.035047    0.530861    0.300162
      3          1           0       -0.267459   -0.704329   -0.743948
      4          1           0        0.535253   -0.571679    0.766912
      5          1           0        0.901939    0.739741   -0.331073
 ---------------------------------------------------------------------

 SCF Done:  E(RHF) =  -39.9510677867     A.U. after    9 cycles

 The electronic state is 1-A.
 Alpha  occ. eigenvalues --  -11.17240  -0.92749  -0.55785  -0.53319  -0.49302
 Alpha virt. eigenvalues --    0.26779   0.30812   0.33871   0.35518   0.90660
 Alpha virt. eigenvalues --    0.96121   1.02881   1.22356   1.26192   1.33407
 Alpha virt. eigenvalues --    1.37123   1.91946

 Mulliken charges:
               1
     1  C   -0.756446
     2  H    0.182697
     3  H    0.214654
     4  H    0.200387
     5  H    0.158707
 Sum of Mulliken charges =  -0.00000

 Dipole moment (field-independent basis, Debye):
    X=              0.0293    Y=             -0.1804    Z=             -0.0056  Tot=              0.1828
 Quadrupole moment (field-independent basis, Debye-Ang):
   XX=             -7.9683   YY=             -8.7007   ZZ=             -9.0334
   XY=             -0.0899   XZ=              0.1283   YZ=              0.1224

 Normal termination of Gaussian 16 at Fri Sep 22 17:13:24 2023.
