 Gaussian 16, Revision A.03,
 Gaussian 16:  ES64L-G16RevA.03 25-Dec-2016

 ----------
 # hf/3-21g
 ----------

 -----------------------
 tmpdir/M1_conf_78_1.gjf
 -----------------------
 Symbolic Z-matrix:
 Charge =  0 Multiplicity = 1

                         Standard orientation:
 ---------------------------------------------------------------------
 Center     Atomic      Atomic             Coordinates (Angstroms)
 Number     Number       Type             X           Y           Z
 ---------------------------------------------------------------------
      1         17           0        0.000000   -0.000000    0.087534
      2          1           0       -0.000000    0.000000   -1.488079
 ---------------------------------------------------------------------

 SCF Done:  E(RHF) =  -457.843192224     A.U. after    8 cycles

 The electronic state is 1-SG.
 Alpha  occ. eigenvalues -- -104.12791 -10.51817  -7.98177  -7.97782  -7.97782
 Alpha  occ. eigenvalues --   -1.08383  -0.55800  -0.47367  -0.47367
 Alpha virt. eigenvalues --    0.06927   0.70504   0.78589   0.78589   0.85931
 Alpha virt. eigenvalues --    1.08063

 Mulliken charges:
               1
     1  Cl  -0.239368
     2  H    0.239368
 Sum of Mulliken charges =  -0.00000

 Dipole moment (field-independent basis, Debye):
    X=             -0.0000    Y=              0.0000    Z=             -1.9926  Tot=              1.9926
 Quadrupole moment (field-independent basis, Debye-Ang):
   XX=            -14.4401   YY=            -14.4401   ZZ=            -10.0126
   XY=             -0.0000   XZ=             -0.0000   YZ=             -0.0000

 Normal termination of Gaussian 16 at Fri Sep 22 17:12:47 2023.
