 Gaussian 16, Revision A.03,
 Gaussian 16:  ES64L-G16RevA.03 25-Dec-2016

 ----------
 # hf/3-21g
 ----------

 -----------------------
 tmpdir/M1_conf_25_0.gjf
 -----------------------
 Symbolic Z-matrix:
 Charge =  0 Multiplicity = 1

                         Standard orientation:
 ---------------------------------------------------------------------
 Center     Atomic      Atomic             Coordinates (Angstroms)
 Number     Number       Type             X           Y           Z
 ---------------------------------------------------------------------
      1          6           0       -0.023834    0.020499    0.036607
      2          1           0        0.736777   -0.036745    0.755670
      3          1           0        0.248184    0.966395   -0.538815
      4          1           0       -1.211557   -0.113346    0.162205
      5          1           0        0.369601   -0.939298   -0.598700
 ---------------------------------------------------------------------

 SCF Done:  E(RHF) =  -39.9415976695     A.U. after    9 cycles

 The electronic state is 1-A.
 Alpha  occ. eigenvalues --  -11.17672  -0.92588  -0.56745  -0.52521  -0.48147
 Alpha virt. eigenvalues --    0.26784   0.29465   0.32967   0.36013   0.91266
 Alpha virt. eigenvalues --    0.98274   1.03047   1.22165   1.25162   1.30146
 Alpha virt. eigenvalues --    1.39290   1.92032

 Mulliken charges:
               1
     1  C   -0.763494
     2  H    0.229610
     3  H    0.189665
     4  H    0.191645
     5  H    0.152574
 Sum of Mulliken charges =   0.00000

 Dipole moment (field-independent basis, Debye):
    X=              0.1380    Y=             -0.0046    Z=              0.0187  Tot=              0.1393
 Quadrupole moment (field-independent basis, Debye-Ang):
   XX=             -7.8429   YY=             -8.6848   ZZ=             -9.2766
   XY=              0.0658   XZ=              0.1703   YZ=             -0.1510

 Normal termination of Gaussian 16 at Fri Sep 22 17:11:40 2023.
