 Gaussian 16, Revision A.03,
 Gaussian 16:  ES64L-G16RevA.03 25-Dec-2016

 ----------
 # hf/3-21g
 ----------

 ------------------------
 tmpdir/M1_conf_172_0.gjf
 ------------------------
 Symbolic Z-matrix:
 Charge =  0 Multiplicity = 1

                         Standard orientation:
 ---------------------------------------------------------------------
 Center     Atomic      Atomic             Coordinates (Angstroms)
 Number     Number       Type             X           Y           Z
 ---------------------------------------------------------------------
      1          6           0        0.209067    0.010929    0.094822
      2          1           0        0.418649   -0.751104   -0.603814
      3          1           0        0.100266    0.959599   -0.370549
      4          1           0       -0.428427   -0.179023    0.781542
      5          1           0       -1.344889   -0.095046   -0.376112
 ---------------------------------------------------------------------

 SCF Done:  E(RHF) =  -39.8136393563     A.U. after   11 cycles

 The electronic state is 1-A.
 Alpha  occ. eigenvalues --  -11.18737  -0.97161  -0.62296  -0.58333  -0.37608
 Alpha virt. eigenvalues --    0.12805   0.30213   0.35208   0.37775   0.86626
 Alpha virt. eigenvalues --    0.89829   1.03945   1.17751   1.33998   1.35936
 Alpha virt. eigenvalues --    1.47905   1.89474

 Mulliken charges:
               1
     1  C   -0.698941
     2  H    0.241029
     3  H    0.242767
     4  H    0.269848
     5  H   -0.054704
 Sum of Mulliken charges =  -0.00000

 Dipole moment (field-independent basis, Debye):
    X=             -0.0996    Y=             -0.0158    Z=             -0.1782  Tot=              0.2048
 Quadrupole moment (field-independent basis, Debye-Ang):
   XX=             -9.9229   YY=             -8.4287   ZZ=             -8.9437
   XY=             -0.2046   XZ=             -1.0810   YZ=             -0.1093

 Normal termination of Gaussian 16 at Fri Sep 22 17:14:44 2023.
