 Gaussian 16, Revision A.03,
 Gaussian 16:  ES64L-G16RevA.03 25-Dec-2016

 ----------
 # hf/3-21g
 ----------

 ------------------------
 tmpdir/M1_conf_139_0.gjf
 ------------------------
 Symbolic Z-matrix:
 Charge =  0 Multiplicity = 1

                         Standard orientation:
 ---------------------------------------------------------------------
 Center     Atomic      Atomic             Coordinates (Angstroms)
 Number     Number       Type             X           Y           Z
 ---------------------------------------------------------------------
      1          6           0        0.125365   -0.051962   -0.069241
      2          1           0        0.677653    0.911523   -0.103452
      3          1           0        0.394096   -0.802498    0.582003
      4          1           0       -0.803894   -0.256956   -0.793650
      5          1           0       -1.020043    0.459702    0.730547
 ---------------------------------------------------------------------

 SCF Done:  E(RHF) =  -39.8820362308     A.U. after   10 cycles

 The electronic state is 1-A.
 Alpha  occ. eigenvalues --  -11.20045  -0.92246  -0.58793  -0.55728  -0.40267
 Alpha virt. eigenvalues --    0.20001   0.26414   0.33445   0.36198   0.91770
 Alpha virt. eigenvalues --    0.98139   1.02365   1.17583   1.24972   1.29605
 Alpha virt. eigenvalues --    1.38997   1.89874

 Mulliken charges:
               1
     1  C   -0.706288
     2  H    0.231447
     3  H    0.245772
     4  H    0.215088
     5  H    0.013981
 Sum of Mulliken charges =  -0.00000

 Dipole moment (field-independent basis, Debye):
    X=              0.0066    Y=             -0.0266    Z=             -0.0093  Tot=              0.0290
 Quadrupole moment (field-independent basis, Debye-Ang):
   XX=             -8.5735   YY=             -8.5554   ZZ=             -9.5427
   XY=              0.4924   XZ=              0.8719   YZ=             -0.5534

 Normal termination of Gaussian 16 at Fri Sep 22 17:14:05 2023.
