 Gaussian 16, Revision A.03,
 Gaussian 16:  ES64L-G16RevA.03 25-Dec-2016

 ----------
 # hf/3-21g
 ----------

 -----------------------
 tmpdir/M1_conf_18_0.gjf
 -----------------------
 Symbolic Z-matrix:
 Charge =  0 Multiplicity = 1

                         Standard orientation:
 ---------------------------------------------------------------------
 Center     Atomic      Atomic             Coordinates (Angstroms)
 Number     Number       Type             X           Y           Z
 ---------------------------------------------------------------------
      1          6           0        0.018506   -0.055586    0.008197
      2          1           0       -0.878453   -0.311202   -0.645797
      3          1           0        1.088870   -0.426575   -0.167159
      4          1           0       -0.428513   -0.154211    0.873771
      5          1           0        0.107058    1.225505   -0.109995
 ---------------------------------------------------------------------

 SCF Done:  E(RHF) =  -39.9308974923     A.U. after    9 cycles

 The electronic state is 1-A.
 Alpha  occ. eigenvalues --  -11.17092  -0.93723  -0.58291  -0.52885  -0.47572
 Alpha virt. eigenvalues --    0.26522   0.29063   0.33994   0.37117   0.87708
 Alpha virt. eigenvalues --    0.99671   1.01751   1.21912   1.25607   1.30993
 Alpha virt. eigenvalues --    1.47048   1.93500

 Mulliken charges:
               1
     1  C   -0.761205
     2  H    0.192745
     3  H    0.204525
     4  H    0.242028
     5  H    0.121907
 Sum of Mulliken charges =  -0.00000

 Dipole moment (field-independent basis, Debye):
    X=             -0.1124    Y=             -0.0887    Z=              0.1475  Tot=              0.2055
 Quadrupole moment (field-independent basis, Debye-Ang):
   XX=             -7.7604   YY=             -8.9508   ZZ=             -8.9917
   XY=             -0.0654   XZ=             -0.1637   YZ=              0.0048

 Normal termination of Gaussian 16 at Fri Sep 22 17:11:31 2023.
