 Gaussian 16, Revision A.03,
 Gaussian 16:  ES64L-G16RevA.03 25-Dec-2016

 ----------
 # hf/3-21g
 ----------

 ------------------------
 tmpdir/M1_conf_157_0.gjf
 ------------------------
 Symbolic Z-matrix:
 Charge =  0 Multiplicity = 1

                         Standard orientation:
 ---------------------------------------------------------------------
 Center     Atomic      Atomic             Coordinates (Angstroms)
 Number     Number       Type             X           Y           Z
 ---------------------------------------------------------------------
      1          6           0       -0.079608   -0.103846   -0.027484
      2          1           0        0.809101   -0.737558   -0.408929
      3          1           0       -0.287807   -0.162078    1.002963
      4          1           0       -0.988373    0.485251   -0.523413
      5          1           0        0.944730    1.037459    0.094280
 ---------------------------------------------------------------------

 SCF Done:  E(RHF) =  -39.8761198313     A.U. after   10 cycles

 The electronic state is 1-A.
 Alpha  occ. eigenvalues --  -11.21090  -0.91231  -0.57908  -0.54209  -0.40390
 Alpha virt. eigenvalues --    0.19482   0.24798   0.33674   0.35045   0.90878
 Alpha virt. eigenvalues --    1.01484   1.06084   1.20251   1.21860   1.28335
 Alpha virt. eigenvalues --    1.35798   1.86572

 Mulliken charges:
               1
     1  C   -0.696412
     2  H    0.239292
     3  H    0.236520
     4  H    0.218522
     5  H    0.002078
 Sum of Mulliken charges =  -0.00000

 Dipole moment (field-independent basis, Debye):
    X=             -0.1734    Y=             -0.2413    Z=              0.1013  Tot=              0.3139
 Quadrupole moment (field-independent basis, Debye-Ang):
   XX=             -8.1880   YY=             -9.5662   ZZ=             -8.9560
   XY=             -1.1155   XZ=             -0.1919   YZ=             -0.1170

 Normal termination of Gaussian 16 at Fri Sep 22 17:14:26 2023.
