 Gaussian 16, Revision A.03,
 Gaussian 16:  ES64L-G16RevA.03 25-Dec-2016

 ----------
 # hf/3-21g
 ----------

 ------------------------
 tmpdir/M1_conf_149_0.gjf
 ------------------------
 Symbolic Z-matrix:
 Charge =  0 Multiplicity = 1

                         Standard orientation:
 ---------------------------------------------------------------------
 Center     Atomic      Atomic             Coordinates (Angstroms)
 Number     Number       Type             X           Y           Z
 ---------------------------------------------------------------------
      1          6           0        0.133073    0.074055    0.042349
      2          1           0        0.139136   -0.596344    0.886645
      3          1           0        0.806019   -0.078089   -0.749101
      4          1           0       -0.697318    0.938613    0.105610
      5          1           0       -1.046276   -0.708511   -0.497246
 ---------------------------------------------------------------------

 SCF Done:  E(RHF) =  -39.8793215095     A.U. after   10 cycles

 The electronic state is 1-A.
 Alpha  occ. eigenvalues --  -11.20227  -0.92266  -0.59418  -0.55166  -0.40046
 Alpha virt. eigenvalues --    0.19276   0.26446   0.33650   0.36073   0.91754
 Alpha virt. eigenvalues --    0.97786   1.02580   1.17933   1.24538   1.31969
 Alpha virt. eigenvalues --    1.37539   1.89742

 Mulliken charges:
               1
     1  C   -0.703166
     2  H    0.239544
     3  H    0.243269
     4  H    0.218491
     5  H    0.001863
 Sum of Mulliken charges =  -0.00000

 Dipole moment (field-independent basis, Debye):
    X=              0.0571    Y=              0.0245    Z=              0.0689  Tot=              0.0928
 Quadrupole moment (field-independent basis, Debye-Ang):
   XX=             -8.7255   YY=             -9.1526   ZZ=             -8.8579
   XY=             -0.8831   XZ=             -0.7226   YZ=             -0.5228

 Normal termination of Gaussian 16 at Fri Sep 22 17:14:17 2023.
