 Gaussian 16, Revision A.03,
 Gaussian 16:  ES64L-G16RevA.03 25-Dec-2016

 ----------
 # hf/3-21g
 ----------

 ------------------------
 tmpdir/M1_conf_143_1.gjf
 ------------------------
 Symbolic Z-matrix:
 Charge =  0 Multiplicity = 1

                         Standard orientation:
 ---------------------------------------------------------------------
 Center     Atomic      Atomic             Coordinates (Angstroms)
 Number     Number       Type             X           Y           Z
 ---------------------------------------------------------------------
      1         17           0        0.000000   -0.000000    0.097501
      2          1           0       -0.000000    0.000000   -1.657519
 ---------------------------------------------------------------------

 SCF Done:  E(RHF) =  -457.814740043     A.U. after    8 cycles

 The electronic state is 1-SG.
 Alpha  occ. eigenvalues -- -104.13090 -10.51857  -7.98202  -7.97843  -7.97843
 Alpha  occ. eigenvalues --   -1.06813  -0.52531  -0.46930  -0.46930
 Alpha virt. eigenvalues --    0.02063   0.70005   0.78908   0.78908   0.86234
 Alpha virt. eigenvalues --    1.10498

 Mulliken charges:
               1
     1  Cl  -0.245625
     2  H    0.245625
 Sum of Mulliken charges =   0.00000

 Dipole moment (field-independent basis, Debye):
    X=             -0.0000    Y=              0.0000    Z=             -2.1329  Tot=              2.1329
 Quadrupole moment (field-independent basis, Debye-Ang):
   XX=            -14.5773   YY=            -14.5773   ZZ=             -9.2660
   XY=              0.0000   XZ=             -0.0000   YZ=             -0.0000

 Normal termination of Gaussian 16 at Fri Sep 22 17:14:10 2023.
