 Gaussian 16, Revision A.03,
 Gaussian 16:  ES64L-G16RevA.03 25-Dec-2016

 ----------
 # hf/3-21g
 ----------

 ------------------------
 tmpdir/M1_conf_248_0.gjf
 ------------------------
 Symbolic Z-matrix:
 Charge =  0 Multiplicity = 1

                         Standard orientation:
 ---------------------------------------------------------------------
 Center     Atomic      Atomic             Coordinates (Angstroms)
 Number     Number       Type             X           Y           Z
 ---------------------------------------------------------------------
      1          6           0        0.303426   -0.105934   -0.035357
      2          1           0        0.174240   -0.024795    1.074624
      3          1           0       -0.511499   -0.737931   -0.544131
      4          1           0        0.508187    1.041928   -0.414131
      5          1           0       -1.991486    0.356400    0.095778
 ---------------------------------------------------------------------

 SCF Done:  E(RHF) =  -39.7223723513     A.U. after   12 cycles

 The electronic state is 1-A.
 Alpha  occ. eigenvalues --  -11.26556  -0.92031  -0.58856  -0.55588  -0.30981
 Alpha virt. eigenvalues --    0.01434   0.24547   0.30131   0.31948   0.91997
 Alpha virt. eigenvalues --    0.98144   1.00262   1.13156   1.23208   1.26756
 Alpha virt. eigenvalues --    1.30418   1.70874

 Mulliken charges:
               1
     1  C   -0.544468
     2  H    0.245485
     3  H    0.270663
     4  H    0.219078
     5  H   -0.190759
 Sum of Mulliken charges =  -0.00000

 Dipole moment (field-independent basis, Debye):
    X=              1.2569    Y=              0.0392    Z=              0.1216  Tot=              1.2634
 Quadrupole moment (field-independent basis, Debye-Ang):
   XX=            -12.4909   YY=             -8.9897   ZZ=             -8.9872
   XY=              1.5031   XZ=              0.5281   YZ=              0.0223

 Normal termination of Gaussian 16 at Fri Sep 22 17:16:14 2023.
