 Gaussian 16, Revision A.03,
 Gaussian 16:  ES64L-G16RevA.03 25-Dec-2016

 ----------
 # hf/3-21g
 ----------

 -----------------------
 tmpdir/M1_conf_45_0.gjf
 -----------------------
 Symbolic Z-matrix:
 Charge =  0 Multiplicity = 1

                         Standard orientation:
 ---------------------------------------------------------------------
 Center     Atomic      Atomic             Coordinates (Angstroms)
 Number     Number       Type             X           Y           Z
 ---------------------------------------------------------------------
      1          6           0       -0.032888    0.010436   -0.057776
      2          1           0       -0.777816   -0.699758   -0.394307
      3          1           0       -0.588218    0.884940    0.453457
      4          1           0        0.974614    0.321887   -0.571799
      5          1           0        0.588751   -0.569683    0.859302
 ---------------------------------------------------------------------

 SCF Done:  E(RHF) =  -39.9394243887     A.U. after    9 cycles

 The electronic state is 1-A.
 Alpha  occ. eigenvalues --  -11.18348  -0.91801  -0.57359  -0.52671  -0.46641
 Alpha virt. eigenvalues --    0.26753   0.28395   0.32630   0.35618   0.93520
 Alpha virt. eigenvalues --    0.98635   1.01948   1.22845   1.24226   1.29253
 Alpha virt. eigenvalues --    1.34660   1.91325

 Mulliken charges:
               1
     1  C   -0.751481
     2  H    0.222008
     3  H    0.190632
     4  H    0.201467
     5  H    0.137374
 Sum of Mulliken charges =  -0.00000

 Dipole moment (field-independent basis, Debye):
    X=              0.0370    Y=             -0.0387    Z=              0.0714  Tot=              0.0893
 Quadrupole moment (field-independent basis, Debye-Ang):
   XX=             -7.8845   YY=             -8.7580   ZZ=             -9.3333
   XY=              0.2094   XZ=             -0.1061   YZ=              0.2422

 Normal termination of Gaussian 16 at Fri Sep 22 17:12:03 2023.
