 Gaussian 16, Revision A.03,
 Gaussian 16:  ES64L-G16RevA.03 25-Dec-2016

 ----------
 # hf/3-21g
 ----------

 ------------------------
 tmpdir/M1_conf_204_0.gjf
 ------------------------
 Symbolic Z-matrix:
 Charge =  0 Multiplicity = 1

                         Standard orientation:
 ---------------------------------------------------------------------
 Center     Atomic      Atomic             Coordinates (Angstroms)
 Number     Number       Type             X           Y           Z
 ---------------------------------------------------------------------
      1          6           0        0.234081    0.014520   -0.076904
      2          1           0        0.478550   -0.436143    0.902906
      3          1           0       -0.205497   -0.652378   -0.683300
      4          1           0       -0.000153    1.033843   -0.035102
      5          1           0       -1.677384   -0.032443    0.276917
 ---------------------------------------------------------------------

 SCF Done:  E(RHF) =  -39.7934069016     A.U. after   11 cycles

 The electronic state is 1-A.
 Alpha  occ. eigenvalues --  -11.21697  -0.95059  -0.62967  -0.58053  -0.34005
 Alpha virt. eigenvalues --    0.07905   0.29159   0.33647   0.36521   0.88678
 Alpha virt. eigenvalues --    0.91235   1.02713   1.22026   1.26918   1.32309
 Alpha virt. eigenvalues --    1.41678   1.78172

 Mulliken charges:
               1
     1  C   -0.623549
     2  H    0.227227
     3  H    0.275331
     4  H    0.265576
     5  H   -0.144586
 Sum of Mulliken charges =   0.00000

 Dipole moment (field-independent basis, Debye):
    X=              0.8484    Y=             -0.0096    Z=             -0.0393  Tot=              0.8494
 Quadrupole moment (field-independent basis, Debye-Ang):
   XX=            -11.1357   YY=             -8.1162   ZZ=             -8.9265
   XY=             -0.0699   XZ=              0.9328   YZ=              0.1468

 Normal termination of Gaussian 16 at Fri Sep 22 17:15:22 2023.
