 Gaussian 16, Revision A.03,
 Gaussian 16:  ES64L-G16RevA.03 25-Dec-2016

 ----------
 # hf/3-21g
 ----------

 -----------------------
 tmpdir/M1_conf_63_0.gjf
 -----------------------
 Symbolic Z-matrix:
 Charge =  0 Multiplicity = 1

                         Standard orientation:
 ---------------------------------------------------------------------
 Center     Atomic      Atomic             Coordinates (Angstroms)
 Number     Number       Type             X           Y           Z
 ---------------------------------------------------------------------
      1          6           0        0.062845   -0.050470    0.003746
      2          1           0       -0.021203   -0.227010    0.992817
      3          1           0       -0.292203   -0.814869   -0.601777
      4          1           0        1.008375    0.585307   -0.288168
      5          1           0       -1.072038    0.759393   -0.125349
 ---------------------------------------------------------------------

 SCF Done:  E(RHF) =  -39.9202989362     A.U. after    9 cycles

 The electronic state is 1-A.
 Alpha  occ. eigenvalues --  -11.17821  -0.93475  -0.58595  -0.55360  -0.44656
 Alpha virt. eigenvalues --    0.23558   0.29093   0.34878   0.37227   0.88283
 Alpha virt. eigenvalues --    0.95620   1.03252   1.19790   1.24304   1.37987
 Alpha virt. eigenvalues --    1.42214   1.92198

 Mulliken charges:
               1
     1  C   -0.724339
     2  H    0.234423
     3  H    0.229659
     4  H    0.191660
     5  H    0.068597
 Sum of Mulliken charges =   0.00000

 Dipole moment (field-independent basis, Debye):
    X=              0.1173    Y=             -0.2296    Z=              0.1010  Tot=              0.2769
 Quadrupole moment (field-independent basis, Debye-Ang):
   XX=             -8.4800   YY=             -8.8690   ZZ=             -8.5624
   XY=              0.6065   XZ=             -0.0545   YZ=              0.1193

 Normal termination of Gaussian 16 at Fri Sep 22 17:12:24 2023.
