 Gaussian 16, Revision A.03,
 Gaussian 16:  ES64L-G16RevA.03 25-Dec-2016

 ----------
 # hf/3-21g
 ----------

 -----------------------
 tmpdir/M1_conf_30_0.gjf
 -----------------------
 Symbolic Z-matrix:
 Charge =  0 Multiplicity = 1

                         Standard orientation:
 ---------------------------------------------------------------------
 Center     Atomic      Atomic             Coordinates (Angstroms)
 Number     Number       Type             X           Y           Z
 ---------------------------------------------------------------------
      1          6           0        0.015268   -0.017099   -0.025336
      2          1           0       -0.219745    0.995966   -0.411100
      3          1           0        0.483997    0.224021    0.878483
      4          1           0        0.676517   -0.609498   -0.490830
      5          1           0       -1.032376   -0.507892    0.175464
 ---------------------------------------------------------------------

 SCF Done:  E(RHF) =  -39.9585806030     A.U. after    9 cycles

 The electronic state is 1-A.
 Alpha  occ. eigenvalues --  -11.14490  -0.95121  -0.58371  -0.53778  -0.51071
 Alpha virt. eigenvalues --    0.29013   0.32711   0.35288   0.37552   0.87910
 Alpha virt. eigenvalues --    0.93648   0.96920   1.27564   1.31925   1.39611
 Alpha virt. eigenvalues --    1.43981   1.95369

 Mulliken charges:
               1
     1  C   -0.795677
     2  H    0.194217
     3  H    0.208012
     4  H    0.221984
     5  H    0.171464
 Sum of Mulliken charges =   0.00000

 Dipole moment (field-independent basis, Debye):
    X=              0.1167    Y=              0.0702    Z=              0.1075  Tot=              0.1735
 Quadrupole moment (field-independent basis, Debye-Ang):
   XX=             -8.1078   YY=             -8.2488   ZZ=             -8.8512
   XY=             -0.1575   XZ=             -0.0232   YZ=              0.1171

 Normal termination of Gaussian 16 at Fri Sep 22 17:11:46 2023.
