 Gaussian 16, Revision A.03,
 Gaussian 16:  ES64L-G16RevA.03 25-Dec-2016

 ----------
 # hf/3-21g
 ----------

 ------------------------
 tmpdir/M1_conf_124_0.gjf
 ------------------------
 Symbolic Z-matrix:
 Charge =  0 Multiplicity = 1

                         Standard orientation:
 ---------------------------------------------------------------------
 Center     Atomic      Atomic             Coordinates (Angstroms)
 Number     Number       Type             X           Y           Z
 ---------------------------------------------------------------------
      1          6           0       -0.081286    0.032504   -0.011877
      2          1           0       -0.125246   -0.515305    0.892582
      3          1           0        0.178974    1.113604    0.097677
      4          1           0       -0.777652   -0.358535   -0.604242
      5          1           0        1.211638   -0.434790   -0.314757
 ---------------------------------------------------------------------

 SCF Done:  E(RHF) =  -39.9182218221     A.U. after   10 cycles

 The electronic state is 1-A.
 Alpha  occ. eigenvalues --  -11.17317  -0.93942  -0.59666  -0.55437  -0.44291
 Alpha virt. eigenvalues --    0.23365   0.29977   0.35133   0.37390   0.87591
 Alpha virt. eigenvalues --    0.96534   1.01883   1.19468   1.28350   1.36920
 Alpha virt. eigenvalues --    1.43882   1.92348

 Mulliken charges:
               1
     1  C   -0.735624
     2  H    0.218206
     3  H    0.214872
     4  H    0.232208
     5  H    0.070337
 Sum of Mulliken charges =  -0.00000

 Dipole moment (field-independent basis, Debye):
    X=             -0.2301    Y=              0.0162    Z=              0.1982  Tot=              0.3041
 Quadrupole moment (field-independent basis, Debye-Ang):
   XX=             -8.6162   YY=             -8.2431   ZZ=             -8.9753
   XY=              0.4635   XZ=              0.4137   YZ=             -0.0865

 Normal termination of Gaussian 16 at Fri Sep 22 17:13:42 2023.
