 Gaussian 16, Revision A.03,
 Gaussian 16:  ES64L-G16RevA.03 25-Dec-2016

 ----------
 # hf/3-21g
 ----------

 ------------------------
 tmpdir/M1_conf_300_1.gjf
 ------------------------
 Symbolic Z-matrix:
 Charge =  0 Multiplicity = 1

                         Standard orientation:
 ---------------------------------------------------------------------
 Center     Atomic      Atomic             Coordinates (Angstroms)
 Number     Number       Type             X           Y           Z
 ---------------------------------------------------------------------
      1         17           0        0.000000    0.000000    0.167596
      2          1           0        0.000000   -0.000000   -2.849130
 ---------------------------------------------------------------------

 SCF Done:  E(RHF) =  -457.640812033     A.U. after   10 cycles

 The electronic state is 1-SG.
 Alpha  occ. eigenvalues -- -104.10414 -10.49067  -7.95397  -7.95093  -7.95093
 Alpha  occ. eigenvalues --   -1.02193  -0.44023  -0.44023  -0.38429
 Alpha virt. eigenvalues --   -0.14959   0.68026   0.81325   0.81570   0.81570
 Alpha virt. eigenvalues --    1.08235

 Mulliken charges:
               1
     1  Cl  -0.282272
     2  H    0.282272
 Sum of Mulliken charges =  -0.00000

 Dipole moment (field-independent basis, Debye):
    X=             -0.0000    Y=             -0.0000    Z=             -3.9994  Tot=              3.9994
 Quadrupole moment (field-independent basis, Debye-Ang):
   XX=            -14.8161   YY=            -14.8161   ZZ=             -1.4246
   XY=              0.0000   XZ=              0.0000   YZ=              0.0000

 Normal termination of Gaussian 16 at Fri Sep 22 17:17:16 2023.
