 Gaussian 16, Revision A.03,
 Gaussian 16:  ES64L-G16RevA.03 25-Dec-2016

 ----------
 # hf/3-21g
 ----------

 ------------------------
 tmpdir/M1_conf_230_1.gjf
 ------------------------
 Symbolic Z-matrix:
 Charge =  0 Multiplicity = 1

                         Standard orientation:
 ---------------------------------------------------------------------
 Center     Atomic      Atomic             Coordinates (Angstroms)
 Number     Number       Type             X           Y           Z
 ---------------------------------------------------------------------
      1         17           0       -0.000000    0.000000    0.136609
      2          1           0        0.000000   -0.000000   -2.322348
 ---------------------------------------------------------------------

 SCF Done:  E(RHF) =  -457.703075784     A.U. after    9 cycles

 The electronic state is 1-SG.
 Alpha  occ. eigenvalues -- -104.11921 -10.50484  -7.96811  -7.96504  -7.96504
 Alpha  occ. eigenvalues --   -1.03558  -0.45164  -0.45164  -0.42932
 Alpha virt. eigenvalues --   -0.09905   0.68483   0.80498   0.80498   0.84640
 Alpha virt. eigenvalues --    1.10285

 Mulliken charges:
               1
     1  Cl  -0.267299
     2  H    0.267299
 Sum of Mulliken charges =  -0.00000

 Dipole moment (field-independent basis, Debye):
    X=              0.0000    Y=             -0.0000    Z=             -3.0788  Tot=              3.0788
 Quadrupole moment (field-independent basis, Debye-Ang):
   XX=            -14.7808   YY=            -14.7808   ZZ=             -5.2263
   XY=              0.0000   XZ=             -0.0000   YZ=              0.0000

 Normal termination of Gaussian 16 at Fri Sep 22 17:15:53 2023.
