 Gaussian 16, Revision A.03,
 Gaussian 16:  ES64L-G16RevA.03 25-Dec-2016

 ----------
 # hf/3-21g
 ----------

 ------------------------
 tmpdir/M1_conf_201_0.gjf
 ------------------------
 Symbolic Z-matrix:
 Charge =  0 Multiplicity = 1

                         Standard orientation:
 ---------------------------------------------------------------------
 Center     Atomic      Atomic             Coordinates (Angstroms)
 Number     Number       Type             X           Y           Z
 ---------------------------------------------------------------------
      1          6           0       -0.260031    0.054542    0.048961
      2          1           0       -0.513415   -0.834814   -0.507002
      3          1           0        0.381532   -0.196345    0.880210
      4          1           0        0.066948    0.906529   -0.362074
      5          1           0        1.625120   -0.202624   -0.304902
 ---------------------------------------------------------------------

 SCF Done:  E(RHF) =  -39.7818569299     A.U. after   12 cycles

 The electronic state is 1-A.
 Alpha  occ. eigenvalues --  -11.21544  -0.95547  -0.62448  -0.57775  -0.34231
 Alpha virt. eigenvalues --    0.07062   0.29410   0.33664   0.36394   0.87017
 Alpha virt. eigenvalues --    0.91675   1.02862   1.24933   1.25291   1.33353
 Alpha virt. eigenvalues --    1.40686   1.78316

 Mulliken charges:
               1
     1  C   -0.626729
     2  H    0.243627
     3  H    0.255313
     4  H    0.268623
     5  H   -0.140833
 Sum of Mulliken charges =   0.00000

 Dipole moment (field-independent basis, Debye):
    X=             -0.6096    Y=             -0.0045    Z=              0.0234  Tot=              0.6101
 Quadrupole moment (field-independent basis, Debye-Ang):
   XX=            -10.7961   YY=             -8.3649   ZZ=             -9.2088
   XY=              0.6714   XZ=              1.0603   YZ=             -0.1845

 Normal termination of Gaussian 16 at Fri Sep 22 17:15:19 2023.
