 Gaussian 16, Revision A.03,
 Gaussian 16:  ES64L-G16RevA.03 25-Dec-2016

 ----------
 # hf/3-21g
 ----------

 ------------------------
 tmpdir/M1_conf_238_0.gjf
 ------------------------
 Symbolic Z-matrix:
 Charge =  0 Multiplicity = 1

                         Standard orientation:
 ---------------------------------------------------------------------
 Center     Atomic      Atomic             Coordinates (Angstroms)
 Number     Number       Type             X           Y           Z
 ---------------------------------------------------------------------
      1          6           0       -0.321729    0.021571    0.069598
      2          1           0       -0.515491   -0.807378   -0.620336
      3          1           0        0.517091   -0.273732    0.821790
      4          1           0        0.072175    1.120759   -0.302029
      5          1           0        1.856598   -0.169074   -0.317014
 ---------------------------------------------------------------------

 SCF Done:  E(RHF) =  -39.7290274284     A.U. after   13 cycles

 The electronic state is 1-A.
 Alpha  occ. eigenvalues --  -11.25710  -0.92187  -0.59792  -0.53750  -0.32247
 Alpha virt. eigenvalues --    0.02493   0.24984   0.30001   0.33045   0.91559
 Alpha virt. eigenvalues --    0.97549   1.01100   1.16506   1.25089   1.26726
 Alpha virt. eigenvalues --    1.29383   1.71707

 Mulliken charges:
               1
     1  C   -0.552729
     2  H    0.246875
     3  H    0.247039
     4  H    0.231668
     5  H   -0.172853
 Sum of Mulliken charges =  -0.00000

 Dipole moment (field-independent basis, Debye):
    X=             -0.8738    Y=              0.0115    Z=             -0.1491  Tot=              0.8865
 Quadrupole moment (field-independent basis, Debye-Ang):
   XX=            -11.7593   YY=             -8.4866   ZZ=             -9.7659
   XY=              0.6961   XZ=              1.2503   YZ=             -0.0168

 Normal termination of Gaussian 16 at Fri Sep 22 17:16:02 2023.
