 Gaussian 16, Revision A.03,
 Gaussian 16:  ES64L-G16RevA.03 25-Dec-2016

 ----------
 # hf/3-21g
 ----------

 -----------------------
 tmpdir/M1_conf_41_0.gjf
 -----------------------
 Symbolic Z-matrix:
 Charge =  0 Multiplicity = 1

                         Standard orientation:
 ---------------------------------------------------------------------
 Center     Atomic      Atomic             Coordinates (Angstroms)
 Number     Number       Type             X           Y           Z
 ---------------------------------------------------------------------
      1          6           0        0.043772    0.031353    0.012836
      2          1           0        0.945436   -0.177331   -0.500122
      3          1           0       -0.123263    0.936552    0.353029
      4          1           0       -0.130767   -0.763941    0.704304
      5          1           0       -0.954036   -0.183395   -0.634229
 ---------------------------------------------------------------------

 SCF Done:  E(RHF) =  -39.9512483238     A.U. after    9 cycles

 The electronic state is 1-A.
 Alpha  occ. eigenvalues --  -11.14381  -0.95341  -0.59474  -0.55732  -0.48710
 Alpha virt. eigenvalues --    0.28478   0.32484   0.35631   0.38166   0.88931
 Alpha virt. eigenvalues --    0.90749   0.97400   1.25806   1.35710   1.37457
 Alpha virt. eigenvalues --    1.46812   1.96077

 Mulliken charges:
               1
     1  C   -0.794620
     2  H    0.209965
     3  H    0.230646
     4  H    0.206533
     5  H    0.147475
 Sum of Mulliken charges =   0.00000

 Dipole moment (field-independent basis, Debye):
    X=             -0.0279    Y=             -0.0430    Z=              0.0976  Tot=              0.1102
 Quadrupole moment (field-independent basis, Debye-Ang):
   XX=             -8.1558   YY=             -8.1702   ZZ=             -8.9008
   XY=             -0.0877   XZ=             -0.2801   YZ=              0.0498

 Normal termination of Gaussian 16 at Fri Sep 22 17:11:58 2023.
