 Gaussian 16, Revision A.03,
 Gaussian 16:  ES64L-G16RevA.03 25-Dec-2016

 ----------
 # hf/3-21g
 ----------

 ------------------------
 tmpdir/M1_conf_255_0.gjf
 ------------------------
 Symbolic Z-matrix:
 Charge =  0 Multiplicity = 1

                         Standard orientation:
 ---------------------------------------------------------------------
 Center     Atomic      Atomic             Coordinates (Angstroms)
 Number     Number       Type             X           Y           Z
 ---------------------------------------------------------------------
      1          6           0        0.292764    0.027466    0.088752
      2          1           0        0.346031    0.870594   -0.397428
      3          1           0       -0.576584   -0.165178    0.711828
      4          1           0        0.560303   -0.854022   -0.519484
      5          1           0       -2.086335   -0.016188   -0.327426
 ---------------------------------------------------------------------

 SCF Done:  E(RHF) =  -39.7217350676     A.U. after   13 cycles

 The electronic state is 1-A.
 Alpha  occ. eigenvalues --  -11.23869  -0.96532  -0.63936  -0.59646  -0.29788
 Alpha virt. eigenvalues --    0.00893   0.28633   0.33314   0.35828   0.85609
 Alpha virt. eigenvalues --    0.90338   0.99516   1.16511   1.28544   1.31184
 Alpha virt. eigenvalues --    1.40078   1.74234

 Mulliken charges:
               1
     1  C   -0.554087
     2  H    0.260474
     3  H    0.276462
     4  H    0.229706
     5  H   -0.212556
 Sum of Mulliken charges =   0.00000

 Dipole moment (field-independent basis, Debye):
    X=              1.8781    Y=             -0.0045    Z=             -0.0687  Tot=              1.8793
 Quadrupole moment (field-independent basis, Debye-Ang):
   XX=            -12.5770   YY=             -8.5265   ZZ=             -9.4053
   XY=              0.0257   XZ=             -1.4968   YZ=             -0.1018

 Normal termination of Gaussian 16 at Fri Sep 22 17:16:23 2023.
