 Gaussian 16, Revision A.03,
 Gaussian 16:  ES64L-G16RevA.03 25-Dec-2016

 ----------
 # hf/3-21g
 ----------

 ------------------------
 tmpdir/M1_conf_298_0.gjf
 ------------------------
 Symbolic Z-matrix:
 Charge =  0 Multiplicity = 1

                         Standard orientation:
 ---------------------------------------------------------------------
 Center     Atomic      Atomic             Coordinates (Angstroms)
 Number     Number       Type             X           Y           Z
 ---------------------------------------------------------------------
      1          6           0       -0.288966   -0.001058    0.077130
      2          1           0       -0.762429   -0.828267   -0.525898
      3          1           0        0.607750   -0.215707    0.689625
      4          1           0       -0.343711    1.105147   -0.276461
      5          1           0        2.232189   -0.054826   -0.350048
 ---------------------------------------------------------------------

 SCF Done:  E(RHF) =  -39.7156495491     A.U. after   13 cycles

 The electronic state is 1-A.
 Alpha  occ. eigenvalues --  -11.27065  -0.93445  -0.61376  -0.59231  -0.28146
 Alpha virt. eigenvalues --    0.00370   0.24725   0.30498   0.33640   0.91328
 Alpha virt. eigenvalues --    0.94663   0.97654   1.09239   1.25234   1.28408
 Alpha virt. eigenvalues --    1.30833   1.66722

 Mulliken charges:
               1
     1  C   -0.528700
     2  H    0.244846
     3  H    0.286403
     4  H    0.244606
     5  H   -0.247156
 Sum of Mulliken charges =  -0.00000

 Dipole moment (field-independent basis, Debye):
    X=             -2.5239    Y=              0.0831    Z=              0.1343  Tot=              2.5289
 Quadrupole moment (field-independent basis, Debye-Ang):
   XX=            -14.0415   YY=             -8.2631   ZZ=             -9.7239
   XY=              0.2896   XZ=              1.7721   YZ=              0.0041

 Normal termination of Gaussian 16 at Fri Sep 22 17:17:14 2023.
