 Gaussian 16, Revision A.03,
 Gaussian 16:  ES64L-G16RevA.03 25-Dec-2016

 ----------
 # hf/3-21g
 ----------

 -----------------------
 tmpdir/M1_conf_28_0.gjf
 -----------------------
 Symbolic Z-matrix:
 Charge =  0 Multiplicity = 1

                         Standard orientation:
 ---------------------------------------------------------------------
 Center     Atomic      Atomic             Coordinates (Angstroms)
 Number     Number       Type             X           Y           Z
 ---------------------------------------------------------------------
      1          6           0        0.031988   -0.022945   -0.043380
      2          1           0       -0.760578    0.643709   -0.529596
      3          1           0        0.452976    0.751837    0.708396
      4          1           0        0.803610   -0.477294   -0.442028
      5          1           0       -0.687936   -0.780581    0.523510
 ---------------------------------------------------------------------

 SCF Done:  E(RHF) =  -39.9438618190     A.U. after    9 cycles

 The electronic state is 1-A.
 Alpha  occ. eigenvalues --  -11.16235  -0.93804  -0.60118  -0.51860  -0.48586
 Alpha virt. eigenvalues --    0.28194   0.30618   0.32607   0.38139   0.90003
 Alpha virt. eigenvalues --    0.97292   0.98642   1.26048   1.28135   1.29719
 Alpha virt. eigenvalues --    1.45086   1.94080

 Mulliken charges:
               1
     1  C   -0.775562
     2  H    0.199868
     3  H    0.173856
     4  H    0.234136
     5  H    0.167702
 Sum of Mulliken charges =   0.00000

 Dipole moment (field-independent basis, Debye):
    X=             -0.0010    Y=              0.0698    Z=              0.0183  Tot=              0.0722
 Quadrupole moment (field-independent basis, Debye-Ang):
   XX=             -8.0397   YY=             -8.3809   ZZ=             -9.1427
   XY=             -0.2530   XZ=             -0.1367   YZ=              0.0881

 Normal termination of Gaussian 16 at Fri Sep 22 17:11:43 2023.
