 Gaussian 16, Revision A.03,
 Gaussian 16:  ES64L-G16RevA.03 25-Dec-2016

 ----------
 # hf/3-21g
 ----------

 ------------------------
 tmpdir/M1_conf_296_0.gjf
 ------------------------
 Symbolic Z-matrix:
 Charge =  0 Multiplicity = 1

                         Standard orientation:
 ---------------------------------------------------------------------
 Center     Atomic      Atomic             Coordinates (Angstroms)
 Number     Number       Type             X           Y           Z
 ---------------------------------------------------------------------
      1          6           0        0.297628   -0.038589   -0.076258
      2          1           0        0.632499   -0.634367    0.589959
      3          1           0       -0.630621   -0.279387   -0.595341
      4          1           0        0.428576    1.070847    0.156364
      5          1           0       -2.216222    0.074442    0.306566
 ---------------------------------------------------------------------

 SCF Done:  E(RHF) =  -39.7040720977     A.U. after   13 cycles

 The electronic state is 1-A.
 Alpha  occ. eigenvalues --  -11.24742  -0.96907  -0.64859  -0.59785  -0.28511
 Alpha virt. eigenvalues --   -0.00078   0.27370   0.33243   0.36032   0.84630
 Alpha virt. eigenvalues --    0.91444   0.97966   1.13867   1.28294   1.29716
 Alpha virt. eigenvalues --    1.40675   1.73713

 Mulliken charges:
               1
     1  C   -0.532495
     2  H    0.254500
     3  H    0.280203
     4  H    0.233221
     5  H   -0.235428
 Sum of Mulliken charges =   0.00000

 Dipole moment (field-independent basis, Debye):
    X=              2.4020    Y=             -0.0001    Z=              0.0561  Tot=              2.4027
 Quadrupole moment (field-independent basis, Debye-Ang):
   XX=            -13.4806   YY=             -8.4651   ZZ=             -9.5521
   XY=              0.3022   XZ=              1.5147   YZ=             -0.1127

 Normal termination of Gaussian 16 at Fri Sep 22 17:17:12 2023.
