 Gaussian 16, Revision A.03,
 Gaussian 16:  ES64L-G16RevA.03 25-Dec-2016

 ----------
 # hf/3-21g
 ----------

 ------------------------
 tmpdir/M1_conf_240_0.gjf
 ------------------------
 Symbolic Z-matrix:
 Charge =  0 Multiplicity = 1

                         Standard orientation:
 ---------------------------------------------------------------------
 Center     Atomic      Atomic             Coordinates (Angstroms)
 Number     Number       Type             X           Y           Z
 ---------------------------------------------------------------------
      1          6           0        0.327730   -0.048372    0.056992
      2          1           0        0.405176    1.013168   -0.417723
      3          1           0       -0.456469    0.006031    0.820418
      4          1           0       -0.024768   -0.906233   -0.523135
      5          1           0       -1.890317    0.177265   -0.221510
 ---------------------------------------------------------------------

 SCF Done:  E(RHF) =  -39.7286665666     A.U. after   13 cycles

 The electronic state is 1-A.
 Alpha  occ. eigenvalues --  -11.24607  -0.94035  -0.59546  -0.55987  -0.32198
 Alpha virt. eigenvalues --    0.01451   0.26566   0.32669   0.33323   0.88271
 Alpha virt. eigenvalues --    0.95930   1.01193   1.17577   1.26937   1.29835
 Alpha virt. eigenvalues --    1.32863   1.73451

 Mulliken charges:
               1
     1  C   -0.575011
     2  H    0.234330
     3  H    0.256265
     4  H    0.253688
     5  H   -0.169273
 Sum of Mulliken charges =   0.00000

 Dipole moment (field-independent basis, Debye):
    X=              0.8615    Y=              0.0027    Z=             -0.1310  Tot=              0.8714
 Quadrupole moment (field-independent basis, Debye-Ang):
   XX=            -11.8813   YY=             -8.4228   ZZ=             -9.6051
   XY=              0.6583   XZ=             -0.8557   YZ=              0.0973

 Normal termination of Gaussian 16 at Fri Sep 22 17:16:05 2023.
