 Gaussian 16, Revision A.03,
 Gaussian 16:  ES64L-G16RevA.03 25-Dec-2016

 ----------
 # hf/3-21g
 ----------

 ------------------------
 tmpdir/M1_conf_286_0.gjf
 ------------------------
 Symbolic Z-matrix:
 Charge =  0 Multiplicity = 1

                         Standard orientation:
 ---------------------------------------------------------------------
 Center     Atomic      Atomic             Coordinates (Angstroms)
 Number     Number       Type             X           Y           Z
 ---------------------------------------------------------------------
      1          6           0        0.319322   -0.048507   -0.106766
      2          1           0        0.310886   -0.746021    0.582916
      3          1           0       -0.690062   -0.055841   -0.563130
      4          1           0        0.610239    0.954866    0.350935
      5          1           0       -2.146994    0.138038    0.269872
 ---------------------------------------------------------------------

 SCF Done:  E(RHF) =  -39.6981473494     A.U. after   14 cycles

 The electronic state is 1-A.
 Alpha  occ. eigenvalues --  -11.24105  -0.96582  -0.61077  -0.59258  -0.30129
 Alpha virt. eigenvalues --   -0.01030   0.27710   0.34249   0.35914   0.84459
 Alpha virt. eigenvalues --    0.92813   0.98408   1.18838   1.25756   1.32800
 Alpha virt. eigenvalues --    1.38669   1.75425

 Mulliken charges:
               1
     1  C   -0.540799
     2  H    0.253927
     3  H    0.253544
     4  H    0.219391
     5  H   -0.186062
 Sum of Mulliken charges =   0.00000

 Dipole moment (field-independent basis, Debye):
    X=              1.7262    Y=             -0.0428    Z=              0.5092  Tot=              1.8003
 Quadrupole moment (field-independent basis, Debye-Ang):
   XX=            -12.2237   YY=             -8.7827   ZZ=             -9.7925
   XY=              0.4585   XZ=              1.0874   YZ=             -0.0943

 Normal termination of Gaussian 16 at Fri Sep 22 17:17:00 2023.
