 Gaussian 16, Revision A.03,
 Gaussian 16:  ES64L-G16RevA.03 25-Dec-2016

 ----------
 # hf/3-21g
 ----------

 -----------------------
 tmpdir/M1_conf_65_0.gjf
 -----------------------
 Symbolic Z-matrix:
 Charge =  0 Multiplicity = 1

                         Standard orientation:
 ---------------------------------------------------------------------
 Center     Atomic      Atomic             Coordinates (Angstroms)
 Number     Number       Type             X           Y           Z
 ---------------------------------------------------------------------
      1          6           0       -0.069995   -0.062337    0.010131
      2          1           0        0.333707   -0.819647   -0.707481
      3          1           0        0.453658   -0.194343    1.042337
      4          1           0       -1.137989    0.384623   -0.037914
      5          1           0        0.770594    1.003387   -0.357729
 ---------------------------------------------------------------------

 SCF Done:  E(RHF) =  -39.9165637306     A.U. after    9 cycles

 The electronic state is 1-A.
 Alpha  occ. eigenvalues --  -11.20327  -0.90608  -0.56446  -0.53463  -0.43925
 Alpha virt. eigenvalues --    0.23465   0.26813   0.32706   0.34386   0.95087
 Alpha virt. eigenvalues --    1.00047   1.01735   1.19721   1.22479   1.28649
 Alpha virt. eigenvalues --    1.31994   1.89988

 Mulliken charges:
               1
     1  C   -0.706491
     2  H    0.219874
     3  H    0.202034
     4  H    0.212750
     5  H    0.071832
 Sum of Mulliken charges =   0.00000

 Dipole moment (field-independent basis, Debye):
    X=             -0.0211    Y=             -0.1371    Z=              0.0564  Tot=              0.1498
 Quadrupole moment (field-independent basis, Debye-Ang):
   XX=             -8.3234   YY=             -9.1921   ZZ=             -8.8669
   XY=             -0.5911   XZ=              0.1732   YZ=              0.3309

 Normal termination of Gaussian 16 at Fri Sep 22 17:12:27 2023.
