 Gaussian 16, Revision A.03,
 Gaussian 16:  ES64L-G16RevA.03 25-Dec-2016

 ----------
 # hf/3-21g
 ----------

 ------------------------
 tmpdir/M1_conf_193_0.gjf
 ------------------------
 Symbolic Z-matrix:
 Charge =  0 Multiplicity = 1

                         Standard orientation:
 ---------------------------------------------------------------------
 Center     Atomic      Atomic             Coordinates (Angstroms)
 Number     Number       Type             X           Y           Z
 ---------------------------------------------------------------------
      1          6           0       -0.298339   -0.027680   -0.050738
      2          1           0        0.023212    1.061108   -0.013061
      3          1           0        0.330787   -0.512076   -0.663126
      4          1           0       -0.134865   -0.408489    0.827556
      5          1           0        1.570902    0.025539    0.153060
 ---------------------------------------------------------------------

 SCF Done:  E(RHF) =  -39.7495490192     A.U. after   11 cycles

 The electronic state is 1-A.
 Alpha  occ. eigenvalues --  -11.20431  -0.98096  -0.60641  -0.57464  -0.35807
 Alpha virt. eigenvalues --    0.05539   0.29660   0.34983   0.36713   0.83760
 Alpha virt. eigenvalues --    0.90333   1.02922   1.22088   1.28274   1.40678
 Alpha virt. eigenvalues --    1.47135   1.85854

 Mulliken charges:
               1
     1  C   -0.649145
     2  H    0.228028
     3  H    0.263336
     4  H    0.258658
     5  H   -0.100876
 Sum of Mulliken charges =   0.00000

 Dipole moment (field-independent basis, Debye):
    X=              0.0497    Y=             -0.0001    Z=              0.2455  Tot=              0.2504
 Quadrupole moment (field-independent basis, Debye-Ang):
   XX=            -10.6706   YY=             -8.5769   ZZ=             -9.0878
   XY=             -0.0876   XZ=             -0.6226   YZ=             -0.0103

 Normal termination of Gaussian 16 at Fri Sep 22 17:15:09 2023.
