 Gaussian 16, Revision A.03,
 Gaussian 16:  ES64L-G16RevA.03 25-Dec-2016

 ----------
 # hf/3-21g
 ----------

 -----------------------
 tmpdir/M1_conf_21_0.gjf
 -----------------------
 Symbolic Z-matrix:
 Charge =  0 Multiplicity = 1

                         Standard orientation:
 ---------------------------------------------------------------------
 Center     Atomic      Atomic             Coordinates (Angstroms)
 Number     Number       Type             X           Y           Z
 ---------------------------------------------------------------------
      1          6           0       -0.061400    0.018362    0.021372
      2          1           0        0.302558   -0.449576    0.934036
      3          1           0       -0.392151    0.956210    0.067228
      4          1           0       -0.599148   -0.706287   -0.570959
      5          1           0        1.057138    0.089483   -0.558539
 ---------------------------------------------------------------------

 SCF Done:  E(RHF) =  -39.9497560840     A.U. after    9 cycles

 The electronic state is 1-A.
 Alpha  occ. eigenvalues --  -11.15674  -0.94338  -0.59333  -0.55000  -0.47699
 Alpha virt. eigenvalues --    0.27490   0.31206   0.35085   0.37709   0.90183
 Alpha virt. eigenvalues --    0.92156   0.98420   1.23056   1.32779   1.35350
 Alpha virt. eigenvalues --    1.44364   1.95828

 Mulliken charges:
               1
     1  C   -0.772331
     2  H    0.207452
     3  H    0.229303
     4  H    0.209852
     5  H    0.125723
 Sum of Mulliken charges =   0.00000

 Dipole moment (field-independent basis, Debye):
    X=             -0.0184    Y=             -0.0292    Z=              0.0498  Tot=              0.0606
 Quadrupole moment (field-independent basis, Debye-Ang):
   XX=             -8.6649   YY=             -8.1414   ZZ=             -8.6803
   XY=             -0.1290   XZ=              0.3039   YZ=              0.0598

 Normal termination of Gaussian 16 at Fri Sep 22 17:11:35 2023.
