 Gaussian 16, Revision A.03,
 Gaussian 16:  ES64L-G16RevA.03 25-Dec-2016

 ----------
 # hf/3-21g
 ----------

 ------------------------
 tmpdir/M1_conf_151_0.gjf
 ------------------------
 Symbolic Z-matrix:
 Charge =  0 Multiplicity = 1

                         Standard orientation:
 ---------------------------------------------------------------------
 Center     Atomic      Atomic             Coordinates (Angstroms)
 Number     Number       Type             X           Y           Z
 ---------------------------------------------------------------------
      1          6           0        0.130620    0.034717    0.052681
      2          1           0       -0.001562   -0.479858    0.843383
      3          1           0        0.669108   -0.443768   -0.749200
      4          1           0       -0.168897    1.065385   -0.058187
      5          1           0       -1.282371   -0.350063   -0.352081
 ---------------------------------------------------------------------

 SCF Done:  E(RHF) =  -39.8804008881     A.U. after   10 cycles

 The electronic state is 1-A.
 Alpha  occ. eigenvalues --  -11.17999  -0.94811  -0.61370  -0.57834  -0.40503
 Alpha virt. eigenvalues --    0.19306   0.29801   0.35265   0.38182   0.87621
 Alpha virt. eigenvalues --    0.93602   1.02732   1.17985   1.29228   1.36073
 Alpha virt. eigenvalues --    1.48184   1.91655

 Mulliken charges:
               1
     1  C   -0.715161
     2  H    0.258122
     3  H    0.224061
     4  H    0.237092
     5  H   -0.004115
 Sum of Mulliken charges =  -0.00000

 Dipole moment (field-independent basis, Debye):
    X=              0.2388    Y=              0.0682    Z=              0.0940  Tot=              0.2655
 Quadrupole moment (field-independent basis, Debye-Ang):
   XX=             -9.4104   YY=             -8.2756   ZZ=             -8.6114
   XY=             -0.5941   XZ=             -0.5816   YZ=             -0.2841

 Normal termination of Gaussian 16 at Fri Sep 22 17:14:19 2023.
