 Gaussian 16, Revision A.03,
 Gaussian 16:  ES64L-G16RevA.03 25-Dec-2016

 ----------
 # hf/3-21g
 ----------

 ------------------------
 tmpdir/M1_conf_277_0.gjf
 ------------------------
 Symbolic Z-matrix:
 Charge =  0 Multiplicity = 1

                         Standard orientation:
 ---------------------------------------------------------------------
 Center     Atomic      Atomic             Coordinates (Angstroms)
 Number     Number       Type             X           Y           Z
 ---------------------------------------------------------------------
      1          6           0       -0.290034   -0.023795    0.058506
      2          1           0       -0.408296   -0.970742   -0.404363
      3          1           0        0.443364    0.136486    0.884866
      4          1           0       -0.454289    0.997845   -0.512695
      5          1           0        2.159425   -0.020821   -0.318843
 ---------------------------------------------------------------------

 SCF Done:  E(RHF) =  -39.7286205855     A.U. after   12 cycles

 The electronic state is 1-A.
 Alpha  occ. eigenvalues --  -11.26370  -0.93618  -0.62915  -0.57598  -0.28939
 Alpha virt. eigenvalues --    0.01575   0.25298   0.30656   0.33637   0.90721
 Alpha virt. eigenvalues --    0.93944   0.98951   1.10437   1.24914   1.30542
 Alpha virt. eigenvalues --    1.32267   1.69205

 Mulliken charges:
               1
     1  C   -0.548221
     2  H    0.264934
     3  H    0.279307
     4  H    0.236115
     5  H   -0.232135
 Sum of Mulliken charges =   0.00000

 Dipole moment (field-independent basis, Debye):
    X=             -2.1784    Y=              0.0533    Z=              0.2228  Tot=              2.1905
 Quadrupole moment (field-independent basis, Debye-Ang):
   XX=            -13.7094   YY=             -8.1192   ZZ=             -9.2401
   XY=              0.1819   XZ=              1.5591   YZ=              0.1043

 Normal termination of Gaussian 16 at Fri Sep 22 17:16:49 2023.
