 Gaussian 16, Revision A.03,
 Gaussian 16:  ES64L-G16RevA.03 25-Dec-2016

 ----------
 # hf/3-21g
 ----------

 ------------------------
 tmpdir/M1_conf_115_0.gjf
 ------------------------
 Symbolic Z-matrix:
 Charge =  0 Multiplicity = 1

                         Standard orientation:
 ---------------------------------------------------------------------
 Center     Atomic      Atomic             Coordinates (Angstroms)
 Number     Number       Type             X           Y           Z
 ---------------------------------------------------------------------
      1          6           0       -0.034182   -0.047833   -0.061382
      2          1           0        0.731588   -0.874292   -0.087034
      3          1           0       -1.013031   -0.236590    0.538772
      4          1           0       -0.166406    0.637817   -0.794978
      5          1           0        0.652939    0.760062    0.711533
 ---------------------------------------------------------------------

 SCF Done:  E(RHF) =  -39.9311665103     A.U. after    9 cycles

 The electronic state is 1-A.
 Alpha  occ. eigenvalues --  -11.17869  -0.92873  -0.58424  -0.53989  -0.45595
 Alpha virt. eigenvalues --    0.25868   0.28488   0.33314   0.36967   0.91036
 Alpha virt. eigenvalues --    0.97809   1.01074   1.20728   1.25253   1.30687
 Alpha virt. eigenvalues --    1.42124   1.93127

 Mulliken charges:
               1
     1  C   -0.747723
     2  H    0.213474
     3  H    0.192501
     4  H    0.239663
     5  H    0.102084
 Sum of Mulliken charges =   0.00000

 Dipole moment (field-independent basis, Debye):
    X=              0.0215    Y=              0.0537    Z=             -0.0508  Tot=              0.0770
 Quadrupole moment (field-independent basis, Debye-Ang):
   XX=             -8.3192   YY=             -8.5635   ZZ=             -9.0584
   XY=             -0.3622   XZ=             -0.2194   YZ=             -0.4553

 Normal termination of Gaussian 16 at Fri Sep 22 17:13:31 2023.
