 Gaussian 16, Revision A.03,
 Gaussian 16:  ES64L-G16RevA.03 25-Dec-2016

 ----------
 # hf/3-21g
 ----------

 ------------------------
 tmpdir/M1_conf_293_0.gjf
 ------------------------
 Symbolic Z-matrix:
 Charge =  0 Multiplicity = 1

                         Standard orientation:
 ---------------------------------------------------------------------
 Center     Atomic      Atomic             Coordinates (Angstroms)
 Number     Number       Type             X           Y           Z
 ---------------------------------------------------------------------
      1          6           0       -0.300804   -0.034865   -0.116968
      2          1           0       -0.560283    0.913754    0.412951
      3          1           0        0.647439    0.002028   -0.555191
      4          1           0       -0.473864   -0.748947    0.551531
      5          1           0        2.191533    0.042356    0.292519
 ---------------------------------------------------------------------

 SCF Done:  E(RHF) =  -39.6984083816     A.U. after   13 cycles

 The electronic state is 1-A.
 Alpha  occ. eigenvalues --  -11.23889  -0.97281  -0.63917  -0.59142  -0.29378
 Alpha virt. eigenvalues --   -0.01207   0.28369   0.33118   0.38252   0.85072
 Alpha virt. eigenvalues --    0.89592   0.98017   1.19505   1.27704   1.31132
 Alpha virt. eigenvalues --    1.41460   1.75166

 Mulliken charges:
               1
     1  C   -0.544559
     2  H    0.219888
     3  H    0.272487
     4  H    0.251254
     5  H   -0.199070
 Sum of Mulliken charges =  -0.00000

 Dipole moment (field-independent basis, Debye):
    X=             -1.9944    Y=              0.0114    Z=              0.3764  Tot=              2.0297
 Quadrupole moment (field-independent basis, Debye-Ang):
   XX=            -12.6265   YY=             -8.8749   ZZ=             -9.4807
   XY=             -0.0935   XZ=             -1.2966   YZ=             -0.0931

 Normal termination of Gaussian 16 at Fri Sep 22 17:17:08 2023.
