 Gaussian 16, Revision A.03,
 Gaussian 16:  ES64L-G16RevA.03 25-Dec-2016

 ----------
 # hf/3-21g
 ----------

 ------------------------
 tmpdir/M1_conf_267_1.gjf
 ------------------------
 Symbolic Z-matrix:
 Charge =  0 Multiplicity = 1

                         Standard orientation:
 ---------------------------------------------------------------------
 Center     Atomic      Atomic             Coordinates (Angstroms)
 Number     Number       Type             X           Y           Z
 ---------------------------------------------------------------------
      1         17           0        0.000000   -0.000000    0.162452
      2          1           0        0.000000    0.000000   -2.761689
 ---------------------------------------------------------------------

 SCF Done:  E(RHF) =  -457.649394279     A.U. after   10 cycles

 The electronic state is 1-SG.
 Alpha  occ. eigenvalues -- -104.10662 -10.49299  -7.95629  -7.95324  -7.95324
 Alpha  occ. eigenvalues --   -1.02392  -0.44202  -0.44202  -0.39043
 Alpha virt. eigenvalues --   -0.14295   0.67993   0.81404   0.81404   0.81598
 Alpha virt. eigenvalues --    1.08882

 Mulliken charges:
               1
     1  Cl  -0.280313
     2  H    0.280313
 Sum of Mulliken charges =   0.00000

 Dipole moment (field-independent basis, Debye):
    X=             -0.0000    Y=              0.0000    Z=             -3.8449  Tot=              3.8449
 Quadrupole moment (field-independent basis, Debye-Ang):
   XX=            -14.8128   YY=            -14.8128   ZZ=             -2.0868
   XY=              0.0000   XZ=             -0.0000   YZ=             -0.0000

 Normal termination of Gaussian 16 at Fri Sep 22 17:16:37 2023.
