 Gaussian 16, Revision A.03,
 Gaussian 16:  ES64L-G16RevA.03 25-Dec-2016

 ----------
 # hf/3-21g
 ----------

 ----------------------
 tmpdir/M1_conf_8_0.gjf
 ----------------------
 Symbolic Z-matrix:
 Charge =  0 Multiplicity = 1

                         Standard orientation:
 ---------------------------------------------------------------------
 Center     Atomic      Atomic             Coordinates (Angstroms)
 Number     Number       Type             X           Y           Z
 ---------------------------------------------------------------------
      1          6           0       -0.030411   -0.009366   -0.053524
      2          1           0       -0.872950   -0.774897   -0.073805
      3          1           0       -0.402350    0.731744    0.758345
      4          1           0        0.293690    0.573755   -0.751325
      5          1           0        1.164079   -0.474405    0.387931
 ---------------------------------------------------------------------

 SCF Done:  E(RHF) =  -39.9165629281     A.U. after    9 cycles

 The electronic state is 1-A.
 Alpha  occ. eigenvalues --  -11.17825  -0.93448  -0.60002  -0.50530  -0.47371
 Alpha virt. eigenvalues --    0.24490   0.30374   0.31428   0.38139   0.89036
 Alpha virt. eigenvalues --    0.96809   1.05140   1.20026   1.26835   1.28280
 Alpha virt. eigenvalues --    1.47338   1.92104

 Mulliken charges:
               1
     1  C   -0.737231
     2  H    0.207774
     3  H    0.173403
     4  H    0.249418
     5  H    0.106636
 Sum of Mulliken charges =  -0.00000

 Dipole moment (field-independent basis, Debye):
    X=             -0.1805    Y=              0.2189    Z=             -0.0793  Tot=              0.2946
 Quadrupole moment (field-independent basis, Debye-Ang):
   XX=             -8.1617   YY=             -8.6160   ZZ=             -9.0616
   XY=              0.4071   XZ=             -0.2534   YZ=             -0.1678

 Normal termination of Gaussian 16 at Fri Sep 22 17:11:20 2023.
