 Gaussian 16, Revision A.03,
 Gaussian 16:  ES64L-G16RevA.03 25-Dec-2016

 ----------
 # hf/3-21g
 ----------

 ------------------------
 tmpdir/M1_conf_142_0.gjf
 ------------------------
 Symbolic Z-matrix:
 Charge =  0 Multiplicity = 1

                         Standard orientation:
 ---------------------------------------------------------------------
 Center     Atomic      Atomic             Coordinates (Angstroms)
 Number     Number       Type             X           Y           Z
 ---------------------------------------------------------------------
      1          6           0        0.144863   -0.059167    0.051909
      2          1           0        0.148388   -0.731337   -0.622186
      3          1           0        0.694298    0.851311   -0.029674
      4          1           0       -0.553447   -0.262589    0.763914
      5          1           0       -1.158415    0.497615   -0.423506
 ---------------------------------------------------------------------

 SCF Done:  E(RHF) =  -39.8613722118     A.U. after   11 cycles

 The electronic state is 1-A.
 Alpha  occ. eigenvalues --  -11.17057  -0.96366  -0.61122  -0.60200  -0.39841
 Alpha virt. eigenvalues --    0.18801   0.30242   0.36774   0.37997   0.85063
 Alpha virt. eigenvalues --    0.93607   1.03566   1.15748   1.31848   1.42399
 Alpha virt. eigenvalues --    1.49257   1.92451

 Mulliken charges:
               1
     1  C   -0.740846
     2  H    0.255029
     3  H    0.238230
     4  H    0.252638
     5  H   -0.005052
 Sum of Mulliken charges =  -0.00000

 Dipole moment (field-independent basis, Debye):
    X=              0.0091    Y=             -0.0708    Z=              0.0241  Tot=              0.0754
 Quadrupole moment (field-independent basis, Debye-Ang):
   XX=             -8.7914   YY=             -8.4258   ZZ=             -9.1006
   XY=              0.8063   XZ=             -0.8214   YZ=              0.4258

 Normal termination of Gaussian 16 at Fri Sep 22 17:14:09 2023.
