 Gaussian 16, Revision A.03,
 Gaussian 16:  ES64L-G16RevA.03 25-Dec-2016

 ----------
 # hf/3-21g
 ----------

 ------------------------
 tmpdir/M1_conf_127_0.gjf
 ------------------------
 Symbolic Z-matrix:
 Charge =  0 Multiplicity = 1

                         Standard orientation:
 ---------------------------------------------------------------------
 Center     Atomic      Atomic             Coordinates (Angstroms)
 Number     Number       Type             X           Y           Z
 ---------------------------------------------------------------------
      1          6           0       -0.071566   -0.021279   -0.009357
      2          1           0        0.096179    1.091410   -0.508727
      3          1           0        0.040998   -0.850037   -0.735031
      4          1           0       -0.926275   -0.027641    0.703512
      5          1           0        1.218496   -0.086057    0.596384
 ---------------------------------------------------------------------

 SCF Done:  E(RHF) =  -39.9142334524     A.U. after    9 cycles

 The electronic state is 1-A.
 Alpha  occ. eigenvalues --  -11.20561  -0.90467  -0.56777  -0.52544  -0.44293
 Alpha virt. eigenvalues --    0.22613   0.27334   0.32247   0.34837   0.95233
 Alpha virt. eigenvalues --    0.97543   1.03423   1.19495   1.21896   1.27879
 Alpha virt. eigenvalues --    1.33325   1.88100

 Mulliken charges:
               1
     1  C   -0.683084
     2  H    0.172131
     3  H    0.217004
     4  H    0.213036
     5  H    0.080913
 Sum of Mulliken charges =   0.00000

 Dipole moment (field-independent basis, Debye):
    X=             -0.1882    Y=             -0.0117    Z=             -0.1563  Tot=              0.2449
 Quadrupole moment (field-independent basis, Debye-Ang):
   XX=             -8.6480   YY=             -8.6361   ZZ=             -9.0708
   XY=              0.0599   XZ=             -0.5349   YZ=              0.2000

 Normal termination of Gaussian 16 at Fri Sep 22 17:13:46 2023.
