 Gaussian 16, Revision A.03,
 Gaussian 16:  ES64L-G16RevA.03 25-Dec-2016

 ----------
 # hf/3-21g
 ----------

 -----------------------
 tmpdir/M1_conf_49_1.gjf
 -----------------------
 Symbolic Z-matrix:
 Charge =  0 Multiplicity = 1

                         Standard orientation:
 ---------------------------------------------------------------------
 Center     Atomic      Atomic             Coordinates (Angstroms)
 Number     Number       Type             X           Y           Z
 ---------------------------------------------------------------------
      1         17           0       -0.000000   -0.000000    0.084185
      2          1           0        0.000000    0.000000   -1.431144
 ---------------------------------------------------------------------

 SCF Done:  E(RHF) =  -457.851609557     A.U. after    8 cycles

 The electronic state is 1-SG.
 Alpha  occ. eigenvalues -- -104.12603 -10.51742  -7.98109  -7.97699  -7.97699
 Alpha  occ. eigenvalues --   -1.09052  -0.56955  -0.47498  -0.47498
 Alpha virt. eigenvalues --    0.08795   0.70681   0.78507   0.78507   0.85402
 Alpha virt. eigenvalues --    1.07293

 Mulliken charges:
               1
     1  Cl  -0.235907
     2  H    0.235907
 Sum of Mulliken charges =   0.00000

 Dipole moment (field-independent basis, Debye):
    X=              0.0000    Y=              0.0000    Z=             -1.9564  Tot=              1.9564
 Quadrupole moment (field-independent basis, Debye-Ang):
   XX=            -14.3813   YY=            -14.3813   ZZ=            -10.2241
   XY=              0.0000   XZ=              0.0000   YZ=             -0.0000

 Normal termination of Gaussian 16 at Fri Sep 22 17:12:08 2023.
