 Gaussian 16, Revision A.03,
 Gaussian 16:  ES64L-G16RevA.03 25-Dec-2016

 ----------
 # hf/3-21g
 ----------

 ------------------------
 tmpdir/M1_conf_268_0.gjf
 ------------------------
 Symbolic Z-matrix:
 Charge =  0 Multiplicity = 1

                         Standard orientation:
 ---------------------------------------------------------------------
 Center     Atomic      Atomic             Coordinates (Angstroms)
 Number     Number       Type             X           Y           Z
 ---------------------------------------------------------------------
      1          6           0        0.339762   -0.045337   -0.118304
      2          1           0        0.459971   -0.412928    0.961162
      3          1           0       -0.588156   -0.599889   -0.510503
      4          1           0        0.210159    1.138752    0.020756
      5          1           0       -2.120544    0.146089    0.238408
 ---------------------------------------------------------------------

 SCF Done:  E(RHF) =  -39.6951136494     A.U. after   13 cycles

 The electronic state is 1-A.
 Alpha  occ. eigenvalues --  -11.26413  -0.92620  -0.57720  -0.55275  -0.30864
 Alpha virt. eigenvalues --   -0.01374   0.25795   0.29500   0.32230   0.92335
 Alpha virt. eigenvalues --    0.96097   0.99102   1.15355   1.23476   1.27434
 Alpha virt. eigenvalues --    1.28563   1.73343

 Mulliken charges:
               1
     1  C   -0.531990
     2  H    0.216489
     3  H    0.254353
     4  H    0.226080
     5  H   -0.164933
 Sum of Mulliken charges =   0.00000

 Dipole moment (field-independent basis, Debye):
    X=              1.1329    Y=              0.1166    Z=              0.4869  Tot=              1.2386
 Quadrupole moment (field-independent basis, Debye-Ang):
   XX=            -12.3093   YY=             -8.8262   ZZ=             -9.7726
   XY=              0.6004   XZ=              0.9693   YZ=              0.0099

 Normal termination of Gaussian 16 at Fri Sep 22 17:16:38 2023.
