 Gaussian 16, Revision A.03,
 Gaussian 16:  ES64L-G16RevA.03 25-Dec-2016

 ----------
 # hf/3-21g
 ----------

 ------------------------
 tmpdir/M1_conf_128_0.gjf
 ------------------------
 Symbolic Z-matrix:
 Charge =  0 Multiplicity = 1

                         Standard orientation:
 ---------------------------------------------------------------------
 Center     Atomic      Atomic             Coordinates (Angstroms)
 Number     Number       Type             X           Y           Z
 ---------------------------------------------------------------------
      1          6           0        0.066785   -0.003795    0.020809
      2          1           0       -0.185908    1.174084    0.121905
      3          1           0        0.012106   -0.531904    0.946426
      4          1           0        0.971348   -0.237822   -0.657664
      5          1           0       -1.198255   -0.381588   -0.535518
 ---------------------------------------------------------------------

 SCF Done:  E(RHF) =  -39.9147129635     A.U. after    9 cycles

 The electronic state is 1-A.
 Alpha  occ. eigenvalues --  -11.20381  -0.90740  -0.56195  -0.53304  -0.44402
 Alpha virt. eigenvalues --    0.22447   0.27695   0.32345   0.35073   0.93345
 Alpha virt. eigenvalues --    0.98869   1.03282   1.19703   1.21953   1.27397
 Alpha virt. eigenvalues --    1.35113   1.88266

 Mulliken charges:
               1
     1  C   -0.683581
     2  H    0.181357
     3  H    0.224923
     4  H    0.200769
     5  H    0.076532
 Sum of Mulliken charges =   0.00000

 Dipole moment (field-independent basis, Debye):
    X=              0.1919    Y=              0.0616    Z=              0.1973  Tot=              0.2820
 Quadrupole moment (field-independent basis, Debye-Ang):
   XX=             -8.6031   YY=             -8.7842   ZZ=             -8.9282
   XY=             -0.2884   XZ=             -0.4320   YZ=             -0.2392

 Normal termination of Gaussian 16 at Fri Sep 22 17:13:52 2023.
