 Gaussian 16, Revision A.03,
 Gaussian 16:  ES64L-G16RevA.03 25-Dec-2016

 ----------
 # hf/3-21g
 ----------

 ------------------------
 tmpdir/M1_conf_258_1.gjf
 ------------------------
 Symbolic Z-matrix:
 Charge =  0 Multiplicity = 1

                         Standard orientation:
 ---------------------------------------------------------------------
 Center     Atomic      Atomic             Coordinates (Angstroms)
 Number     Number       Type             X           Y           Z
 ---------------------------------------------------------------------
      1         17           0       -0.000000   -0.000000    0.159374
      2          1           0        0.000000    0.000000   -2.709350
 ---------------------------------------------------------------------

 SCF Done:  E(RHF) =  -457.654847021     A.U. after   10 cycles

 The electronic state is 1-SG.
 Alpha  occ. eigenvalues -- -104.10811 -10.49439  -7.95769  -7.95464  -7.95464
 Alpha  occ. eigenvalues --   -1.02515  -0.44310  -0.44310  -0.39433
 Alpha virt. eigenvalues --   -0.13868   0.67995   0.81303   0.81303   0.81822
 Alpha virt. eigenvalues --    1.09222

 Mulliken charges:
               1
     1  Cl  -0.279039
     2  H    0.279039
 Sum of Mulliken charges =   0.00000

 Dipole moment (field-independent basis, Debye):
    X=              0.0000    Y=              0.0000    Z=             -3.7524  Tot=              3.7524
 Quadrupole moment (field-independent basis, Debye-Ang):
   XX=            -14.8105   YY=            -14.8105   ZZ=             -2.4763
   XY=              0.0000   XZ=             -0.0000   YZ=             -0.0000

 Normal termination of Gaussian 16 at Fri Sep 22 17:16:26 2023.
