 Gaussian 16, Revision A.03,
 Gaussian 16:  ES64L-G16RevA.03 25-Dec-2016

 ----------
 # hf/3-21g
 ----------

 ------------------------
 tmpdir/M1_conf_195_0.gjf
 ------------------------
 Symbolic Z-matrix:
 Charge =  0 Multiplicity = 1

                         Standard orientation:
 ---------------------------------------------------------------------
 Center     Atomic      Atomic             Coordinates (Angstroms)
 Number     Number       Type             X           Y           Z
 ---------------------------------------------------------------------
      1          6           0        0.307589   -0.021349    0.060572
      2          1           0        0.172313    0.996956   -0.400988
      3          1           0       -0.410610   -0.122586    0.812124
      4          1           0       -0.032211   -0.880289   -0.602271
      5          1           0       -1.575025    0.134015   -0.172299
 ---------------------------------------------------------------------

 SCF Done:  E(RHF) =  -39.7592655304     A.U. after   12 cycles

 The electronic state is 1-A.
 Alpha  occ. eigenvalues --  -11.22544  -0.95279  -0.58288  -0.55619  -0.35826
 Alpha virt. eigenvalues --    0.05325   0.27913   0.32574   0.34584   0.87925
 Alpha virt. eigenvalues --    0.94573   1.02486   1.22179   1.26132   1.28347
 Alpha virt. eigenvalues --    1.39477   1.81525

 Mulliken charges:
               1
     1  C   -0.619510
     2  H    0.237290
     3  H    0.257983
     4  H    0.227949
     5  H   -0.103711
 Sum of Mulliken charges =   0.00000

 Dipole moment (field-independent basis, Debye):
    X=             -0.1179    Y=              0.0361    Z=             -0.1934  Tot=              0.2294
 Quadrupole moment (field-independent basis, Debye-Ang):
   XX=            -10.8572   YY=             -8.5664   ZZ=             -9.4571
   XY=              0.4131   XZ=             -0.6352   YZ=             -0.0125

 Normal termination of Gaussian 16 at Fri Sep 22 17:15:11 2023.
