 Gaussian 16, Revision A.03,
 Gaussian 16:  ES64L-G16RevA.03 25-Dec-2016

 ----------
 # hf/3-21g
 ----------

 ------------------------
 tmpdir/M1_conf_126_0.gjf
 ------------------------
 Symbolic Z-matrix:
 Charge =  0 Multiplicity = 1

                         Standard orientation:
 ---------------------------------------------------------------------
 Center     Atomic      Atomic             Coordinates (Angstroms)
 Number     Number       Type             X           Y           Z
 ---------------------------------------------------------------------
      1          6           0       -0.075234    0.030433   -0.006077
      2          1           0       -0.038268   -0.903728    0.761294
      3          1           0        0.112564    1.032989    0.490593
      4          1           0       -0.856384   -0.118453   -0.703576
      5          1           0        1.233494   -0.193406   -0.511849
 ---------------------------------------------------------------------

 SCF Done:  E(RHF) =  -39.9158306396     A.U. after    9 cycles

 The electronic state is 1-A.
 Alpha  occ. eigenvalues --  -11.19990  -0.91082  -0.57837  -0.52587  -0.44241
 Alpha virt. eigenvalues --    0.22868   0.27780   0.32274   0.35748   0.93433
 Alpha virt. eigenvalues --    0.97805   1.03142   1.19593   1.22993   1.28007
 Alpha virt. eigenvalues --    1.36226   1.89039

 Mulliken charges:
               1
     1  C   -0.693079
     2  H    0.175946
     3  H    0.211157
     4  H    0.224879
     5  H    0.081096
 Sum of Mulliken charges =  -0.00000

 Dipole moment (field-independent basis, Debye):
    X=             -0.1939    Y=              0.0287    Z=              0.1275  Tot=              0.2338
 Quadrupole moment (field-independent basis, Debye-Ang):
   XX=             -8.6784   YY=             -8.4923   ZZ=             -9.1004
   XY=              0.1610   XZ=              0.5506   YZ=              0.0934

 Normal termination of Gaussian 16 at Fri Sep 22 17:13:45 2023.
