 Gaussian 16, Revision A.03,
 Gaussian 16:  ES64L-G16RevA.03 25-Dec-2016

 ----------
 # hf/3-21g
 ----------

 ------------------------
 tmpdir/M1_conf_279_0.gjf
 ------------------------
 Symbolic Z-matrix:
 Charge =  0 Multiplicity = 1

                         Standard orientation:
 ---------------------------------------------------------------------
 Center     Atomic      Atomic             Coordinates (Angstroms)
 Number     Number       Type             X           Y           Z
 ---------------------------------------------------------------------
      1          6           0        0.293854   -0.004166    0.068238
      2          1           0        0.413677    1.155477   -0.253975
      3          1           0       -0.492629   -0.315528    0.784338
      4          1           0        0.471919   -0.906843   -0.629805
      5          1           0       -2.156089    0.091893   -0.309986
 ---------------------------------------------------------------------

 SCF Done:  E(RHF) =  -39.7158574804     A.U. after   12 cycles

 The electronic state is 1-A.
 Alpha  occ. eigenvalues --  -11.27346  -0.92357  -0.59779  -0.57838  -0.28900
 Alpha virt. eigenvalues --    0.01297   0.23128   0.30196   0.32523   0.90674
 Alpha virt. eigenvalues --    0.98612   1.00289   1.08738   1.23865   1.27242
 Alpha virt. eigenvalues --    1.30600   1.67065

 Mulliken charges:
               1
     1  C   -0.542843
     2  H    0.252205
     3  H    0.281558
     4  H    0.241754
     5  H   -0.232674
 Sum of Mulliken charges =  -0.00000

 Dipole moment (field-independent basis, Debye):
    X=              2.1297    Y=             -0.0973    Z=              0.1327  Tot=              2.1360
 Quadrupole moment (field-independent basis, Debye-Ang):
   XX=            -13.8535   YY=             -7.8567   ZZ=             -9.5992
   XY=              0.4737   XZ=             -1.4915   YZ=             -0.0332

 Normal termination of Gaussian 16 at Fri Sep 22 17:16:51 2023.
