 Gaussian 16, Revision A.03,
 Gaussian 16:  ES64L-G16RevA.03 25-Dec-2016

 ----------
 # hf/3-21g
 ----------

 ------------------------
 tmpdir/M1_conf_169_0.gjf
 ------------------------
 Symbolic Z-matrix:
 Charge =  0 Multiplicity = 1

                         Standard orientation:
 ---------------------------------------------------------------------
 Center     Atomic      Atomic             Coordinates (Angstroms)
 Number     Number       Type             X           Y           Z
 ---------------------------------------------------------------------
      1          6           0       -0.209886   -0.081942   -0.073579
      2          1           0       -0.197979   -0.499846    0.847974
      3          1           0       -0.470073    0.988129   -0.169765
      4          1           0        0.735416   -0.565850   -0.608056
      5          1           0        1.191949    0.569218    0.371320
 ---------------------------------------------------------------------

 SCF Done:  E(RHF) =  -39.8197849862     A.U. after   11 cycles

 The electronic state is 1-A.
 Alpha  occ. eigenvalues --  -11.20720  -0.94333  -0.59835  -0.55423  -0.37751
 Alpha virt. eigenvalues --    0.13803   0.26111   0.32877   0.36131   0.88860
 Alpha virt. eigenvalues --    0.98397   1.03465   1.16806   1.26155   1.30211
 Alpha virt. eigenvalues --    1.41123   1.90672

 Mulliken charges:
               1
     1  C   -0.695171
     2  H    0.255984
     3  H    0.251738
     4  H    0.232273
     5  H   -0.044824
 Sum of Mulliken charges =   0.00000

 Dipole moment (field-independent basis, Debye):
    X=              0.2771    Y=              0.1283    Z=              0.3015  Tot=              0.4291
 Quadrupole moment (field-independent basis, Debye-Ang):
   XX=             -9.4967   YY=             -8.6646   ZZ=             -9.4767
   XY=             -1.1302   XZ=             -0.8284   YZ=             -0.5567

 Normal termination of Gaussian 16 at Fri Sep 22 17:14:40 2023.
