 Gaussian 16, Revision A.03,
 Gaussian 16:  ES64L-G16RevA.03 25-Dec-2016

 ----------
 # hf/3-21g
 ----------

 -----------------------
 tmpdir/M1_conf_68_0.gjf
 -----------------------
 Symbolic Z-matrix:
 Charge =  0 Multiplicity = 1

                         Standard orientation:
 ---------------------------------------------------------------------
 Center     Atomic      Atomic             Coordinates (Angstroms)
 Number     Number       Type             X           Y           Z
 ---------------------------------------------------------------------
      1          6           0        0.046873   -0.098296   -0.031518
      2          1           0        1.072227    0.341819   -0.341127
      3          1           0        0.003110   -0.064201    1.107144
      4          1           0       -0.608082   -0.747922   -0.431785
      5          1           0       -0.748491    1.060081   -0.145127
 ---------------------------------------------------------------------

 SCF Done:  E(RHF) =  -39.9084666511     A.U. after    9 cycles

 The electronic state is 1-A.
 Alpha  occ. eigenvalues --  -11.18944  -0.92548  -0.60410  -0.52513  -0.43585
 Alpha virt. eigenvalues --    0.23256   0.27807   0.32260   0.37473   0.91193
 Alpha virt. eigenvalues --    0.98821   1.03227   1.19238   1.25315   1.29625
 Alpha virt. eigenvalues --    1.42131   1.92574

 Mulliken charges:
               1
     1  C   -0.735067
     2  H    0.221971
     3  H    0.201252
     4  H    0.250499
     5  H    0.061346
 Sum of Mulliken charges =   0.00000

 Dipole moment (field-independent basis, Debye):
    X=              0.0705    Y=             -0.1108    Z=              0.1099  Tot=              0.1713
 Quadrupole moment (field-independent basis, Debye-Ang):
   XX=             -8.3038   YY=             -9.0682   ZZ=             -8.8349
   XY=              0.7800   XZ=             -0.0345   YZ=              0.2532

 Normal termination of Gaussian 16 at Fri Sep 22 17:12:30 2023.
