 Gaussian 16, Revision A.03,
 Gaussian 16:  ES64L-G16RevA.03 25-Dec-2016

 ----------
 # hf/3-21g
 ----------

 ------------------------
 tmpdir/M1_conf_287_0.gjf
 ------------------------
 Symbolic Z-matrix:
 Charge =  0 Multiplicity = 1

                         Standard orientation:
 ---------------------------------------------------------------------
 Center     Atomic      Atomic             Coordinates (Angstroms)
 Number     Number       Type             X           Y           Z
 ---------------------------------------------------------------------
      1          6           0        0.318145   -0.035587   -0.127751
      2          1           0        0.333897   -0.823236    0.598285
      3          1           0       -0.722156   -0.042186   -0.546221
      4          1           0        0.626427    0.947867    0.426747
      5          1           0       -2.147036    0.131077    0.287694
 ---------------------------------------------------------------------

 SCF Done:  E(RHF) =  -39.7025535964     A.U. after   14 cycles

 The electronic state is 1-A.
 Alpha  occ. eigenvalues --  -11.25335  -0.94551  -0.58957  -0.58188  -0.30483
 Alpha virt. eigenvalues --   -0.01159   0.26595   0.31700   0.35782   0.88374
 Alpha virt. eigenvalues --    0.94500   0.98286   1.17162   1.24349   1.29827
 Alpha virt. eigenvalues --    1.33325   1.73182

 Mulliken charges:
               1
     1  C   -0.526117
     2  H    0.236857
     3  H    0.249838
     4  H    0.214719
     5  H   -0.175298
 Sum of Mulliken charges =   0.00000

 Dipole moment (field-independent basis, Debye):
    X=              1.6097    Y=             -0.0558    Z=              0.5947  Tot=              1.7170
 Quadrupole moment (field-independent basis, Debye-Ang):
   XX=            -12.1168   YY=             -8.9601   ZZ=             -9.9168
   XY=              0.4299   XZ=              1.0922   YZ=             -0.0331

 Normal termination of Gaussian 16 at Fri Sep 22 17:17:01 2023.
