 Gaussian 16, Revision A.03,
 Gaussian 16:  ES64L-G16RevA.03 25-Dec-2016

 ----------
 # hf/3-21g
 ----------

 -----------------------
 tmpdir/M1_conf_40_1.gjf
 -----------------------
 Symbolic Z-matrix:
 Charge =  0 Multiplicity = 1

                         Standard orientation:
 ---------------------------------------------------------------------
 Center     Atomic      Atomic             Coordinates (Angstroms)
 Number     Number       Type             X           Y           Z
 ---------------------------------------------------------------------
      1         17           0       -0.000000   -0.000000    0.077982
      2          1           0        0.000000    0.000000   -1.325690
 ---------------------------------------------------------------------

 SCF Done:  E(RHF) =  -457.864119463     A.U. after    8 cycles

 The electronic state is 1-SG.
 Alpha  occ. eigenvalues -- -104.12145 -10.51528  -7.97913  -7.97471  -7.97471
 Alpha  occ. eigenvalues --   -1.10556  -0.59139  -0.47719  -0.47719
 Alpha virt. eigenvalues --    0.12563   0.70964   0.78389   0.78389   0.82929
 Alpha virt. eigenvalues --    1.07359

 Mulliken charges:
               1
     1  Cl  -0.225982
     2  H    0.225982
 Sum of Mulliken charges =  -0.00000

 Dipole moment (field-independent basis, Debye):
    X=              0.0000    Y=              0.0000    Z=             -1.9012  Tot=              1.9012
 Quadrupole moment (field-independent basis, Debye-Ang):
   XX=            -14.2558   YY=            -14.2558   ZZ=            -10.5591
   XY=             -0.0000   XZ=              0.0000   YZ=             -0.0000

 Normal termination of Gaussian 16 at Fri Sep 22 17:11:57 2023.
