 Gaussian 16, Revision A.03,
 Gaussian 16:  ES64L-G16RevA.03 25-Dec-2016

 ----------
 # hf/3-21g
 ----------

 -----------------------
 tmpdir/M1_conf_24_1.gjf
 -----------------------
 Symbolic Z-matrix:
 Charge =  0 Multiplicity = 1

                         Standard orientation:
 ---------------------------------------------------------------------
 Center     Atomic      Atomic             Coordinates (Angstroms)
 Number     Number       Type             X           Y           Z
 ---------------------------------------------------------------------
      1         17           0        0.000000    0.000000    0.079980
      2          1           0        0.000000    0.000000   -1.359656
 ---------------------------------------------------------------------

 SCF Done:  E(RHF) =  -457.860657619     A.U. after    8 cycles

 The electronic state is 1-SG.
 Alpha  occ. eigenvalues -- -104.12306 -10.51606  -7.97985  -7.97554  -7.97554
 Alpha  occ. eigenvalues --   -1.10028  -0.58432  -0.47651  -0.47651
 Alpha virt. eigenvalues --    0.11308   0.70886   0.78422   0.78422   0.83975
 Alpha virt. eigenvalues --    1.07042

 Mulliken charges:
               1
     1  Cl  -0.229782
     2  H    0.229782
 Sum of Mulliken charges =   0.00000

 Dipole moment (field-independent basis, Debye):
    X=             -0.0000    Y=             -0.0000    Z=             -1.9175  Tot=              1.9175
 Quadrupole moment (field-independent basis, Debye-Ang):
   XX=            -14.2985   YY=            -14.2985   ZZ=            -10.4594
   XY=              0.0000   XZ=             -0.0000   YZ=             -0.0000

 Normal termination of Gaussian 16 at Fri Sep 22 17:11:38 2023.
