 Gaussian 16, Revision A.03,
 Gaussian 16:  ES64L-G16RevA.03 25-Dec-2016

 ----------
 # hf/3-21g
 ----------

 ------------------------
 tmpdir/M1_conf_180_0.gjf
 ------------------------
 Symbolic Z-matrix:
 Charge =  0 Multiplicity = 1

                         Standard orientation:
 ---------------------------------------------------------------------
 Center     Atomic      Atomic             Coordinates (Angstroms)
 Number     Number       Type             X           Y           Z
 ---------------------------------------------------------------------
      1          6           0       -0.214534    0.018518   -0.053459
      2          1           0       -0.172855   -0.919032   -0.414361
      3          1           0       -0.231622    0.084901    1.055960
      4          1           0        0.220051    0.942314   -0.460468
      5          1           0        1.471628   -0.219291    0.139623
 ---------------------------------------------------------------------

 SCF Done:  E(RHF) =  -39.8303606050     A.U. after   11 cycles

 The electronic state is 1-A.
 Alpha  occ. eigenvalues --  -11.20797  -0.94114  -0.62135  -0.55877  -0.36868
 Alpha virt. eigenvalues --    0.12684   0.28359   0.33045   0.36811   0.90168
 Alpha virt. eigenvalues --    0.94294   1.02882   1.21045   1.27916   1.30661
 Alpha virt. eigenvalues --    1.40844   1.85449

 Mulliken charges:
               1
     1  C   -0.676086
     2  H    0.268147
     3  H    0.230751
     4  H    0.259508
     5  H   -0.082319
 Sum of Mulliken charges =   0.00000

 Dipole moment (field-independent basis, Debye):
    X=             -0.2573    Y=              0.0593    Z=              0.0503  Tot=              0.2688
 Quadrupole moment (field-independent basis, Debye-Ang):
   XX=            -10.6786   YY=             -8.0940   ZZ=             -8.7257
   XY=              0.6421   XZ=             -0.3649   YZ=              0.1157

 Normal termination of Gaussian 16 at Fri Sep 22 17:14:54 2023.
