 Gaussian 16, Revision A.03,
 Gaussian 16:  ES64L-G16RevA.03 25-Dec-2016

 ----------
 # hf/3-21g
 ----------

 -----------------------
 tmpdir/M1_conf_92_0.gjf
 -----------------------
 Symbolic Z-matrix:
 Charge =  0 Multiplicity = 1

                         Standard orientation:
 ---------------------------------------------------------------------
 Center     Atomic      Atomic             Coordinates (Angstroms)
 Number     Number       Type             X           Y           Z
 ---------------------------------------------------------------------
      1          6           0       -0.031813   -0.030891   -0.040615
      2          1           0        0.554983   -0.406890   -0.671505
      3          1           0       -0.140527   -0.658551    0.728509
      4          1           0       -1.002250    0.475358   -0.180764
      5          1           0        0.778674    0.775426    0.367452
 ---------------------------------------------------------------------

 SCF Done:  E(RHF) =  -39.9298561300     A.U. after    9 cycles

 The electronic state is 1-A.
 Alpha  occ. eigenvalues --  -11.13725  -0.96578  -0.61117  -0.54978  -0.48748
 Alpha virt. eigenvalues --    0.28427   0.31879   0.36206   0.39205   0.85448
 Alpha virt. eigenvalues --    0.92219   0.99404   1.25736   1.31369   1.44680
 Alpha virt. eigenvalues --    1.53374   1.96931

 Mulliken charges:
               1
     1  C   -0.810375
     2  H    0.244004
     3  H    0.223350
     4  H    0.205260
     5  H    0.137761
 Sum of Mulliken charges =   0.00000

 Dipole moment (field-independent basis, Debye):
    X=              0.0538    Y=             -0.1266    Z=              0.0553  Tot=              0.1482
 Quadrupole moment (field-independent basis, Debye-Ang):
   XX=             -7.8138   YY=             -8.5960   ZZ=             -8.6796
   XY=             -0.3038   XZ=             -0.2673   YZ=             -0.1171

 Normal termination of Gaussian 16 at Fri Sep 22 17:13:04 2023.
