 Gaussian 16, Revision A.03,
 Gaussian 16:  ES64L-G16RevA.03 25-Dec-2016

 ----------
 # hf/3-21g
 ----------

 -----------------------
 tmpdir/M1_conf_96_0.gjf
 -----------------------
 Symbolic Z-matrix:
 Charge =  0 Multiplicity = 1

                         Standard orientation:
 ---------------------------------------------------------------------
 Center     Atomic      Atomic             Coordinates (Angstroms)
 Number     Number       Type             X           Y           Z
 ---------------------------------------------------------------------
      1          6           0       -0.002975    0.046986   -0.009015
      2          1           0        1.086316   -0.236424   -0.480784
      3          1           0       -0.918687   -0.375294   -0.640134
      4          1           0       -0.110403    1.043539    0.277294
      5          1           0       -0.039374   -0.713736    0.897716
 ---------------------------------------------------------------------

 SCF Done:  E(RHF) =  -39.9482738450     A.U. after    9 cycles

 The electronic state is 1-A.
 Alpha  occ. eigenvalues --  -11.18028  -0.92027  -0.56855  -0.51824  -0.48825
 Alpha virt. eigenvalues --    0.26827   0.30458   0.31803   0.36009   0.92675
 Alpha virt. eigenvalues --    0.96972   1.01146   1.22410   1.26536   1.26942
 Alpha virt. eigenvalues --    1.37650   1.92512

 Mulliken charges:
               1
     1  C   -0.739475
     2  H    0.168320
     3  H    0.177332
     4  H    0.221780
     5  H    0.172043
 Sum of Mulliken charges =  -0.00000

 Dipole moment (field-independent basis, Debye):
    X=             -0.0375    Y=             -0.0259    Z=              0.1023  Tot=              0.1120
 Quadrupole moment (field-independent basis, Debye-Ang):
   XX=             -8.4200   YY=             -8.3280   ZZ=             -9.1170
   XY=             -0.0269   XZ=              0.0163   YZ=              0.1271

 Normal termination of Gaussian 16 at Fri Sep 22 17:13:09 2023.
