 Gaussian 16, Revision A.03,
 Gaussian 16:  ES64L-G16RevA.03 25-Dec-2016

 ----------
 # hf/3-21g
 ----------

 -----------------------
 tmpdir/M1_conf_70_0.gjf
 -----------------------
 Symbolic Z-matrix:
 Charge =  0 Multiplicity = 1

                         Standard orientation:
 ---------------------------------------------------------------------
 Center     Atomic      Atomic             Coordinates (Angstroms)
 Number     Number       Type             X           Y           Z
 ---------------------------------------------------------------------
      1          6           0        0.086849   -0.058545   -0.029103
      2          1           0        0.848721    0.577020   -0.347826
      3          1           0        0.099270   -0.136247    0.971525
      4          1           0       -0.421605   -0.861910   -0.409787
      5          1           0       -1.047481    0.772406   -0.039296
 ---------------------------------------------------------------------

 SCF Done:  E(RHF) =  -39.9105169653     A.U. after    9 cycles

 The electronic state is 1-A.
 Alpha  occ. eigenvalues --  -11.16286  -0.95210  -0.61688  -0.56056  -0.43731
 Alpha virt. eigenvalues --    0.23270   0.30478   0.36232   0.38012   0.85998
 Alpha virt. eigenvalues --    0.96862   1.01593   1.18655   1.32573   1.42938
 Alpha virt. eigenvalues --    1.45346   1.94744

 Mulliken charges:
               1
     1  C   -0.771690
     2  H    0.236596
     3  H    0.234526
     4  H    0.246291
     5  H    0.054277
 Sum of Mulliken charges =  -0.00000

 Dipole moment (field-independent basis, Debye):
    X=              0.1470    Y=             -0.1691    Z=              0.1657  Tot=              0.2786
 Quadrupole moment (field-independent basis, Debye-Ang):
   XX=             -8.4786   YY=             -8.5504   ZZ=             -8.7125
   XY=              0.8429   XZ=             -0.0435   YZ=              0.0478

 Normal termination of Gaussian 16 at Fri Sep 22 17:12:33 2023.
