 Gaussian 16, Revision A.03,
 Gaussian 16:  ES64L-G16RevA.03 25-Dec-2016

 ----------
 # hf/3-21g
 ----------

 ------------------------
 tmpdir/M1_conf_290_0.gjf
 ------------------------
 Symbolic Z-matrix:
 Charge =  0 Multiplicity = 1

                         Standard orientation:
 ---------------------------------------------------------------------
 Center     Atomic      Atomic             Coordinates (Angstroms)
 Number     Number       Type             X           Y           Z
 ---------------------------------------------------------------------
      1          6           0       -0.308418   -0.056433   -0.142175
      2          1           0       -0.465781    1.095700    0.355598
      3          1           0        0.720242   -0.087245   -0.514565
      4          1           0       -0.567897   -0.702198    0.701654
      5          1           0        2.163943    0.032342    0.310365
 ---------------------------------------------------------------------

 SCF Done:  E(RHF) =  -39.6879225636     A.U. after   14 cycles

 The electronic state is 1-A.
 Alpha  occ. eigenvalues --  -11.26367  -0.93634  -0.61398  -0.53849  -0.30525
 Alpha virt. eigenvalues --   -0.01564   0.24463   0.29588   0.37277   0.91156
 Alpha virt. eigenvalues --    0.94189   0.98532   1.15274   1.22747   1.26131
 Alpha virt. eigenvalues --    1.34954   1.73067

 Mulliken charges:
               1
     1  C   -0.506335
     2  H    0.180192
     3  H    0.256159
     4  H    0.236866
     5  H   -0.166882
 Sum of Mulliken charges =  -0.00000

 Dipole moment (field-independent basis, Debye):
    X=             -1.5561    Y=              0.0649    Z=              0.5826  Tot=              1.6628
 Quadrupole moment (field-independent basis, Debye-Ang):
   XX=            -12.1347   YY=             -9.2068   ZZ=             -9.8162
   XY=              0.0093   XZ=             -1.1805   YZ=             -0.1532

 Normal termination of Gaussian 16 at Fri Sep 22 17:17:04 2023.
