 Gaussian 16, Revision A.03,
 Gaussian 16:  ES64L-G16RevA.03 25-Dec-2016

 ----------
 # hf/3-21g
 ----------

 ------------------------
 tmpdir/M1_conf_149_1.gjf
 ------------------------
 Symbolic Z-matrix:
 Charge =  0 Multiplicity = 1

                         Standard orientation:
 ---------------------------------------------------------------------
 Center     Atomic      Atomic             Coordinates (Angstroms)
 Number     Number       Type             X           Y           Z
 ---------------------------------------------------------------------
      1         17           0        0.000000    0.000000    0.098684
      2          1           0       -0.000000   -0.000000   -1.677620
 ---------------------------------------------------------------------

 SCF Done:  E(RHF) =  -457.811181164     A.U. after    8 cycles

 The electronic state is 1-SG.
 Alpha  occ. eigenvalues -- -104.13100 -10.51845  -7.98189  -7.97833  -7.97833
 Alpha  occ. eigenvalues --   -1.06659  -0.52163  -0.46875  -0.46875
 Alpha virt. eigenvalues --    0.01551   0.69951   0.78952   0.78952   0.86245
 Alpha virt. eigenvalues --    1.10675

 Mulliken charges:
               1
     1  Cl  -0.246183
     2  H    0.246183
 Sum of Mulliken charges =  -0.00000

 Dipole moment (field-independent basis, Debye):
    X=             -0.0000    Y=             -0.0000    Z=             -2.1529  Tot=              2.1529
 Quadrupole moment (field-independent basis, Debye-Ang):
   XX=            -14.5901   YY=            -14.5901   ZZ=             -9.1668
   XY=              0.0000   XZ=              0.0000   YZ=              0.0000

 Normal termination of Gaussian 16 at Fri Sep 22 17:14:17 2023.
