 Gaussian 16, Revision A.03,
 Gaussian 16:  ES64L-G16RevA.03 25-Dec-2016

 ----------
 # hf/3-21g
 ----------

 -----------------------
 tmpdir/M1_conf_60_0.gjf
 -----------------------
 Symbolic Z-matrix:
 Charge =  0 Multiplicity = 1

                         Standard orientation:
 ---------------------------------------------------------------------
 Center     Atomic      Atomic             Coordinates (Angstroms)
 Number     Number       Type             X           Y           Z
 ---------------------------------------------------------------------
      1          6           0       -0.054981    0.038681   -0.001751
      2          1           0       -0.216681   -0.711114    0.735837
      3          1           0        0.013133    1.019805    0.255580
      4          1           0       -0.730825   -0.265134   -0.699536
      5          1           0        1.264260   -0.275642   -0.281374
 ---------------------------------------------------------------------

 SCF Done:  E(RHF) =  -39.9245577362     A.U. after   10 cycles

 The electronic state is 1-A.
 Alpha  occ. eigenvalues --  -11.16213  -0.94708  -0.60761  -0.54817  -0.45639
 Alpha virt. eigenvalues --    0.24053   0.31468   0.35803   0.37774   0.88207
 Alpha virt. eigenvalues --    0.91900   1.02961   1.19654   1.33679   1.36986
 Alpha virt. eigenvalues --    1.45577   1.92292

 Mulliken charges:
               1
     1  C   -0.745352
     2  H    0.211884
     3  H    0.226887
     4  H    0.221098
     5  H    0.085483
 Sum of Mulliken charges =   0.00000

 Dipole moment (field-independent basis, Debye):
    X=             -0.2987    Y=             -0.0247    Z=              0.1473  Tot=              0.3339
 Quadrupole moment (field-independent basis, Debye-Ang):
   XX=             -8.4637   YY=             -8.0886   ZZ=             -9.0311
   XY=              0.2594   XZ=              0.3099   YZ=              0.0206

 Normal termination of Gaussian 16 at Fri Sep 22 17:12:21 2023.
