 Gaussian 16, Revision A.03,
 Gaussian 16:  ES64L-G16RevA.03 25-Dec-2016

 ----------
 # hf/3-21g
 ----------

 ------------------------
 tmpdir/M1_conf_232_0.gjf
 ------------------------
 Symbolic Z-matrix:
 Charge =  0 Multiplicity = 1

                         Standard orientation:
 ---------------------------------------------------------------------
 Center     Atomic      Atomic             Coordinates (Angstroms)
 Number     Number       Type             X           Y           Z
 ---------------------------------------------------------------------
      1          6           0       -0.229065    0.032025    0.090805
      2          1           0       -0.650066   -0.784144   -0.550696
      3          1           0        0.462433   -0.188150    0.774150
      4          1           0       -0.273746    0.858438   -0.388338
      5          1           0        1.835768   -0.078294   -0.379943
 ---------------------------------------------------------------------

 SCF Done:  E(RHF) =  -39.7534850056     A.U. after   12 cycles

 The electronic state is 1-A.
 Alpha  occ. eigenvalues --  -11.22019  -0.96760  -0.65744  -0.59230  -0.31905
 Alpha virt. eigenvalues --    0.05220   0.29023   0.34449   0.37478   0.85159
 Alpha virt. eigenvalues --    0.90824   1.02198   1.17152   1.28177   1.33249
 Alpha virt. eigenvalues --    1.47263   1.77173

 Mulliken charges:
               1
     1  C   -0.584403
     2  H    0.220304
     3  H    0.284415
     4  H    0.264462
     5  H   -0.184778
 Sum of Mulliken charges =  -0.00000

 Dipole moment (field-independent basis, Debye):
    X=             -1.4562    Y=              0.0625    Z=              0.1593  Tot=              1.4663
 Quadrupole moment (field-independent basis, Debye-Ang):
   XX=            -11.2544   YY=             -8.5803   ZZ=             -9.0108
   XY=              0.1530   XZ=              1.5552   YZ=             -0.1933

 Normal termination of Gaussian 16 at Fri Sep 22 17:15:55 2023.
