 Gaussian 16, Revision A.03,
 Gaussian 16:  ES64L-G16RevA.03 25-Dec-2016

 ----------
 # hf/3-21g
 ----------

 -----------------------
 tmpdir/M1_conf_59_0.gjf
 -----------------------
 Symbolic Z-matrix:
 Charge =  0 Multiplicity = 1

                         Standard orientation:
 ---------------------------------------------------------------------
 Center     Atomic      Atomic             Coordinates (Angstroms)
 Number     Number       Type             X           Y           Z
 ---------------------------------------------------------------------
      1          6           0       -0.049819    0.033825   -0.012058
      2          1           0       -0.229637   -0.807277    0.700285
      3          1           0       -0.075865    1.068656    0.315878
      4          1           0       -0.682902   -0.255579   -0.708630
      5          1           0        1.287316   -0.208753   -0.235182
 ---------------------------------------------------------------------

 SCF Done:  E(RHF) =  -39.9216497583     A.U. after    9 cycles

 The electronic state is 1-A.
 Alpha  occ. eigenvalues --  -11.17123  -0.93970  -0.59282  -0.54128  -0.45720
 Alpha virt. eigenvalues --    0.24199   0.29912   0.35095   0.37282   0.87906
 Alpha virt. eigenvalues --    0.96049   1.03246   1.19535   1.28771   1.33614
 Alpha virt. eigenvalues --    1.45648   1.91162

 Mulliken charges:
               1
     1  C   -0.736862
     2  H    0.194644
     3  H    0.212695
     4  H    0.231285
     5  H    0.098238
 Sum of Mulliken charges =   0.00000

 Dipole moment (field-independent basis, Debye):
    X=             -0.2854    Y=             -0.0620    Z=              0.0766  Tot=              0.3019
 Quadrupole moment (field-independent basis, Debye-Ang):
   XX=             -8.4829   YY=             -8.0521   ZZ=             -9.1836
   XY=              0.1745   XZ=              0.3135   YZ=              0.1030

 Normal termination of Gaussian 16 at Fri Sep 22 17:12:20 2023.
