 Gaussian 16, Revision A.03,
 Gaussian 16:  ES64L-G16RevA.03 25-Dec-2016

 ----------
 # hf/3-21g
 ----------

 ------------------------
 tmpdir/M1_conf_224_0.gjf
 ------------------------
 Symbolic Z-matrix:
 Charge =  0 Multiplicity = 1

                         Standard orientation:
 ---------------------------------------------------------------------
 Center     Atomic      Atomic             Coordinates (Angstroms)
 Number     Number       Type             X           Y           Z
 ---------------------------------------------------------------------
      1          6           0        0.244284    0.001152    0.091928
      2          1           0        0.257317    0.966041   -0.378543
      3          1           0       -0.537859   -0.111434    0.737076
      4          1           0        0.565315   -0.785162   -0.532863
      5          1           0       -1.750479   -0.076357   -0.377237
 ---------------------------------------------------------------------

 SCF Done:  E(RHF) =  -39.7721450082     A.U. after   12 cycles

 The electronic state is 1-A.
 Alpha  occ. eigenvalues --  -11.22172  -0.95540  -0.62761  -0.59542  -0.32704
 Alpha virt. eigenvalues --    0.05667   0.29406   0.33877   0.36595   0.87910
 Alpha virt. eigenvalues --    0.89833   1.02421   1.19278   1.27094   1.33848
 Alpha virt. eigenvalues --    1.40487   1.74518

 Mulliken charges:
               1
     1  C   -0.592949
     2  H    0.240574
     3  H    0.279362
     4  H    0.242639
     5  H   -0.169625
 Sum of Mulliken charges =  -0.00000

 Dipole moment (field-independent basis, Debye):
    X=              1.1105    Y=              0.0632    Z=              0.0179  Tot=              1.1124
 Quadrupole moment (field-independent basis, Debye-Ang):
   XX=            -10.9608   YY=             -8.5067   ZZ=             -9.3412
   XY=             -0.2577   XZ=             -1.5110   YZ=             -0.0319

 Normal termination of Gaussian 16 at Fri Sep 22 17:15:46 2023.
