 Gaussian 16, Revision A.03,
 Gaussian 16:  ES64L-G16RevA.03 25-Dec-2016

 ----------
 # hf/3-21g
 ----------

 -----------------------
 tmpdir/M1_conf_99_1.gjf
 -----------------------
 Symbolic Z-matrix:
 Charge =  0 Multiplicity = 1

                         Standard orientation:
 ---------------------------------------------------------------------
 Center     Atomic      Atomic             Coordinates (Angstroms)
 Number     Number       Type             X           Y           Z
 ---------------------------------------------------------------------
      1         17           0       -0.000000   -0.000000    0.076501
      2          1           0        0.000000    0.000000   -1.300522
 ---------------------------------------------------------------------

 SCF Done:  E(RHF) =  -457.866227569     A.U. after    8 cycles

 The electronic state is 1-SG.
 Alpha  occ. eigenvalues -- -104.12019 -10.51466  -7.97855  -7.97404  -7.97404
 Alpha  occ. eigenvalues --   -1.10977  -0.59665  -0.47767  -0.47767
 Alpha virt. eigenvalues --    0.13516   0.71005   0.78367   0.78367   0.82005
 Alpha virt. eigenvalues --    1.07808

 Mulliken charges:
               1
     1  Cl  -0.222736
     2  H    0.222736
 Sum of Mulliken charges =   0.00000

 Dipole moment (field-independent basis, Debye):
    X=              0.0000    Y=              0.0000    Z=             -1.8897  Tot=              1.8897
 Quadrupole moment (field-independent basis, Debye-Ang):
   XX=            -14.2229   YY=            -14.2229   ZZ=            -10.6280
   XY=              0.0000   XZ=             -0.0000   YZ=              0.0000

 Normal termination of Gaussian 16 at Fri Sep 22 17:13:12 2023.
