 Gaussian 16, Revision A.03,
 Gaussian 16:  ES64L-G16RevA.03 25-Dec-2016

 ----------
 # hf/3-21g
 ----------

 -----------------------
 tmpdir/M1_conf_55_0.gjf
 -----------------------
 Symbolic Z-matrix:
 Charge =  0 Multiplicity = 1

                         Standard orientation:
 ---------------------------------------------------------------------
 Center     Atomic      Atomic             Coordinates (Angstroms)
 Number     Number       Type             X           Y           Z
 ---------------------------------------------------------------------
      1          6           0       -0.026527    0.014174    0.003965
      2          1           0        0.158242   -0.650397    0.872383
      3          1           0       -0.430985    1.081442    0.204145
      4          1           0       -0.799007   -0.594369   -0.642863
      5          1           0        1.230911    0.078281   -0.457454
 ---------------------------------------------------------------------

 SCF Done:  E(RHF) =  -39.9325062450     A.U. after    9 cycles

 The electronic state is 1-A.
 Alpha  occ. eigenvalues --  -11.19587  -0.90838  -0.55199  -0.52150  -0.47329
 Alpha virt. eigenvalues --    0.24179   0.29550   0.32025   0.34423   0.94207
 Alpha virt. eigenvalues --    0.98092   1.04854   1.18553   1.24591   1.27562
 Alpha virt. eigenvalues --    1.32550   1.88931

 Mulliken charges:
               1
     1  C   -0.709872
     2  H    0.206792
     3  H    0.195393
     4  H    0.183370
     5  H    0.124317
 Sum of Mulliken charges =   0.00000

 Dipole moment (field-independent basis, Debye):
    X=             -0.1248    Y=             -0.0881    Z=              0.1766  Tot=              0.2335
 Quadrupole moment (field-independent basis, Debye-Ang):
   XX=             -8.4301   YY=             -8.4160   ZZ=             -9.2745
   XY=             -0.0871   XZ=              0.1915   YZ=             -0.0367

 Normal termination of Gaussian 16 at Fri Sep 22 17:12:15 2023.
