 Gaussian 16, Revision A.03,
 Gaussian 16:  ES64L-G16RevA.03 25-Dec-2016

 ----------
 # hf/3-21g
 ----------

 -----------------------
 tmpdir/M1_conf_13_0.gjf
 -----------------------
 Symbolic Z-matrix:
 Charge =  0 Multiplicity = 1

                         Standard orientation:
 ---------------------------------------------------------------------
 Center     Atomic      Atomic             Coordinates (Angstroms)
 Number     Number       Type             X           Y           Z
 ---------------------------------------------------------------------
      1          6           0        0.033383   -0.047163    0.003115
      2          1           0        0.629621   -0.203681    0.830079
      3          1           0        0.113156   -0.717891   -0.748228
      4          1           0        0.318145    1.100519   -0.357990
      5          1           0       -1.261222    0.104028    0.257449
 ---------------------------------------------------------------------

 SCF Done:  E(RHF) =  -39.9307440606     A.U. after    9 cycles

 The electronic state is 1-A.
 Alpha  occ. eigenvalues --  -11.17627  -0.93224  -0.59013  -0.52574  -0.47108
 Alpha virt. eigenvalues --    0.25463   0.28567   0.34468   0.37447   0.88940
 Alpha virt. eigenvalues --    0.94761   1.03929   1.19440   1.23894   1.36310
 Alpha virt. eigenvalues --    1.42751   1.92783

 Mulliken charges:
               1
     1  C   -0.722856
     2  H    0.222395
     3  H    0.227374
     4  H    0.150763
     5  H    0.122325
 Sum of Mulliken charges =  -0.00000

 Dipole moment (field-independent basis, Debye):
    X=              0.1816    Y=             -0.0703    Z=             -0.0330  Tot=              0.1975
 Quadrupole moment (field-independent basis, Debye-Ang):
   XX=             -8.5194   YY=             -8.5887   ZZ=             -8.6756
   XY=             -0.1005   XZ=              0.2550   YZ=              0.2092

 Normal termination of Gaussian 16 at Fri Sep 22 17:11:25 2023.
