 Gaussian 16, Revision A.03,
 Gaussian 16:  ES64L-G16RevA.03 25-Dec-2016

 ----------
 # hf/3-21g
 ----------

 -----------------------
 tmpdir/M1_conf_75_0.gjf
 -----------------------
 Symbolic Z-matrix:
 Charge =  0 Multiplicity = 1

                         Standard orientation:
 ---------------------------------------------------------------------
 Center     Atomic      Atomic             Coordinates (Angstroms)
 Number     Number       Type             X           Y           Z
 ---------------------------------------------------------------------
      1          6           0        0.061230    0.013396    0.008086
      2          1           0        1.048708   -0.488235   -0.339734
      3          1           0       -0.079218    1.168816   -0.155896
      4          1           0       -0.272534   -0.265507    1.031622
      5          1           0       -1.064335   -0.495451   -0.584510
 ---------------------------------------------------------------------

 SCF Done:  E(RHF) =  -39.9263267461     A.U. after    9 cycles

 The electronic state is 1-A.
 Alpha  occ. eigenvalues --  -11.19963  -0.90666  -0.55130  -0.53455  -0.45664
 Alpha virt. eigenvalues --    0.23879   0.28269   0.32982   0.33759   0.94506
 Alpha virt. eigenvalues --    0.99183   1.02649   1.19918   1.22605   1.28613
 Alpha virt. eigenvalues --    1.32054   1.89623

 Mulliken charges:
               1
     1  C   -0.705535
     2  H    0.201074
     3  H    0.193484
     4  H    0.210342
     5  H    0.100636
 Sum of Mulliken charges =  -0.00000

 Dipole moment (field-independent basis, Debye):
    X=              0.0612    Y=              0.0500    Z=              0.2059  Tot=              0.2205
 Quadrupole moment (field-independent basis, Debye-Ang):
   XX=             -8.4111   YY=             -8.6459   ZZ=             -9.1772
   XY=             -0.2874   XZ=             -0.3803   YZ=             -0.1659

 Normal termination of Gaussian 16 at Fri Sep 22 17:12:44 2023.
