 Gaussian 16, Revision A.03,
 Gaussian 16:  ES64L-G16RevA.03 25-Dec-2016

 ----------
 # hf/3-21g
 ----------

 -----------------------
 tmpdir/M1_conf_17_0.gjf
 -----------------------
 Symbolic Z-matrix:
 Charge =  0 Multiplicity = 1

                         Standard orientation:
 ---------------------------------------------------------------------
 Center     Atomic      Atomic             Coordinates (Angstroms)
 Number     Number       Type             X           Y           Z
 ---------------------------------------------------------------------
      1          6           0        0.016127   -0.052346   -0.003985
      2          1           0       -0.828287   -0.289248   -0.698642
      3          1           0        1.085740   -0.506321   -0.058305
      4          1           0       -0.557504   -0.117822    0.885557
      5          1           0        0.203289    1.227469   -0.104700
 ---------------------------------------------------------------------

 SCF Done:  E(RHF) =  -39.9371737226     A.U. after    9 cycles

 The electronic state is 1-A.
 Alpha  occ. eigenvalues --  -11.18030  -0.92459  -0.57317  -0.52044  -0.47658
 Alpha virt. eigenvalues --    0.26140   0.28902   0.33867   0.35274   0.90372
 Alpha virt. eigenvalues --    1.00190   1.02357   1.21235   1.24524   1.31126
 Alpha virt. eigenvalues --    1.38894   1.91652

 Mulliken charges:
               1
     1  C   -0.751466
     2  H    0.204020
     3  H    0.203000
     4  H    0.219838
     5  H    0.124607
 Sum of Mulliken charges =  -0.00000

 Dipole moment (field-independent basis, Debye):
    X=             -0.1439    Y=             -0.0927    Z=              0.1115  Tot=              0.2043
 Quadrupole moment (field-independent basis, Debye-Ang):
   XX=             -7.7702   YY=             -8.9584   ZZ=             -9.1472
   XY=             -0.1014   XZ=             -0.0550   YZ=              0.0472

 Normal termination of Gaussian 16 at Fri Sep 22 17:11:30 2023.
