 Gaussian 16, Revision A.03,
 Gaussian 16:  ES64L-G16RevA.03 25-Dec-2016

 ----------
 # hf/3-21g
 ----------

 ------------------------
 tmpdir/M1_conf_211_0.gjf
 ------------------------
 Symbolic Z-matrix:
 Charge =  0 Multiplicity = 1

                         Standard orientation:
 ---------------------------------------------------------------------
 Center     Atomic      Atomic             Coordinates (Angstroms)
 Number     Number       Type             X           Y           Z
 ---------------------------------------------------------------------
      1          6           0        0.265666    0.067135   -0.002570
      2          1           0        0.145165   -0.744814   -0.753085
      3          1           0       -0.273136    0.956336   -0.194974
      4          1           0        0.231347   -0.404637    0.879108
      5          1           0       -1.697374   -0.209694    0.084374
 ---------------------------------------------------------------------

 SCF Done:  E(RHF) =  -39.7785809715     A.U. after   11 cycles

 The electronic state is 1-A.
 Alpha  occ. eigenvalues --  -11.21910  -0.95408  -0.62712  -0.57179  -0.33922
 Alpha virt. eigenvalues --    0.06485   0.29072   0.33329   0.36152   0.87129
 Alpha virt. eigenvalues --    0.92216   1.02858   1.23725   1.28263   1.31198
 Alpha virt. eigenvalues --    1.40796   1.78766

 Mulliken charges:
               1
     1  C   -0.624725
     2  H    0.236129
     3  H    0.271491
     4  H    0.263347
     5  H   -0.146243
 Sum of Mulliken charges =  -0.00000

 Dipole moment (field-independent basis, Debye):
    X=              0.6958    Y=             -0.0524    Z=              0.0023  Tot=              0.6977
 Quadrupole moment (field-independent basis, Debye-Ang):
   XX=            -11.3062   YY=             -8.3176   ZZ=             -8.8112
   XY=             -0.8139   XZ=              0.3549   YZ=             -0.0871

 Normal termination of Gaussian 16 at Fri Sep 22 17:15:30 2023.
