 Gaussian 16, Revision A.03,
 Gaussian 16:  ES64L-G16RevA.03 25-Dec-2016

 ----------
 # hf/3-21g
 ----------

 ------------------------
 tmpdir/M1_conf_217_0.gjf
 ------------------------
 Symbolic Z-matrix:
 Charge =  0 Multiplicity = 1

                         Standard orientation:
 ---------------------------------------------------------------------
 Center     Atomic      Atomic             Coordinates (Angstroms)
 Number     Number       Type             X           Y           Z
 ---------------------------------------------------------------------
      1          6           0       -0.300475   -0.066164    0.072694
      2          1           0       -0.041941   -0.923240   -0.429385
      3          1           0        0.556991    0.209919    0.804193
      4          1           0       -0.393312    1.032321   -0.495778
      5          1           0        1.681109    0.077982   -0.315194
 ---------------------------------------------------------------------

 SCF Done:  E(RHF) =  -39.7389574738     A.U. after   12 cycles

 The electronic state is 1-A.
 Alpha  occ. eigenvalues --  -11.24183  -0.93413  -0.60487  -0.52840  -0.34167
 Alpha virt. eigenvalues --    0.04424   0.25291   0.30498   0.34801   0.89871
 Alpha virt. eigenvalues --    0.97710   1.01916   1.17969   1.24569   1.28260
 Alpha virt. eigenvalues --    1.34509   1.75879

 Mulliken charges:
               1
     1  C   -0.576195
     2  H    0.263533
     3  H    0.239667
     4  H    0.204757
     5  H   -0.131762
 Sum of Mulliken charges =  -0.00000

 Dipole moment (field-independent basis, Debye):
    X=             -0.3081    Y=              0.0867    Z=             -0.2454  Tot=              0.4033
 Quadrupole moment (field-independent basis, Debye-Ang):
   XX=            -11.0212   YY=             -8.3322   ZZ=             -9.9433
   XY=             -0.1547   XZ=              1.0697   YZ=              0.2618

 Normal termination of Gaussian 16 at Fri Sep 22 17:15:38 2023.
