 Gaussian 16, Revision A.03,
 Gaussian 16:  ES64L-G16RevA.03 25-Dec-2016

 ----------
 # hf/3-21g
 ----------

 ------------------------
 tmpdir/M1_conf_216_0.gjf
 ------------------------
 Symbolic Z-matrix:
 Charge =  0 Multiplicity = 1

                         Standard orientation:
 ---------------------------------------------------------------------
 Center     Atomic      Atomic             Coordinates (Angstroms)
 Number     Number       Type             X           Y           Z
 ---------------------------------------------------------------------
      1          6           0       -0.298167   -0.057926    0.071350
      2          1           0       -0.037942   -0.922332   -0.431509
      3          1           0        0.502654    0.205073    0.814383
      4          1           0       -0.359109    0.995939   -0.522454
      5          1           0        1.683398    0.068876   -0.288522
 ---------------------------------------------------------------------

 SCF Done:  E(RHF) =  -39.7477694901     A.U. after   12 cycles

 The electronic state is 1-A.
 Alpha  occ. eigenvalues --  -11.23690  -0.93933  -0.60572  -0.53909  -0.34183
 Alpha virt. eigenvalues --    0.04455   0.26325   0.31585   0.34720   0.89271
 Alpha virt. eigenvalues --    0.96005   1.02141   1.19329   1.25209   1.30345
 Alpha virt. eigenvalues --    1.34272   1.76493

 Mulliken charges:
               1
     1  C   -0.588363
     2  H    0.262405
     3  H    0.248873
     4  H    0.210108
     5  H   -0.133023
 Sum of Mulliken charges =  -0.00000

 Dipole moment (field-independent basis, Debye):
    X=             -0.3313    Y=              0.0800    Z=             -0.2000  Tot=              0.3952
 Quadrupole moment (field-independent basis, Debye-Ang):
   XX=            -11.0863   YY=             -8.3698   ZZ=             -9.7193
   XY=             -0.1475   XZ=              1.0055   YZ=              0.2348

 Normal termination of Gaussian 16 at Fri Sep 22 17:15:36 2023.
