 Gaussian 16, Revision A.03,
 Gaussian 16:  ES64L-G16RevA.03 25-Dec-2016

 ----------
 # hf/3-21g
 ----------

 ------------------------
 tmpdir/M1_conf_146_0.gjf
 ------------------------
 Symbolic Z-matrix:
 Charge =  0 Multiplicity = 1

                         Standard orientation:
 ---------------------------------------------------------------------
 Center     Atomic      Atomic             Coordinates (Angstroms)
 Number     Number       Type             X           Y           Z
 ---------------------------------------------------------------------
      1          6           0       -0.142791    0.028259    0.090338
      2          1           0        0.071488    1.103425   -0.408436
      3          1           0       -0.892956   -0.627919   -0.290602
      4          1           0        0.652710   -0.123771    0.842058
      5          1           0        1.025506   -0.521292   -0.685047
 ---------------------------------------------------------------------

 SCF Done:  E(RHF) =  -39.8669830276     A.U. after   10 cycles

 The electronic state is 1-A.
 Alpha  occ. eigenvalues --  -11.20761  -0.92036  -0.60757  -0.52869  -0.39813
 Alpha virt. eigenvalues --    0.18933   0.26211   0.31545   0.36216   0.95088
 Alpha virt. eigenvalues --    0.97024   1.03294   1.17489   1.24553   1.29565
 Alpha virt. eigenvalues --    1.36489   1.89299

 Mulliken charges:
               1
     1  C   -0.710889
     2  H    0.205091
     3  H    0.251423
     4  H    0.254202
     5  H    0.000173
 Sum of Mulliken charges =  -0.00000

 Dipole moment (field-independent basis, Debye):
    X=              0.0736    Y=             -0.0090    Z=              0.0109  Tot=              0.0749
 Quadrupole moment (field-independent basis, Debye-Ang):
   XX=             -8.5741   YY=             -8.7635   ZZ=             -9.6251
   XY=              0.7435   XZ=              1.0350   YZ=             -0.4089

 Normal termination of Gaussian 16 at Fri Sep 22 17:14:13 2023.
