 Gaussian 16, Revision A.03,
 Gaussian 16:  ES64L-G16RevA.03 25-Dec-2016

 ----------
 # hf/3-21g
 ----------

 ------------------------
 tmpdir/M1_conf_124_1.gjf
 ------------------------
 Symbolic Z-matrix:
 Charge =  0 Multiplicity = 1

                         Standard orientation:
 ---------------------------------------------------------------------
 Center     Atomic      Atomic             Coordinates (Angstroms)
 Number     Number       Type             X           Y           Z
 ---------------------------------------------------------------------
      1         17           0        0.000000   -0.000000    0.091713
      2          1           0       -0.000000    0.000000   -1.559122
 ---------------------------------------------------------------------

 SCF Done:  E(RHF) =  -457.831713072     A.U. after    8 cycles

 The electronic state is 1-SG.
 Alpha  occ. eigenvalues -- -104.12964 -10.51866  -7.98219  -7.97841  -7.97841
 Alpha  occ. eigenvalues --   -1.07658  -0.54395  -0.47190  -0.47190
 Alpha virt. eigenvalues --    0.04765   0.70286   0.78711   0.78711   0.86167
 Alpha virt. eigenvalues --    1.09221

 Mulliken charges:
               1
     1  Cl  -0.242496
     2  H    0.242496
 Sum of Mulliken charges =   0.00000

 Dipole moment (field-independent basis, Debye):
    X=             -0.0000    Y=              0.0000    Z=             -2.0452  Tot=              2.0452
 Quadrupole moment (field-independent basis, Debye-Ang):
   XX=            -14.5042   YY=            -14.5042   ZZ=             -9.7200
   XY=             -0.0000   XZ=             -0.0000   YZ=              0.0000

 Normal termination of Gaussian 16 at Fri Sep 22 17:13:42 2023.
