 Gaussian 16, Revision A.03,
 Gaussian 16:  ES64L-G16RevA.03 25-Dec-2016

 ----------
 # hf/3-21g
 ----------

 ------------------------
 tmpdir/M1_conf_281_1.gjf
 ------------------------
 Symbolic Z-matrix:
 Charge =  0 Multiplicity = 1

                         Standard orientation:
 ---------------------------------------------------------------------
 Center     Atomic      Atomic             Coordinates (Angstroms)
 Number     Number       Type             X           Y           Z
 ---------------------------------------------------------------------
      1         17           0        0.000000    0.000000    0.161891
      2          1           0       -0.000000   -0.000000   -2.752143
 ---------------------------------------------------------------------

 SCF Done:  E(RHF) =  -457.650370903     A.U. after   10 cycles

 The electronic state is 1-SG.
 Alpha  occ. eigenvalues -- -104.10689 -10.49325  -7.95654  -7.95350  -7.95350
 Alpha  occ. eigenvalues --   -1.02414  -0.44222  -0.44222  -0.39113
 Alpha virt. eigenvalues --   -0.14219   0.67992   0.81386   0.81386   0.81635
 Alpha virt. eigenvalues --    1.08947

 Mulliken charges:
               1
     1  Cl  -0.280086
     2  H    0.280086
 Sum of Mulliken charges =  -0.00000

 Dipole moment (field-independent basis, Debye):
    X=             -0.0000    Y=             -0.0000    Z=             -3.8280  Tot=              3.8280
 Quadrupole moment (field-independent basis, Debye-Ang):
   XX=            -14.8124   YY=            -14.8124   ZZ=             -2.1582
   XY=              0.0000   XZ=              0.0000   YZ=              0.0000

 Normal termination of Gaussian 16 at Fri Sep 22 17:16:53 2023.
