 Gaussian 16, Revision A.03,
 Gaussian 16:  ES64L-G16RevA.03 25-Dec-2016

 ----------
 # hf/3-21g
 ----------

 ------------------------
 tmpdir/M1_conf_249_0.gjf
 ------------------------
 Symbolic Z-matrix:
 Charge =  0 Multiplicity = 1

                         Standard orientation:
 ---------------------------------------------------------------------
 Center     Atomic      Atomic             Coordinates (Angstroms)
 Number     Number       Type             X           Y           Z
 ---------------------------------------------------------------------
      1          6           0       -0.297245   -0.096958   -0.056491
      2          1           0       -0.186472    0.880557   -0.682002
      3          1           0        0.498710   -0.869564   -0.240658
      4          1           0       -0.537866    0.283383    1.037546
      5          1           0        2.009101    0.287372    0.224058
 ---------------------------------------------------------------------

 SCF Done:  E(RHF) =  -39.7253883140     A.U. after   12 cycles

 The electronic state is 1-A.
 Alpha  occ. eigenvalues --  -11.26517  -0.92149  -0.59818  -0.55547  -0.30716
 Alpha virt. eigenvalues --    0.01482   0.25256   0.29304   0.32679   0.93190
 Alpha virt. eigenvalues --    0.96348   1.00127   1.13009   1.23017   1.28228
 Alpha virt. eigenvalues --    1.29662   1.70431

 Mulliken charges:
               1
     1  C   -0.547333
     2  H    0.236470
     3  H    0.277276
     4  H    0.229517
     5  H   -0.195931
 Sum of Mulliken charges =   0.00000

 Dipole moment (field-independent basis, Debye):
    X=             -1.3833    Y=              0.0890    Z=             -0.0120  Tot=              1.3863
 Quadrupole moment (field-independent basis, Debye-Ang):
   XX=            -12.5903   YY=             -8.8494   ZZ=             -9.0805
   XY=             -1.3278   XZ=             -0.9335   YZ=             -0.0609

 Normal termination of Gaussian 16 at Fri Sep 22 17:16:15 2023.
