 Gaussian 16, Revision A.03,
 Gaussian 16:  ES64L-G16RevA.03 25-Dec-2016

 ----------
 # hf/3-21g
 ----------

 -----------------------
 tmpdir/M1_conf_74_0.gjf
 -----------------------
 Symbolic Z-matrix:
 Charge =  0 Multiplicity = 1

                         Standard orientation:
 ---------------------------------------------------------------------
 Center     Atomic      Atomic             Coordinates (Angstroms)
 Number     Number       Type             X           Y           Z
 ---------------------------------------------------------------------
      1          6           0        0.075487    0.005949    0.013934
      2          1           0        0.951205   -0.626581   -0.155327
      3          1           0        0.064415    1.035749   -0.434385
      4          1           0       -0.393089    0.070591    1.045942
      5          1           0       -1.075455   -0.515451   -0.539833
 ---------------------------------------------------------------------

 SCF Done:  E(RHF) =  -39.9305368376     A.U. after    9 cycles

 The electronic state is 1-A.
 Alpha  occ. eigenvalues --  -11.19047  -0.91599  -0.57381  -0.53658  -0.45114
 Alpha virt. eigenvalues --    0.24029   0.28942   0.33508   0.35119   0.94219
 Alpha virt. eigenvalues --    0.95803   1.01854   1.19968   1.26128   1.30699
 Alpha virt. eigenvalues --    1.34444   1.90990

 Mulliken charges:
               1
     1  C   -0.718891
     2  H    0.216374
     3  H    0.206742
     4  H    0.204982
     5  H    0.090793
 Sum of Mulliken charges =  -0.00000

 Dipole moment (field-independent basis, Debye):
    X=              0.0872    Y=              0.1288    Z=              0.1369  Tot=              0.2072
 Quadrupole moment (field-independent basis, Debye-Ang):
   XX=             -8.3973   YY=             -8.7002   ZZ=             -9.0167
   XY=             -0.4163   XZ=             -0.3855   YZ=             -0.1813

 Normal termination of Gaussian 16 at Fri Sep 22 17:12:43 2023.
