 Gaussian 16, Revision A.03,
 Gaussian 16:  ES64L-G16RevA.03 25-Dec-2016

 ----------
 # hf/3-21g
 ----------

 ------------------------
 tmpdir/M1_conf_148_0.gjf
 ------------------------
 Symbolic Z-matrix:
 Charge =  0 Multiplicity = 1

                         Standard orientation:
 ---------------------------------------------------------------------
 Center     Atomic      Atomic             Coordinates (Angstroms)
 Number     Number       Type             X           Y           Z
 ---------------------------------------------------------------------
      1          6           0        0.136608   -0.029428   -0.087632
      2          1           0        0.118468    1.121051   -0.171986
      3          1           0        0.832105   -0.508560    0.527048
      4          1           0       -0.764971   -0.514909   -0.727200
      5          1           0       -1.005249    0.078988    0.897930
 ---------------------------------------------------------------------

 SCF Done:  E(RHF) =  -39.8706936626     A.U. after   10 cycles

 The electronic state is 1-A.
 Alpha  occ. eigenvalues --  -11.21022  -0.91490  -0.59584  -0.53428  -0.39890
 Alpha virt. eigenvalues --    0.19197   0.25615   0.31795   0.36013   0.93990
 Alpha virt. eigenvalues --    0.98723   1.02668   1.17874   1.24654   1.27229
 Alpha virt. eigenvalues --    1.36312   1.89437

 Mulliken charges:
               1
     1  C   -0.698057
     2  H    0.222321
     3  H    0.249208
     4  H    0.222978
     5  H    0.003550
 Sum of Mulliken charges =  -0.00000

 Dipole moment (field-independent basis, Debye):
    X=             -0.0126    Y=              0.0279    Z=             -0.0229  Tot=              0.0382
 Quadrupole moment (field-independent basis, Debye-Ang):
   XX=             -8.5933   YY=             -8.5392   ZZ=             -9.7697
   XY=             -0.0140   XZ=              1.1640   YZ=             -0.1771

 Normal termination of Gaussian 16 at Fri Sep 22 17:14:16 2023.
