 Gaussian 16, Revision A.03,
 Gaussian 16:  ES64L-G16RevA.03 25-Dec-2016

 ----------
 # hf/3-21g
 ----------

 -----------------------
 tmpdir/M1_conf_85_1.gjf
 -----------------------
 Symbolic Z-matrix:
 Charge =  0 Multiplicity = 1

                         Standard orientation:
 ---------------------------------------------------------------------
 Center     Atomic      Atomic             Coordinates (Angstroms)
 Number     Number       Type             X           Y           Z
 ---------------------------------------------------------------------
      1         17           0        0.000000   -0.000000    0.082995
      2          1           0       -0.000000    0.000000   -1.410917
 ---------------------------------------------------------------------

 SCF Done:  E(RHF) =  -457.854370394     A.U. after    8 cycles

 The electronic state is 1-SG.
 Alpha  occ. eigenvalues -- -104.12525 -10.51708  -7.98078  -7.97663  -7.97663
 Alpha  occ. eigenvalues --   -1.09311  -0.57371  -0.47543  -0.47543
 Alpha virt. eigenvalues --    0.09487   0.70742   0.78481   0.78481   0.85098
 Alpha virt. eigenvalues --    1.07117

 Mulliken charges:
               1
     1  Cl  -0.234402
     2  H    0.234402
 Sum of Mulliken charges =  -0.00000

 Dipole moment (field-independent basis, Debye):
    X=             -0.0000    Y=              0.0000    Z=             -1.9447  Tot=              1.9447
 Quadrupole moment (field-independent basis, Debye-Ang):
   XX=            -14.3589   YY=            -14.3589   ZZ=            -10.2941
   XY=             -0.0000   XZ=              0.0000   YZ=              0.0000

 Normal termination of Gaussian 16 at Fri Sep 22 17:12:56 2023.
