 Gaussian 16, Revision A.03,
 Gaussian 16:  ES64L-G16RevA.03 25-Dec-2016

 ----------
 # hf/3-21g
 ----------

 ------------------------
 tmpdir/M1_conf_191_0.gjf
 ------------------------
 Symbolic Z-matrix:
 Charge =  0 Multiplicity = 1

                         Standard orientation:
 ---------------------------------------------------------------------
 Center     Atomic      Atomic             Coordinates (Angstroms)
 Number     Number       Type             X           Y           Z
 ---------------------------------------------------------------------
      1          6           0        0.284321    0.058263   -0.038243
      2          1           0       -0.073915   -0.715250   -0.678923
      3          1           0       -0.345011    0.934953   -0.113078
      4          1           0        0.261683   -0.392917    0.860576
      5          1           0       -1.548679   -0.176363    0.160882
 ---------------------------------------------------------------------

 SCF Done:  E(RHF) =  -39.7737332054     A.U. after   11 cycles

 The electronic state is 1-A.
 Alpha  occ. eigenvalues --  -11.20772  -0.96725  -0.60437  -0.57393  -0.35793
 Alpha virt. eigenvalues --    0.06745   0.30055   0.33886   0.35718   0.86206
 Alpha virt. eigenvalues --    0.90859   1.02940   1.22049   1.32633   1.35030
 Alpha virt. eigenvalues --    1.40747   1.84586

 Mulliken charges:
               1
     1  C   -0.652446
     2  H    0.245552
     3  H    0.257229
     4  H    0.252775
     5  H   -0.103110
 Sum of Mulliken charges =  -0.00000

 Dipole moment (field-independent basis, Debye):
    X=              0.0044    Y=             -0.1932    Z=              0.1579  Tot=              0.2495
 Quadrupole moment (field-independent basis, Debye-Ang):
   XX=            -10.6653   YY=             -8.5425   ZZ=             -9.1118
   XY=             -0.6547   XZ=              0.5697   YZ=              0.0380

 Normal termination of Gaussian 16 at Fri Sep 22 17:15:07 2023.
