 Gaussian 16, Revision A.03,
 Gaussian 16:  ES64L-G16RevA.03 25-Dec-2016

 ----------
 # hf/3-21g
 ----------

 ------------------------
 tmpdir/M1_conf_228_0.gjf
 ------------------------
 Symbolic Z-matrix:
 Charge =  0 Multiplicity = 1

                         Standard orientation:
 ---------------------------------------------------------------------
 Center     Atomic      Atomic             Coordinates (Angstroms)
 Number     Number       Type             X           Y           Z
 ---------------------------------------------------------------------
      1          6           0        0.210397   -0.086944   -0.079112
      2          1           0        0.515535   -0.372861    0.898967
      3          1           0       -0.703782   -0.596454   -0.574541
      4          1           0        0.671103    1.028131   -0.209290
      5          1           0       -1.745239    0.462846    0.359536
 ---------------------------------------------------------------------

 SCF Done:  E(RHF) =  -39.7614516449     A.U. after   12 cycles

 The electronic state is 1-A.
 Alpha  occ. eigenvalues --  -11.25129  -0.92011  -0.60492  -0.55607  -0.32330
 Alpha virt. eigenvalues --    0.06623   0.23709   0.31496   0.33508   0.90291
 Alpha virt. eigenvalues --    1.00527   1.03295   1.14157   1.24731   1.27003
 Alpha virt. eigenvalues --    1.33046   1.70428

 Mulliken charges:
               1
     1  C   -0.577746
     2  H    0.244181
     3  H    0.287005
     4  H    0.226541
     5  H   -0.179981
 Sum of Mulliken charges =   0.00000

 Dipole moment (field-independent basis, Debye):
    X=              1.2125    Y=             -0.2786    Z=             -0.0485  Tot=              1.2451
 Quadrupole moment (field-independent basis, Debye-Ang):
   XX=            -10.6693   YY=             -9.0416   ZZ=             -9.5030
   XY=              1.7266   XZ=              1.4864   YZ=             -0.2830

 Normal termination of Gaussian 16 at Fri Sep 22 17:15:51 2023.
