 Gaussian 16, Revision A.03,
 Gaussian 16:  ES64L-G16RevA.03 25-Dec-2016

 ----------
 # hf/3-21g
 ----------

 -----------------------
 tmpdir/M1_conf_52_1.gjf
 -----------------------
 Symbolic Z-matrix:
 Charge =  0 Multiplicity = 1

                         Standard orientation:
 ---------------------------------------------------------------------
 Center     Atomic      Atomic             Coordinates (Angstroms)
 Number     Number       Type             X           Y           Z
 ---------------------------------------------------------------------
      1         17           0        0.000000    0.000000    0.085930
      2          1           0       -0.000000   -0.000000   -1.460808
 ---------------------------------------------------------------------

 SCF Done:  E(RHF) =  -457.847330527     A.U. after    8 cycles

 The electronic state is 1-SG.
 Alpha  occ. eigenvalues -- -104.12706 -10.51784  -7.98148  -7.97746  -7.97746
 Alpha  occ. eigenvalues --   -1.08693  -0.56351  -0.47431  -0.47431
 Alpha virt. eigenvalues --    0.07807   0.70589   0.78548   0.78548   0.85730
 Alpha virt. eigenvalues --    1.07656

 Mulliken charges:
               1
     1  Cl  -0.237840
     2  H    0.237840
 Sum of Mulliken charges =  -0.00000

 Dipole moment (field-independent basis, Debye):
    X=             -0.0000    Y=             -0.0000    Z=             -1.9746  Tot=              1.9746
 Quadrupole moment (field-independent basis, Debye-Ang):
   XX=            -14.4127   YY=            -14.4127   ZZ=            -10.1165
   XY=             -0.0000   XZ=              0.0000   YZ=              0.0000

 Normal termination of Gaussian 16 at Fri Sep 22 17:12:11 2023.
