 Gaussian 16, Revision A.03,
 Gaussian 16:  ES64L-G16RevA.03 25-Dec-2016

 ----------
 # hf/3-21g
 ----------

 ------------------------
 tmpdir/M1_conf_112_0.gjf
 ------------------------
 Symbolic Z-matrix:
 Charge =  0 Multiplicity = 1

                         Standard orientation:
 ---------------------------------------------------------------------
 Center     Atomic      Atomic             Coordinates (Angstroms)
 Number     Number       Type             X           Y           Z
 ---------------------------------------------------------------------
      1          6           0       -0.062849   -0.001865   -0.030875
      2          1           0       -0.592853   -0.697125   -0.409370
      3          1           0       -0.513737    0.455498    0.756427
      4          1           0        0.465014    0.790252   -0.540218
      5          1           0        1.018670   -0.537435    0.378410
 ---------------------------------------------------------------------

 SCF Done:  E(RHF) =  -39.9302851779     A.U. after    9 cycles

 The electronic state is 1-A.
 Alpha  occ. eigenvalues --  -11.14512  -0.95780  -0.61541  -0.55600  -0.46979
 Alpha virt. eigenvalues --    0.27130   0.31559   0.36238   0.38959   0.86495
 Alpha virt. eigenvalues --    0.92698   0.99026   1.22486   1.34221   1.41532
 Alpha virt. eigenvalues --    1.49635   1.96239

 Mulliken charges:
               1
     1  C   -0.786016
     2  H    0.233661
     3  H    0.219120
     4  H    0.214203
     5  H    0.119031
 Sum of Mulliken charges =  -0.00000

 Dipole moment (field-independent basis, Debye):
    X=             -0.0617    Y=              0.1245    Z=             -0.0052  Tot=              0.1390
 Quadrupole moment (field-independent basis, Debye-Ang):
   XX=             -8.1764   YY=             -8.2407   ZZ=             -8.8489
   XY=              0.3904   XZ=             -0.1822   YZ=              0.2569

 Normal termination of Gaussian 16 at Fri Sep 22 17:13:28 2023.
