 Gaussian 16, Revision A.03,
 Gaussian 16:  ES64L-G16RevA.03 25-Dec-2016

 ----------
 # hf/3-21g
 ----------

 ------------------------
 tmpdir/M1_conf_221_0.gjf
 ------------------------
 Symbolic Z-matrix:
 Charge =  0 Multiplicity = 1

                         Standard orientation:
 ---------------------------------------------------------------------
 Center     Atomic      Atomic             Coordinates (Angstroms)
 Number     Number       Type             X           Y           Z
 ---------------------------------------------------------------------
      1          6           0        0.282913   -0.001066    0.071119
      2          1           0        0.104771    1.083862   -0.196763
      3          1           0       -0.522095   -0.336350    0.666369
      4          1           0        0.443541   -0.722033   -0.598545
      5          1           0       -1.723695   -0.019085   -0.297778
 ---------------------------------------------------------------------

 SCF Done:  E(RHF) =  -39.7534819966     A.U. after   12 cycles

 The electronic state is 1-A.
 Alpha  occ. eigenvalues --  -11.22118  -0.95900  -0.62113  -0.57788  -0.33179
 Alpha virt. eigenvalues --    0.04787   0.28465   0.34456   0.35973   0.85374
 Alpha virt. eigenvalues --    0.93505   1.02558   1.20567   1.26269   1.35920
 Alpha virt. eigenvalues --    1.38283   1.75815

 Mulliken charges:
               1
     1  C   -0.600409
     2  H    0.242843
     3  H    0.262052
     4  H    0.250151
     5  H   -0.154638
 Sum of Mulliken charges =  -0.00000

 Dipole moment (field-independent basis, Debye):
    X=              0.7592    Y=             -0.0250    Z=             -0.1675  Tot=              0.7779
 Quadrupole moment (field-independent basis, Debye-Ang):
   XX=            -11.0003   YY=             -8.1490   ZZ=             -9.7431
   XY=             -0.0957   XZ=             -1.1680   YZ=              0.0348

 Normal termination of Gaussian 16 at Fri Sep 22 17:15:42 2023.
