 Gaussian 16, Revision A.03,
 Gaussian 16:  ES64L-G16RevA.03 25-Dec-2016

 ----------
 # hf/3-21g
 ----------

 ------------------------
 tmpdir/M1_conf_167_0.gjf
 ------------------------
 Symbolic Z-matrix:
 Charge =  0 Multiplicity = 1

                         Standard orientation:
 ---------------------------------------------------------------------
 Center     Atomic      Atomic             Coordinates (Angstroms)
 Number     Number       Type             X           Y           Z
 ---------------------------------------------------------------------
      1          6           0       -0.200922   -0.085587   -0.080987
      2          1           0       -0.038125   -0.648216    0.881368
      3          1           0       -0.629466    0.889027   -0.090769
      4          1           0        0.787563   -0.455311   -0.703300
      5          1           0        1.085558    0.728020    0.398622
 ---------------------------------------------------------------------

 SCF Done:  E(RHF) =  -39.8227447615     A.U. after   11 cycles

 The electronic state is 1-A.
 Alpha  occ. eigenvalues --  -11.21831  -0.92649  -0.60341  -0.52484  -0.38065
 Alpha virt. eigenvalues --    0.14480   0.24977   0.30967   0.35509   0.93960
 Alpha virt. eigenvalues --    0.98446   1.03157   1.17318   1.23653   1.29882
 Alpha virt. eigenvalues --    1.34447   1.90056

 Mulliken charges:
               1
     1  C   -0.689597
     2  H    0.235128
     3  H    0.265335
     4  H    0.228899
     5  H   -0.039766
 Sum of Mulliken charges =  -0.00000

 Dipole moment (field-independent basis, Debye):
    X=              0.2843    Y=              0.1268    Z=              0.2407  Tot=              0.3935
 Quadrupole moment (field-independent basis, Debye-Ang):
   XX=             -9.2800   YY=             -8.9699   ZZ=             -9.4942
   XY=             -1.3482   XZ=             -0.6901   YZ=             -0.5829

 Normal termination of Gaussian 16 at Fri Sep 22 17:14:38 2023.
