 Gaussian 16, Revision A.03,
 Gaussian 16:  ES64L-G16RevA.03 25-Dec-2016

 ----------
 # hf/3-21g
 ----------

 ------------------------
 tmpdir/M1_conf_179_0.gjf
 ------------------------
 Symbolic Z-matrix:
 Charge =  0 Multiplicity = 1

                         Standard orientation:
 ---------------------------------------------------------------------
 Center     Atomic      Atomic             Coordinates (Angstroms)
 Number     Number       Type             X           Y           Z
 ---------------------------------------------------------------------
      1          6           0       -0.209401    0.057958   -0.057740
      2          1           0       -0.371484   -0.830357   -0.491519
      3          1           0       -0.241749    0.017370    1.067022
      4          1           0        0.482510    0.969233   -0.354349
      5          1           0        1.387132   -0.503996    0.125288
 ---------------------------------------------------------------------

 SCF Done:  E(RHF) =  -39.8217395028     A.U. after   11 cycles

 The electronic state is 1-A.
 Alpha  occ. eigenvalues --  -11.21597  -0.93280  -0.61449  -0.54271  -0.36932
 Alpha virt. eigenvalues --    0.12930   0.26408   0.31865   0.36665   0.90471
 Alpha virt. eigenvalues --    0.98314   1.02597   1.20561   1.25021   1.28690
 Alpha virt. eigenvalues --    1.39603   1.85619

 Mulliken charges:
               1
     1  C   -0.671398
     2  H    0.270317
     3  H    0.227215
     4  H    0.251746
     5  H   -0.077880
 Sum of Mulliken charges =   0.00000

 Dipole moment (field-independent basis, Debye):
    X=             -0.1472    Y=              0.0690    Z=              0.0886  Tot=              0.1852
 Quadrupole moment (field-independent basis, Debye-Ang):
   XX=            -10.2370   YY=             -8.5213   ZZ=             -8.8592
   XY=              1.3270   XZ=             -0.2691   YZ=              0.2455

 Normal termination of Gaussian 16 at Fri Sep 22 17:14:52 2023.
