 Gaussian 16, Revision A.03,
 Gaussian 16:  ES64L-G16RevA.03 25-Dec-2016

 ----------
 # hf/3-21g
 ----------

 ------------------------
 tmpdir/M1_conf_136_0.gjf
 ------------------------
 Symbolic Z-matrix:
 Charge =  0 Multiplicity = 1

                         Standard orientation:
 ---------------------------------------------------------------------
 Center     Atomic      Atomic             Coordinates (Angstroms)
 Number     Number       Type             X           Y           Z
 ---------------------------------------------------------------------
      1          6           0        0.075249   -0.081921   -0.051508
      2          1           0        1.078909    0.579156   -0.103990
      3          1           0       -0.049155   -0.777417    0.804225
      4          1           0       -0.649443   -0.286908   -0.824782
      5          1           0       -0.831802    0.976692    0.433596
 ---------------------------------------------------------------------

 SCF Done:  E(RHF) =  -39.8954078797     A.U. after   10 cycles

 The electronic state is 1-A.
 Alpha  occ. eigenvalues --  -11.20479  -0.91331  -0.57208  -0.54784  -0.41705
 Alpha virt. eigenvalues --    0.21178   0.25973   0.33481   0.35125   0.92212
 Alpha virt. eigenvalues --    1.01257   1.02651   1.19348   1.21440   1.31482
 Alpha virt. eigenvalues --    1.34477   1.88813

 Mulliken charges:
               1
     1  C   -0.703561
     2  H    0.213281
     3  H    0.220357
     4  H    0.241374
     5  H    0.028549
 Sum of Mulliken charges =  -0.00000

 Dipole moment (field-independent basis, Debye):
    X=              0.0522    Y=             -0.1730    Z=             -0.0614  Tot=              0.1909
 Quadrupole moment (field-independent basis, Debye-Ang):
   XX=             -8.3946   YY=             -9.1402   ZZ=             -9.0133
   XY=              0.8132   XZ=              0.4471   YZ=             -0.4356

 Normal termination of Gaussian 16 at Fri Sep 22 17:14:01 2023.
