 Gaussian 16, Revision A.03,
 Gaussian 16:  ES64L-G16RevA.03 25-Dec-2016

 ----------
 # hf/3-21g
 ----------

 ----------------------
 tmpdir/M1_conf_3_0.gjf
 ----------------------
 Symbolic Z-matrix:
 Charge =  0 Multiplicity = 1

                         Standard orientation:
 ---------------------------------------------------------------------
 Center     Atomic      Atomic             Coordinates (Angstroms)
 Number     Number       Type             X           Y           Z
 ---------------------------------------------------------------------
      1          6           0        0.042888   -0.066447   -0.019030
      2          1           0        0.922706   -0.059370   -0.564334
      3          1           0        0.278250   -0.119521    0.965269
      4          1           0       -1.012511   -0.639801   -0.227965
      5          1           0       -0.445771    1.217373   -0.058793
 ---------------------------------------------------------------------

 SCF Done:  E(RHF) =  -39.9170282914     A.U. after    9 cycles

 The electronic state is 1-A.
 Alpha  occ. eigenvalues --  -11.18001  -0.93330  -0.58221  -0.54369  -0.45058
 Alpha virt. eigenvalues --    0.24508   0.27280   0.35316   0.36795   0.87406
 Alpha virt. eigenvalues --    0.99407   1.03447   1.19849   1.22757   1.38510
 Alpha virt. eigenvalues --    1.41065   1.92693

 Mulliken charges:
               1
     1  C   -0.733491
     2  H    0.228564
     3  H    0.231274
     4  H    0.188766
     5  H    0.084887
 Sum of Mulliken charges =   0.00000

 Dipole moment (field-independent basis, Debye):
    X=              0.1211    Y=             -0.1470    Z=              0.1713  Tot=              0.2562
 Quadrupole moment (field-independent basis, Debye-Ang):
   XX=             -7.8848   YY=             -9.1747   ZZ=             -8.8415
   XY=              0.2387   XZ=             -0.0939   YZ=              0.0233

 Normal termination of Gaussian 16 at Fri Sep 22 17:11:14 2023.
