 Gaussian 16, Revision A.03,
 Gaussian 16:  ES64L-G16RevA.03 25-Dec-2016

 ----------
 # hf/3-21g
 ----------

 ------------------------
 tmpdir/M1_conf_265_0.gjf
 ------------------------
 Symbolic Z-matrix:
 Charge =  0 Multiplicity = 1

                         Standard orientation:
 ---------------------------------------------------------------------
 Center     Atomic      Atomic             Coordinates (Angstroms)
 Number     Number       Type             X           Y           Z
 ---------------------------------------------------------------------
      1          6           0        0.348608   -0.031799   -0.096158
      2          1           0        0.430484   -0.487288    0.748976
      3          1           0       -0.584998   -0.414193   -0.500061
      4          1           0        0.181801    1.020734    0.122242
      5          1           0       -2.118938    0.071541    0.205788
 ---------------------------------------------------------------------

 SCF Done:  E(RHF) =  -39.6852163002     A.U. after   14 cycles

 The electronic state is 1-A.
 Alpha  occ. eigenvalues --  -11.22672  -0.97928  -0.61262  -0.58491  -0.30780
 Alpha virt. eigenvalues --   -0.01920   0.29798   0.34604   0.36034   0.83793
 Alpha virt. eigenvalues --    0.89064   0.99191   1.21087   1.31658   1.34724
 Alpha virt. eigenvalues --    1.41979   1.79960

 Mulliken charges:
               1
     1  C   -0.576418
     2  H    0.251278
     3  H    0.249228
     4  H    0.235313
     5  H   -0.159401
 Sum of Mulliken charges =   0.00000

 Dipole moment (field-independent basis, Debye):
    X=              1.2484    Y=              0.1106    Z=              0.5740  Tot=              1.3785
 Quadrupole moment (field-independent basis, Debye-Ang):
   XX=            -11.7091   YY=             -8.7865   ZZ=             -9.6412
   XY=              0.2369   XZ=              0.8446   YZ=             -0.1121

 Normal termination of Gaussian 16 at Fri Sep 22 17:16:35 2023.
