 Gaussian 16, Revision A.03,
 Gaussian 16:  ES64L-G16RevA.03 25-Dec-2016

 ----------
 # hf/3-21g
 ----------

 -----------------------
 tmpdir/M1_conf_27_0.gjf
 -----------------------
 Symbolic Z-matrix:
 Charge =  0 Multiplicity = 1

                         Standard orientation:
 ---------------------------------------------------------------------
 Center     Atomic      Atomic             Coordinates (Angstroms)
 Number     Number       Type             X           Y           Z
 ---------------------------------------------------------------------
      1          6           0        0.037602   -0.007607   -0.041348
      2          1           0       -0.889932    0.219086   -0.638331
      3          1           0        0.060257    0.972222    0.621232
      4          1           0        1.023949   -0.237526   -0.335790
      5          1           0       -0.419889   -0.908142    0.600977
 ---------------------------------------------------------------------

 SCF Done:  E(RHF) =  -39.9476512564     A.U. after    9 cycles

 The electronic state is 1-A.
 Alpha  occ. eigenvalues --  -11.17231  -0.92667  -0.58987  -0.51405  -0.48244
 Alpha virt. eigenvalues --    0.27644   0.30196   0.32085   0.36833   0.92818
 Alpha virt. eigenvalues --    0.98237   0.99396   1.25152   1.27641   1.28370
 Alpha virt. eigenvalues --    1.38273   1.92373

 Mulliken charges:
               1
     1  C   -0.770685
     2  H    0.210545
     3  H    0.169767
     4  H    0.225421
     5  H    0.164953
 Sum of Mulliken charges =  -0.00000

 Dipole moment (field-independent basis, Debye):
    X=             -0.0644    Y=              0.0273    Z=             -0.0008  Tot=              0.0699
 Quadrupole moment (field-independent basis, Debye-Ang):
   XX=             -7.8639   YY=             -8.6037   ZZ=             -9.2874
   XY=             -0.1368   XZ=             -0.0334   YZ=              0.0257

 Normal termination of Gaussian 16 at Fri Sep 22 17:11:42 2023.
