 Gaussian 16, Revision A.03,
 Gaussian 16:  ES64L-G16RevA.03 25-Dec-2016

 ----------
 # hf/3-21g
 ----------

 -----------------------
 tmpdir/M1_conf_16_0.gjf
 -----------------------
 Symbolic Z-matrix:
 Charge =  0 Multiplicity = 1

                         Standard orientation:
 ---------------------------------------------------------------------
 Center     Atomic      Atomic             Coordinates (Angstroms)
 Number     Number       Type             X           Y           Z
 ---------------------------------------------------------------------
      1          6           0        0.014084   -0.051171   -0.016065
      2          1           0       -0.747397   -0.238366   -0.767890
      3          1           0        0.999927   -0.635758    0.085261
      4          1           0       -0.709825   -0.019916    0.875866
      5          1           0        0.372790    1.201065   -0.096849
 ---------------------------------------------------------------------

 SCF Done:  E(RHF) =  -39.9372119849     A.U. after    9 cycles

 The electronic state is 1-A.
 Alpha  occ. eigenvalues --  -11.18622  -0.91760  -0.57367  -0.51222  -0.47643
 Alpha virt. eigenvalues --    0.25896   0.29017   0.32541   0.35279   0.92306
 Alpha virt. eigenvalues --    0.99651   1.02542   1.20567   1.25000   1.28856
 Alpha virt. eigenvalues --    1.36191   1.90819

 Mulliken charges:
               1
     1  C   -0.738772
     2  H    0.217137
     3  H    0.205878
     4  H    0.189154
     5  H    0.126602
 Sum of Mulliken charges =  -0.00000

 Dipole moment (field-independent basis, Debye):
    X=             -0.1446    Y=             -0.0930    Z=              0.0360  Tot=              0.1757
 Quadrupole moment (field-independent basis, Debye-Ang):
   XX=             -7.9042   YY=             -8.8937   ZZ=             -9.1871
   XY=             -0.1897   XZ=              0.1287   YZ=              0.0712

 Normal termination of Gaussian 16 at Fri Sep 22 17:11:29 2023.
