 Gaussian 16, Revision A.03,
 Gaussian 16:  ES64L-G16RevA.03 25-Dec-2016

 ----------
 # hf/3-21g
 ----------

 -----------------------
 tmpdir/M1_conf_95_0.gjf
 -----------------------
 Symbolic Z-matrix:
 Charge =  0 Multiplicity = 1

                         Standard orientation:
 ---------------------------------------------------------------------
 Center     Atomic      Atomic             Coordinates (Angstroms)
 Number     Number       Type             X           Y           Z
 ---------------------------------------------------------------------
      1          6           0        0.022445   -0.043665   -0.017913
      2          1           0       -0.979088   -0.286495   -0.549592
      3          1           0        0.593571    0.850238   -0.520240
      4          1           0        0.676153   -0.824031    0.248609
      5          1           0       -0.425308    0.522278    0.928703
 ---------------------------------------------------------------------

 SCF Done:  E(RHF) =  -39.9546995468     A.U. after    9 cycles

 The electronic state is 1-A.
 Alpha  occ. eigenvalues --  -11.17365  -0.92473  -0.57162  -0.52567  -0.48860
 Alpha virt. eigenvalues --    0.27628   0.30644   0.32726   0.35960   0.93178
 Alpha virt. eigenvalues --    0.96463   0.98669   1.25434   1.26525   1.29011
 Alpha virt. eigenvalues --    1.37272   1.93394

 Mulliken charges:
               1
     1  C   -0.756068
     2  H    0.190622
     3  H    0.179941
     4  H    0.219444
     5  H    0.166061
 Sum of Mulliken charges =  -0.00000

 Dipole moment (field-independent basis, Debye):
    X=             -0.0253    Y=              0.0414    Z=              0.0720  Tot=              0.0868
 Quadrupole moment (field-independent basis, Debye-Ang):
   XX=             -8.2140   YY=             -8.4533   ZZ=             -9.0958
   XY=             -0.1339   XZ=              0.1207   YZ=             -0.1014

 Normal termination of Gaussian 16 at Fri Sep 22 17:13:08 2023.
