 Gaussian 16, Revision A.03,
 Gaussian 16:  ES64L-G16RevA.03 25-Dec-2016

 ----------
 # hf/3-21g
 ----------

 -----------------------
 tmpdir/M1_conf_40_0.gjf
 -----------------------
 Symbolic Z-matrix:
 Charge =  0 Multiplicity = 1

                         Standard orientation:
 ---------------------------------------------------------------------
 Center     Atomic      Atomic             Coordinates (Angstroms)
 Number     Number       Type             X           Y           Z
 ---------------------------------------------------------------------
      1          6           0        0.022726    0.036200   -0.000825
      2          1           0        1.000238   -0.068933   -0.484323
      3          1           0       -0.434952    0.950600    0.078033
      4          1           0        0.156196   -0.458731    0.859210
      5          1           0       -0.857837   -0.640134   -0.447971
 ---------------------------------------------------------------------

 SCF Done:  E(RHF) =  -39.9519182708     A.U. after    9 cycles

 The electronic state is 1-A.
 Alpha  occ. eigenvalues --  -11.14369  -0.95383  -0.59177  -0.54643  -0.49695
 Alpha virt. eigenvalues --    0.28402   0.32895   0.35445   0.37824   0.87749
 Alpha virt. eigenvalues --    0.91946   0.98746   1.26476   1.32620   1.40650
 Alpha virt. eigenvalues --    1.45474   1.95248

 Mulliken charges:
               1
     1  C   -0.799544
     2  H    0.199118
     3  H    0.220155
     4  H    0.226518
     5  H    0.153754
 Sum of Mulliken charges =  -0.00000

 Dipole moment (field-independent basis, Debye):
    X=              0.0085    Y=             -0.0461    Z=              0.1886  Tot=              0.1944
 Quadrupole moment (field-independent basis, Debye-Ang):
   XX=             -7.9658   YY=             -8.3493   ZZ=             -8.8907
   XY=             -0.2423   XZ=             -0.1023   YZ=             -0.1566

 Normal termination of Gaussian 16 at Fri Sep 22 17:11:57 2023.
