 Gaussian 16, Revision A.03,
 Gaussian 16:  ES64L-G16RevA.03 25-Dec-2016

 ----------
 # hf/3-21g
 ----------

 ------------------------
 tmpdir/M1_conf_113_0.gjf
 ------------------------
 Symbolic Z-matrix:
 Charge =  0 Multiplicity = 1

                         Standard orientation:
 ---------------------------------------------------------------------
 Center     Atomic      Atomic             Coordinates (Angstroms)
 Number     Number       Type             X           Y           Z
 ---------------------------------------------------------------------
      1          6           0        0.062130    0.014501   -0.044037
      2          1           0        0.336307    0.901505   -0.311043
      3          1           0        0.686125   -0.450891    0.694370
      4          1           0       -0.316617   -0.759985   -0.635015
      5          1           0       -1.078597    0.222367    0.515910
 ---------------------------------------------------------------------

 SCF Done:  E(RHF) =  -39.9329051087     A.U. after    9 cycles

 The electronic state is 1-A.
 Alpha  occ. eigenvalues --  -11.15125  -0.95234  -0.61721  -0.54964  -0.46540
 Alpha virt. eigenvalues --    0.26626   0.31619   0.35205   0.38816   0.88732
 Alpha virt. eigenvalues --    0.91875   0.99613   1.21709   1.35283   1.36463
 Alpha virt. eigenvalues --    1.48984   1.95641

 Mulliken charges:
               1
     1  C   -0.781179
     2  H    0.237042
     3  H    0.206263
     4  H    0.228055
     5  H    0.109819
 Sum of Mulliken charges =   0.00000

 Dipole moment (field-independent basis, Debye):
    X=              0.0434    Y=             -0.0783    Z=             -0.0543  Tot=              0.1048
 Quadrupole moment (field-independent basis, Debye-Ang):
   XX=             -8.5043   YY=             -7.9894   ZZ=             -8.9256
   XY=              0.2610   XZ=              0.3303   YZ=             -0.1207

 Normal termination of Gaussian 16 at Fri Sep 22 17:13:29 2023.
