 Gaussian 16, Revision A.03,
 Gaussian 16:  ES64L-G16RevA.03 25-Dec-2016

 ----------
 # hf/3-21g
 ----------

 -----------------------
 tmpdir/M1_conf_37_2.gjf
 -----------------------
 Symbolic Z-matrix:
 Charge = -1 Multiplicity = 1

                         Standard orientation:
 ---------------------------------------------------------------------
 Center     Atomic      Atomic             Coordinates (Angstroms)
 Number     Number       Type             X           Y           Z
 ---------------------------------------------------------------------
      1         17           0        0.000000    0.000000    0.000000
 ---------------------------------------------------------------------

 SCF Done:  E(RHF) =  -457.353585381     A.U. after    7 cycles

 The electronic state is 1-A1G.
 Alpha  occ. eigenvalues -- -103.72627 -10.11527  -7.57820  -7.57820  -7.57820
 Alpha  occ. eigenvalues --   -0.69271  -0.11509  -0.11509  -0.11509
 Alpha virt. eigenvalues --    0.98283   1.11829   1.11829   1.11829

 Mulliken charges:
               1
     1  Cl  -1.000000
 Sum of Mulliken charges =  -1.00000

 Dipole moment (field-independent basis, Debye):
    X=              0.0000    Y=              0.0000    Z=              0.0000  Tot=              0.0000
 Quadrupole moment (field-independent basis, Debye-Ang):
   XX=            -15.5773   YY=            -15.5773   ZZ=            -15.5773
   XY=             -0.0000   XZ=             -0.0000   YZ=              0.0000

 Normal termination of Gaussian 16 at Fri Sep 22 17:11:54 2023.
