 Gaussian 16, Revision A.03,
 Gaussian 16:  ES64L-G16RevA.03 25-Dec-2016

 ----------
 # hf/3-21g
 ----------

 ------------------------
 tmpdir/M1_conf_156_0.gjf
 ------------------------
 Symbolic Z-matrix:
 Charge =  0 Multiplicity = 1

                         Standard orientation:
 ---------------------------------------------------------------------
 Center     Atomic      Atomic             Coordinates (Angstroms)
 Number     Number       Type             X           Y           Z
 ---------------------------------------------------------------------
      1          6           0       -0.085799   -0.095281   -0.032007
      2          1           0        0.820616   -0.784582   -0.342181
      3          1           0       -0.355136   -0.136305    0.982200
      4          1           0       -0.911600    0.474147   -0.557327
      5          1           0        0.960913    1.018424    0.109352
 ---------------------------------------------------------------------

 SCF Done:  E(RHF) =  -39.8799200923     A.U. after   10 cycles

 The electronic state is 1-A.
 Alpha  occ. eigenvalues --  -11.20657  -0.91625  -0.57988  -0.54842  -0.40464
 Alpha virt. eigenvalues --    0.19625   0.25308   0.34528   0.34913   0.89989
 Alpha virt. eigenvalues --    1.01967   1.05548   1.19991   1.22685   1.30184
 Alpha virt. eigenvalues --    1.36068   1.87030

 Mulliken charges:
               1
     1  C   -0.703785
     2  H    0.233967
     3  H    0.234008
     4  H    0.231472
     5  H    0.004338
 Sum of Mulliken charges =   0.00000

 Dipole moment (field-independent basis, Debye):
    X=             -0.1972    Y=             -0.2367    Z=              0.0936  Tot=              0.3220
 Quadrupole moment (field-independent basis, Debye-Ang):
   XX=             -8.1770   YY=             -9.4610   ZZ=             -8.9864
   XY=             -1.1136   XZ=             -0.1532   YZ=             -0.1599

 Normal termination of Gaussian 16 at Fri Sep 22 17:14:25 2023.
