 Gaussian 16, Revision A.03,
 Gaussian 16:  ES64L-G16RevA.03 25-Dec-2016

 ----------
 # hf/3-21g
 ----------

 ------------------------
 tmpdir/M1_conf_131_0.gjf
 ------------------------
 Symbolic Z-matrix:
 Charge =  0 Multiplicity = 1

                         Standard orientation:
 ---------------------------------------------------------------------
 Center     Atomic      Atomic             Coordinates (Angstroms)
 Number     Number       Type             X           Y           Z
 ---------------------------------------------------------------------
      1          6           0       -0.070735   -0.035962   -0.017052
      2          1           0        0.066856   -0.828371   -0.558490
      3          1           0       -0.180810   -0.216597    0.985903
      4          1           0       -0.753816    0.795774   -0.307162
      5          1           0        1.292180    0.464968   -0.017939
 ---------------------------------------------------------------------

 SCF Done:  E(RHF) =  -39.9113413451     A.U. after    9 cycles

 The electronic state is 1-A.
 Alpha  occ. eigenvalues --  -11.17068  -0.94568  -0.60607  -0.55637  -0.44248
 Alpha virt. eigenvalues --    0.22366   0.30814   0.35353   0.38292   0.87070
 Alpha virt. eigenvalues --    0.92538   1.03143   1.19709   1.28874   1.38881
 Alpha virt. eigenvalues --    1.46573   1.92529

 Mulliken charges:
               1
     1  C   -0.716283
     2  H    0.238911
     3  H    0.224092
     4  H    0.202788
     5  H    0.050492
 Sum of Mulliken charges =  -0.00000

 Dipole moment (field-independent basis, Debye):
    X=             -0.3451    Y=             -0.2155    Z=              0.0904  Tot=              0.4168
 Quadrupole moment (field-independent basis, Debye-Ang):
   XX=             -8.7435   YY=             -8.4574   ZZ=             -8.5685
   XY=             -0.4900   XZ=             -0.0154   YZ=              0.1213

 Normal termination of Gaussian 16 at Fri Sep 22 17:13:55 2023.
