 Gaussian 16, Revision A.03,
 Gaussian 16:  ES64L-G16RevA.03 25-Dec-2016

 ----------
 # hf/3-21g
 ----------

 ------------------------
 tmpdir/M1_conf_182_0.gjf
 ------------------------
 Symbolic Z-matrix:
 Charge =  0 Multiplicity = 1

                         Standard orientation:
 ---------------------------------------------------------------------
 Center     Atomic      Atomic             Coordinates (Angstroms)
 Number     Number       Type             X           Y           Z
 ---------------------------------------------------------------------
      1          6           0       -0.219183    0.023181    0.017947
      2          1           0        0.121083    1.038842   -0.186549
      3          1           0       -0.204670   -0.643118   -0.779297
      4          1           0       -0.108483   -0.358443    0.870676
      5          1           0        1.507168   -0.176366   -0.012511
 ---------------------------------------------------------------------

 SCF Done:  E(RHF) =  -39.8179562611     A.U. after   11 cycles

 The electronic state is 1-A.
 Alpha  occ. eigenvalues --  -11.19464  -0.96117  -0.62482  -0.59131  -0.36579
 Alpha virt. eigenvalues --    0.12131   0.29842   0.35173   0.37968   0.85558
 Alpha virt. eigenvalues --    0.91605   1.03281   1.21320   1.29072   1.36715
 Alpha virt. eigenvalues --    1.47391   1.87298

 Mulliken charges:
               1
     1  C   -0.671386
     2  H    0.248686
     3  H    0.248044
     4  H    0.266430
     5  H   -0.091775
 Sum of Mulliken charges =  -0.00000

 Dipole moment (field-independent basis, Debye):
    X=             -0.4008    Y=              0.0239    Z=             -0.0141  Tot=              0.4018
 Quadrupole moment (field-independent basis, Debye-Ang):
   XX=            -10.6331   YY=             -8.2177   ZZ=             -8.3963
   XY=              0.5339   XZ=              0.0050   YZ=             -0.0620

 Normal termination of Gaussian 16 at Fri Sep 22 17:14:56 2023.
