 Gaussian 16, Revision A.03,
 Gaussian 16:  ES64L-G16RevA.03 25-Dec-2016

 ----------
 # hf/3-21g
 ----------

 ------------------------
 tmpdir/M1_conf_285_0.gjf
 ------------------------
 Symbolic Z-matrix:
 Charge =  0 Multiplicity = 1

                         Standard orientation:
 ---------------------------------------------------------------------
 Center     Atomic      Atomic             Coordinates (Angstroms)
 Number     Number       Type             X           Y           Z
 ---------------------------------------------------------------------
      1          6           0       -0.318915   -0.040134    0.092611
      2          1           0       -0.303310   -0.766808   -0.507253
      3          1           0        0.646661   -0.003688    0.588852
      4          1           0       -0.579041    0.909183   -0.370997
      5          1           0        2.149181    0.102115   -0.266267
 ---------------------------------------------------------------------

 SCF Done:  E(RHF) =  -39.6937676939     A.U. after   13 cycles

 The electronic state is 1-A.
 Alpha  occ. eigenvalues --  -11.23176  -0.97990  -0.63449  -0.60026  -0.29739
 Alpha virt. eigenvalues --   -0.00864   0.29177   0.35364   0.36344   0.82798
 Alpha virt. eigenvalues --    0.89951   0.98464   1.20222   1.27642   1.34590
 Alpha virt. eigenvalues --    1.42297   1.77375

 Mulliken charges:
               1
     1  C   -0.551665
     2  H    0.258840
     3  H    0.260091
     4  H    0.230262
     5  H   -0.197527
 Sum of Mulliken charges =   0.00000

 Dipole moment (field-independent basis, Debye):
    X=             -1.8536    Y=             -0.0414    Z=             -0.3767  Tot=              1.8919
 Quadrupole moment (field-independent basis, Debye-Ang):
   XX=            -12.4104   YY=             -8.6042   ZZ=             -9.6532
   XY=             -0.3549   XZ=              1.1219   YZ=              0.0826

 Normal termination of Gaussian 16 at Fri Sep 22 17:16:58 2023.
