 Gaussian 16, Revision A.03,
 Gaussian 16:  ES64L-G16RevA.03 25-Dec-2016

 ----------
 # hf/3-21g
 ----------

 -----------------------
 tmpdir/M1_conf_71_0.gjf
 -----------------------
 Symbolic Z-matrix:
 Charge =  0 Multiplicity = 1

                         Standard orientation:
 ---------------------------------------------------------------------
 Center     Atomic      Atomic             Coordinates (Angstroms)
 Number     Number       Type             X           Y           Z
 ---------------------------------------------------------------------
      1          6           0       -0.094704    0.039372   -0.022340
      2          1           0       -0.791237   -0.552317   -0.395840
      3          1           0       -0.138419    0.108205    0.942767
      4          1           0        0.408332    0.919184   -0.373540
      5          1           0        1.089545   -0.711303   -0.039348
 ---------------------------------------------------------------------

 SCF Done:  E(RHF) =  -39.9039660067     A.U. after   10 cycles

 The electronic state is 1-A.
 Alpha  occ. eigenvalues --  -11.15764  -0.95830  -0.62031  -0.56597  -0.43920
 Alpha virt. eigenvalues --    0.23442   0.30722   0.37011   0.38326   0.84778
 Alpha virt. eigenvalues --    0.95436   1.01464   1.18760   1.32971   1.44908
 Alpha virt. eigenvalues --    1.48529   1.95835

 Mulliken charges:
               1
     1  C   -0.767724
     2  H    0.236709
     3  H    0.242184
     4  H    0.231773
     5  H    0.057058
 Sum of Mulliken charges =   0.00000

 Dipole moment (field-independent basis, Debye):
    X=             -0.1639    Y=              0.1803    Z=              0.1683  Tot=              0.2961
 Quadrupole moment (field-independent basis, Debye-Ang):
   XX=             -8.4356   YY=             -8.5182   ZZ=             -8.6572
   XY=              0.7891   XZ=              0.0745   YZ=              0.0292

 Normal termination of Gaussian 16 at Fri Sep 22 17:12:34 2023.
