 Gaussian 16, Revision A.03,
 Gaussian 16:  ES64L-G16RevA.03 25-Dec-2016

 ----------
 # hf/3-21g
 ----------

 -----------------------
 tmpdir/M1_conf_80_1.gjf
 -----------------------
 Symbolic Z-matrix:
 Charge =  0 Multiplicity = 1

                         Standard orientation:
 ---------------------------------------------------------------------
 Center     Atomic      Atomic             Coordinates (Angstroms)
 Number     Number       Type             X           Y           Z
 ---------------------------------------------------------------------
      1         17           0       -0.000000    0.000000    0.086530
      2          1           0        0.000000    0.000000   -1.471004
 ---------------------------------------------------------------------

 SCF Done:  E(RHF) =  -457.845804264     A.U. after    8 cycles

 The electronic state is 1-SG.
 Alpha  occ. eigenvalues -- -104.12739 -10.51797  -7.98160  -7.97760  -7.97760
 Alpha  occ. eigenvalues --   -1.08575  -0.56144  -0.47407  -0.47407
 Alpha virt. eigenvalues --    0.07475   0.70557   0.78563   0.78563   0.85815
 Alpha virt. eigenvalues --    1.07802

 Mulliken charges:
               1
     1  Cl  -0.238437
     2  H    0.238437
 Sum of Mulliken charges =   0.00000

 Dipole moment (field-independent basis, Debye):
    X=              0.0000    Y=              0.0000    Z=             -1.9812  Tot=              1.9812
 Quadrupole moment (field-independent basis, Debye-Ang):
   XX=            -14.4231   YY=            -14.4231   ZZ=            -10.0782
   XY=              0.0000   XZ=              0.0000   YZ=              0.0000

 Normal termination of Gaussian 16 at Fri Sep 22 17:12:50 2023.
