 Gaussian 16, Revision A.03,
 Gaussian 16:  ES64L-G16RevA.03 25-Dec-2016

 ----------
 # hf/3-21g
 ----------

 ----------------------
 tmpdir/M1_conf_2_0.gjf
 ----------------------
 Symbolic Z-matrix:
 Charge =  0 Multiplicity = 1

                         Standard orientation:
 ---------------------------------------------------------------------
 Center     Atomic      Atomic             Coordinates (Angstroms)
 Number     Number       Type             X           Y           Z
 ---------------------------------------------------------------------
      1          6           0        0.044461   -0.070506    0.001101
      2          1           0        0.955295    0.024769   -0.555986
      3          1           0        0.211551    0.001676    0.979691
      4          1           0       -0.863651   -0.751929   -0.266682
      5          1           0       -0.569961    1.148521   -0.163628
 ---------------------------------------------------------------------

 SCF Done:  E(RHF) =  -39.9239243981     A.U. after    9 cycles

 The electronic state is 1-A.
 Alpha  occ. eigenvalues --  -11.17687  -0.93441  -0.57555  -0.56026  -0.44963
 Alpha virt. eigenvalues --    0.24444   0.28547   0.35343   0.36793   0.87735
 Alpha virt. eigenvalues --    0.98498   1.01775   1.19775   1.25169   1.35615
 Alpha virt. eigenvalues --    1.43257   1.93167

 Mulliken charges:
               1
     1  C   -0.736652
     2  H    0.219890
     3  H    0.237716
     4  H    0.199901
     5  H    0.079145
 Sum of Mulliken charges =   0.00000

 Dipole moment (field-independent basis, Debye):
    X=              0.1043    Y=             -0.1240    Z=              0.1500  Tot=              0.2209
 Quadrupole moment (field-independent basis, Debye-Ang):
   XX=             -8.0929   YY=             -9.0873   ZZ=             -8.6972
   XY=              0.4145   XZ=             -0.0850   YZ=              0.1292

 Normal termination of Gaussian 16 at Fri Sep 22 17:11:12 2023.
