 Gaussian 16, Revision A.03,
 Gaussian 16:  ES64L-G16RevA.03 25-Dec-2016

 ----------
 # hf/3-21g
 ----------

 ------------------------
 tmpdir/M1_conf_121_0.gjf
 ------------------------
 Symbolic Z-matrix:
 Charge =  0 Multiplicity = 1

                         Standard orientation:
 ---------------------------------------------------------------------
 Center     Atomic      Atomic             Coordinates (Angstroms)
 Number     Number       Type             X           Y           Z
 ---------------------------------------------------------------------
      1          6           0       -0.069489    0.066093    0.010910
      2          1           0        0.000061   -0.259790    0.935888
      3          1           0        0.240449    0.983309   -0.204143
      4          1           0       -0.904214   -0.504588   -0.461026
      5          1           0        1.080635   -0.615489   -0.336181
 ---------------------------------------------------------------------

 SCF Done:  E(RHF) =  -39.9126131969     A.U. after    9 cycles

 The electronic state is 1-A.
 Alpha  occ. eigenvalues --  -11.16250  -0.95121  -0.61529  -0.55641  -0.44452
 Alpha virt. eigenvalues --    0.23909   0.30472   0.35837   0.38377   0.86709
 Alpha virt. eigenvalues --    0.93620   1.02485   1.19244   1.29700   1.41536
 Alpha virt. eigenvalues --    1.47965   1.94624

 Mulliken charges:
               1
     1  C   -0.756409
     2  H    0.243182
     3  H    0.238593
     4  H    0.208287
     5  H    0.066347
 Sum of Mulliken charges =  -0.00000

 Dipole moment (field-independent basis, Debye):
    X=             -0.1301    Y=              0.0620    Z=              0.2148  Tot=              0.2586
 Quadrupole moment (field-independent basis, Debye-Ang):
   XX=             -8.5862   YY=             -8.2923   ZZ=             -8.8097
   XY=              0.5715   XZ=              0.2926   YZ=             -0.2959

 Normal termination of Gaussian 16 at Fri Sep 22 17:13:39 2023.
