 Gaussian 16, Revision A.03,
 Gaussian 16:  ES64L-G16RevA.03 25-Dec-2016

 ----------
 # hf/3-21g
 ----------

 ------------------------
 tmpdir/M2_conf_231_1.gjf
 ------------------------
 Symbolic Z-matrix:
 Charge =  0 Multiplicity = 1

                         Standard orientation:
 ---------------------------------------------------------------------
 Center     Atomic      Atomic             Coordinates (Angstroms)
 Number     Number       Type             X           Y           Z
 ---------------------------------------------------------------------
      1          6           0       -0.032127   -0.000060    0.006480
      2          1           0       -0.223152   -0.004215    1.028066
      3          1           0       -0.380737   -0.891000   -0.480222
      4          1           0       -0.382726    0.893931   -0.473589
      5          1           0        1.179378    0.001646   -0.113135
 ---------------------------------------------------------------------

 SCF Done:  E(RHF) =  -39.9657494491     A.U. after    9 cycles

 The electronic state is 1-A.
 Alpha  occ. eigenvalues --  -11.15324  -0.94185  -0.56387  -0.55585  -0.50283
 Alpha virt. eigenvalues --    0.28422   0.32419   0.35685   0.36430   0.90372
 Alpha virt. eigenvalues --    0.91992   0.97560   1.25215   1.33425   1.37014
 Alpha virt. eigenvalues --    1.39676   1.95104

 Mulliken charges:
               1
     1  C   -0.775082
     2  H    0.214899
     3  H    0.205177
     4  H    0.205122
     5  H    0.149883
 Sum of Mulliken charges =  -0.00000

 Dipole moment (field-independent basis, Debye):
    X=             -0.0776    Y=             -0.0003    Z=              0.0270  Tot=              0.0822
 Quadrupole moment (field-independent basis, Debye-Ang):
   XX=             -8.6213   YY=             -8.3568   ZZ=             -8.3845
   XY=             -0.0005   XZ=              0.0294   YZ=             -0.0001

 Normal termination of Gaussian 16 at Fri Sep 22 17:19:59 2023.
