 Gaussian 16, Revision A.03,
 Gaussian 16:  ES64L-G16RevA.03 25-Dec-2016

 ----------
 # hf/3-21g
 ----------

 ------------------------
 tmpdir/M2_conf_259_0.gjf
 ------------------------
 Symbolic Z-matrix:
 Charge =  0 Multiplicity = 1

                         Standard orientation:
 ---------------------------------------------------------------------
 Center     Atomic      Atomic             Coordinates (Angstroms)
 Number     Number       Type             X           Y           Z
 ---------------------------------------------------------------------
      1          6           0        0.007779   -0.029423    0.000056
      2          1           0        1.128543    0.342296    0.001159
      3          1           0       -0.247444   -0.567656    0.893247
      4          1           0       -0.244282   -0.570784   -0.892131
      5          1           0       -0.683490    0.972681   -0.002614
 ---------------------------------------------------------------------

 SCF Done:  E(RHF) =  -39.9612140495     A.U. after    9 cycles

 The electronic state is 1-A.
 Alpha  occ. eigenvalues --  -11.16966  -0.92782  -0.55827  -0.53482  -0.50080
 Alpha virt. eigenvalues --    0.27673   0.31082   0.34048   0.35683   0.91702
 Alpha virt. eigenvalues --    0.95362   0.99385   1.23781   1.26585   1.34041
 Alpha virt. eigenvalues --    1.36661   1.93433

 Mulliken charges:
               1
     1  C   -0.752189
     2  H    0.177002
     3  H    0.209849
     4  H    0.209848
     5  H    0.155489
 Sum of Mulliken charges =   0.00000

 Dipole moment (field-independent basis, Debye):
    X=             -0.0393    Y=             -0.0738    Z=              0.0001  Tot=              0.0836
 Quadrupole moment (field-independent basis, Debye-Ang):
   XX=             -8.5092   YY=             -8.6576   ZZ=             -8.4905
   XY=              0.1510   XZ=             -0.0009   YZ=              0.0008

 Normal termination of Gaussian 16 at Fri Sep 22 17:20:42 2023.
