 Gaussian 16, Revision A.03,
 Gaussian 16:  ES64L-G16RevA.03 25-Dec-2016

 ----------
 # hf/3-21g
 ----------

 ------------------------
 tmpdir/M2_conf_191_6.gjf
 ------------------------
 Symbolic Z-matrix:
 Charge =  0 Multiplicity = 1

                         Standard orientation:
 ---------------------------------------------------------------------
 Center     Atomic      Atomic             Coordinates (Angstroms)
 Number     Number       Type             X           Y           Z
 ---------------------------------------------------------------------
      1          1           0       -0.825560   -0.000813    0.980237
      2          6           0       -1.209405    0.000027   -0.022185
      3         17           0        0.682490    0.000011   -0.020297
      4          1           0       -1.760051    0.892922   -0.250526
      5          1           0       -1.760284   -0.892458   -0.251557
 ---------------------------------------------------------------------

 SCF Done:  E(RHF) =  -496.621584631     A.U. after   11 cycles

 The electronic state is 1-A.
 Alpha  occ. eigenvalues -- -104.09651 -11.24391 -10.49174  -7.95533  -7.95113
 Alpha  occ. eigenvalues --   -7.95087  -1.13510  -0.92826  -0.65131  -0.62959
 Alpha  occ. eigenvalues --   -0.50432  -0.44925  -0.41435
 Alpha virt. eigenvalues --    0.13607   0.28388   0.31709   0.31811   0.74188
 Alpha virt. eigenvalues --    0.78571   0.80439   0.84568   0.94172   0.97485
 Alpha virt. eigenvalues --    1.02602   1.27054   1.31383   1.31463   1.84353

 Mulliken charges:
               1
     1  H    0.291706
     2  C   -0.712626
     3  Cl  -0.113574
     4  H    0.267250
     5  H    0.267244
 Sum of Mulliken charges =  -0.00000

 Dipole moment (field-independent basis, Debye):
    X=             -2.5835    Y=             -0.0003    Z=              0.4005  Tot=              2.6144
 Quadrupole moment (field-independent basis, Debye-Ang):
   XX=            -18.5388   YY=            -20.1521   ZZ=            -20.8890
   XY=             -0.0004   XZ=              0.7264   YZ=             -0.0001

 Normal termination of Gaussian 16 at Fri Sep 22 17:18:59 2023.
