 Gaussian 16, Revision A.03,
 Gaussian 16:  ES64L-G16RevA.03 25-Dec-2016

 ----------
 # hf/3-21g
 ----------

 ------------------------
 tmpdir/M2_conf_290_3.gjf
 ------------------------
 Symbolic Z-matrix:
 Charge =  0 Multiplicity = 1

                         Standard orientation:
 ---------------------------------------------------------------------
 Center     Atomic      Atomic             Coordinates (Angstroms)
 Number     Number       Type             X           Y           Z
 ---------------------------------------------------------------------
      1          6           0       -2.520968    0.000007    0.000008
      2         17           0        1.387632   -0.000007   -0.000002
      3          1           0       -2.821337   -0.278197    0.992265
      4          1           0       -2.821025    0.998714   -0.255263
      5          1           0       -2.821572   -0.720439   -0.737023
 ---------------------------------------------------------------------

 SCF Done:  E(RHF) =  -496.492701203     A.U. after   10 cycles

 The electronic state is 1-A.
 Alpha  occ. eigenvalues -- -103.98367 -11.39022 -10.37151  -7.83470  -7.83293
 Alpha  occ. eigenvalues --   -7.83293  -1.07180  -0.92383  -0.72424  -0.72420
 Alpha  occ. eigenvalues --   -0.34337  -0.34337  -0.30530
 Alpha virt. eigenvalues --   -0.11911   0.19451   0.24038   0.24042   0.75042
 Alpha virt. eigenvalues --    0.78304   0.78318   0.83560   0.90322   0.90322
 Alpha virt. eigenvalues --    0.94807   1.08986   1.20839   1.20848   1.61333

 Mulliken charges:
               1
     1  C   -0.336141
     2  Cl  -0.610185
     3  H    0.315445
     4  H    0.315454
     5  H    0.315428
 Sum of Mulliken charges =  -0.00000

 Dipole moment (field-independent basis, Debye):
    X=            -11.8459    Y=              0.0001    Z=              0.0000  Tot=             11.8459
 Quadrupole moment (field-independent basis, Debye-Ang):
   XX=             -3.9114   YY=            -20.3775   ZZ=            -20.3791
   XY=              0.0002   XZ=              0.0000   YZ=             -0.0001

 Normal termination of Gaussian 16 at Fri Sep 22 17:21:34 2023.
