 Gaussian 16, Revision A.03,
 Gaussian 16:  ES64L-G16RevA.03 25-Dec-2016

 ----------
 # hf/3-21g
 ----------

 ------------------------
 tmpdir/M2_conf_166_6.gjf
 ------------------------
 Symbolic Z-matrix:
 Charge =  0 Multiplicity = 1

                         Standard orientation:
 ---------------------------------------------------------------------
 Center     Atomic      Atomic             Coordinates (Angstroms)
 Number     Number       Type             X           Y           Z
 ---------------------------------------------------------------------
      1          1           0       -1.068829   -0.001751    1.053683
      2          6           0       -1.205244    0.000032   -0.011012
      3         17           0        0.686656    0.000017   -0.015343
      4          1           0       -1.686261    0.893326   -0.362095
      5          1           0       -1.686605   -0.892052   -0.364687
 ---------------------------------------------------------------------

 SCF Done:  E(RHF) =  -496.664569485     A.U. after   11 cycles

 The electronic state is 1-A.
 Alpha  occ. eigenvalues -- -104.09054 -11.24862 -10.48470  -7.94839  -7.94431
 Alpha  occ. eigenvalues --   -7.94423  -1.11993  -0.93160  -0.64080  -0.63129
 Alpha  occ. eigenvalues --   -0.50660  -0.44204  -0.42931
 Alpha virt. eigenvalues --    0.15266   0.27595   0.31458   0.31563   0.74076
 Alpha virt. eigenvalues --    0.79405   0.80876   0.85289   0.92924   0.96324
 Alpha virt. eigenvalues --    1.01386   1.29482   1.31181   1.32162   1.88506

 Mulliken charges:
               1
     1  H    0.284500
     2  C   -0.706998
     3  Cl  -0.109657
     4  H    0.266084
     5  H    0.266071
 Sum of Mulliken charges =  -0.00000

 Dipole moment (field-independent basis, Debye):
    X=             -2.7796    Y=             -0.0004    Z=              0.2443  Tot=              2.7903
 Quadrupole moment (field-independent basis, Debye-Ang):
   XX=            -18.5189   YY=            -20.1785   ZZ=            -20.4751
   XY=             -0.0006   XZ=              0.5693   YZ=             -0.0001

 Normal termination of Gaussian 16 at Fri Sep 22 17:18:16 2023.
