 Gaussian 16, Revision A.03,
 Gaussian 16:  ES64L-G16RevA.03 25-Dec-2016

 ----------
 # hf/3-21g
 ----------

 ------------------------
 tmpdir/M2_conf_179_6.gjf
 ------------------------
 Symbolic Z-matrix:
 Charge =  0 Multiplicity = 1

                         Standard orientation:
 ---------------------------------------------------------------------
 Center     Atomic      Atomic             Coordinates (Angstroms)
 Number     Number       Type             X           Y           Z
 ---------------------------------------------------------------------
      1          1           0       -1.100886   -0.001988    1.058444
      2          6           0       -1.204833    0.000032   -0.009909
      3         17           0        0.687061    0.000018   -0.014438
      4          1           0       -1.674896    0.893430   -0.375275
      5          1           0       -1.675252   -0.891947   -0.378265
 ---------------------------------------------------------------------

 SCF Done:  E(RHF) =  -496.668338626     A.U. after   11 cycles

 The electronic state is 1-A.
 Alpha  occ. eigenvalues -- -104.09007 -11.24890 -10.48418  -7.94787  -7.94380
 Alpha  occ. eigenvalues --   -7.94374  -1.11877  -0.93187  -0.63974  -0.63140
 Alpha  occ. eigenvalues --   -0.50728  -0.44144  -0.43045
 Alpha virt. eigenvalues --    0.15444   0.27541   0.31441   0.31541   0.74049
 Alpha virt. eigenvalues --    0.79502   0.80925   0.85388   0.92763   0.96153
 Alpha virt. eigenvalues --    1.01204   1.29692   1.31173   1.32224   1.88983

 Mulliken charges:
               1
     1  H    0.283511
     2  C   -0.706580
     3  Cl  -0.109119
     4  H    0.266100
     5  H    0.266087
 Sum of Mulliken charges =  -0.00000

 Dipole moment (field-independent basis, Debye):
    X=             -2.7939    Y=             -0.0004    Z=              0.2253  Tot=              2.8030
 Quadrupole moment (field-independent basis, Debye-Ang):
   XX=            -18.5230   YY=            -20.1798   ZZ=            -20.4333
   XY=             -0.0006   XZ=              0.5365   YZ=             -0.0001

 Normal termination of Gaussian 16 at Fri Sep 22 17:18:36 2023.
