 Gaussian 16, Revision A.03,
 Gaussian 16:  ES64L-G16RevA.03 25-Dec-2016

 ----------
 # hf/3-21g
 ----------

 ------------------------
 tmpdir/M2_conf_268_5.gjf
 ------------------------
 Symbolic Z-matrix:
 Charge =  0 Multiplicity = 1

                         Standard orientation:
 ---------------------------------------------------------------------
 Center     Atomic      Atomic             Coordinates (Angstroms)
 Number     Number       Type             X           Y           Z
 ---------------------------------------------------------------------
      1          1           0       -0.483838   -0.147694    0.937256
      2          6           0       -0.013312    0.023585   -0.012194
      3          1           0       -0.753420   -0.325249   -0.707300
      4          1           0        0.349787    1.028628   -0.115429
      5          1           0        0.967346   -0.697192   -0.041362
 ---------------------------------------------------------------------

 SCF Done:  E(RHF) =  -39.9642179344     A.U. after    9 cycles

 The electronic state is 1-A.
 Alpha  occ. eigenvalues --  -11.15721  -0.93857  -0.57175  -0.53551  -0.50648
 Alpha virt. eigenvalues --    0.28211   0.32337   0.34897   0.36247   0.90456
 Alpha virt. eigenvalues --    0.93454   0.98361   1.24791   1.32686   1.35193
 Alpha virt. eigenvalues --    1.38789   1.94183

 Mulliken charges:
               1
     1  H    0.204350
     2  C   -0.773905
     3  H    0.206847
     4  H    0.208394
     5  H    0.154313
 Sum of Mulliken charges =  -0.00000

 Dipole moment (field-independent basis, Debye):
    X=             -0.1066    Y=              0.0242    Z=              0.0623  Tot=              0.1258
 Quadrupole moment (field-independent basis, Debye-Ang):
   XX=             -8.2863   YY=             -8.4116   ZZ=             -8.7380
   XY=              0.2279   XZ=              0.0239   YZ=             -0.0122

 Normal termination of Gaussian 16 at Fri Sep 22 17:20:56 2023.
