 Gaussian 16, Revision A.03,
 Gaussian 16:  ES64L-G16RevA.03 25-Dec-2016

 ----------
 # hf/3-21g
 ----------

 ------------------------
 tmpdir/M2_conf_184_2.gjf
 ------------------------
 Symbolic Z-matrix:
 Charge =  0 Multiplicity = 1

                         Standard orientation:
 ---------------------------------------------------------------------
 Center     Atomic      Atomic             Coordinates (Angstroms)
 Number     Number       Type             X           Y           Z
 ---------------------------------------------------------------------
      1          6           0        0.032139    0.000014    0.006117
      2          1           0        0.230930   -0.007640    1.027829
      3          1           0        0.380505   -0.887801   -0.486452
      4          1           0        0.375878    0.897301   -0.472780
      5          1           0       -1.180148   -0.001947   -0.105299
 ---------------------------------------------------------------------

 SCF Done:  E(RHF) =  -39.9658481378     A.U. after    9 cycles

 The electronic state is 1-A.
 Alpha  occ. eigenvalues --  -11.15343  -0.94165  -0.56349  -0.55590  -0.50282
 Alpha virt. eigenvalues --    0.28418   0.32411   0.35687   0.36392   0.90442
 Alpha virt. eigenvalues --    0.91993   0.97561   1.25209   1.33391   1.37014
 Alpha virt. eigenvalues --    1.39525   1.95081

 Mulliken charges:
               1
     1  C   -0.774891
     2  H    0.214508
     3  H    0.205237
     4  H    0.205190
     5  H    0.149955
 Sum of Mulliken charges =   0.00000

 Dipole moment (field-independent basis, Debye):
    X=              0.0775    Y=             -0.0001    Z=              0.0254  Tot=              0.0816
 Quadrupole moment (field-independent basis, Debye-Ang):
   XX=             -8.6235   YY=             -8.3579   ZZ=             -8.3849
   XY=             -0.0011   XZ=             -0.0264   YZ=             -0.0005

 Normal termination of Gaussian 16 at Fri Sep 22 17:18:48 2023.
