 Gaussian 16, Revision A.03,
 Gaussian 16:  ES64L-G16RevA.03 25-Dec-2016

 ----------
 # hf/3-21g
 ----------

 -----------------------
 tmpdir/M2_conf_77_4.gjf
 -----------------------
 Symbolic Z-matrix:
 Charge =  0 Multiplicity = 1

                         Standard orientation:
 ---------------------------------------------------------------------
 Center     Atomic      Atomic             Coordinates (Angstroms)
 Number     Number       Type             X           Y           Z
 ---------------------------------------------------------------------
      1          1           0       -0.832482    0.618012   -0.347767
      2          6           0       -0.031602   -0.014950   -0.015896
      3          1           0        0.416614   -0.694830   -0.715531
      4          1           0       -0.281087   -0.559665    0.874973
      5          1           0        0.886569    0.726182    0.283700
 ---------------------------------------------------------------------

 SCF Done:  E(RHF) =  -39.9650110917     A.U. after    9 cycles

 The electronic state is 1-A.
 Alpha  occ. eigenvalues --  -11.15741  -0.93803  -0.56897  -0.54709  -0.49881
 Alpha virt. eigenvalues --    0.28331   0.31961   0.35268   0.36171   0.91020
 Alpha virt. eigenvalues --    0.93396   0.97411   1.25233   1.31953   1.36092
 Alpha virt. eigenvalues --    1.38231   1.94644

 Mulliken charges:
               1
     1  H    0.209042
     2  C   -0.773773
     3  H    0.208703
     4  H    0.206041
     5  H    0.149987
 Sum of Mulliken charges =   0.00000

 Dipole moment (field-independent basis, Debye):
    X=             -0.0232    Y=             -0.0621    Z=              0.0080  Tot=              0.0668
 Quadrupole moment (field-independent basis, Debye-Ang):
   XX=             -8.4422   YY=             -8.4073   ZZ=             -8.6011
   XY=             -0.2491   XZ=             -0.0855   YZ=             -0.0759

 Normal termination of Gaussian 16 at Fri Sep 22 17:16:03 2023.
