 Gaussian 16, Revision A.03,
 Gaussian 16:  ES64L-G16RevA.03 25-Dec-2016

 ----------
 # hf/3-21g
 ----------

 ------------------------
 tmpdir/M2_conf_148_2.gjf
 ------------------------
 Symbolic Z-matrix:
 Charge =  0 Multiplicity = 1

                         Standard orientation:
 ---------------------------------------------------------------------
 Center     Atomic      Atomic             Coordinates (Angstroms)
 Number     Number       Type             X           Y           Z
 ---------------------------------------------------------------------
      1          6           0        0.002525   -0.030607   -0.000016
      2          1           0        1.178223    0.243806   -0.002015
      3          1           0       -0.297154   -0.545873    0.892673
      4          1           0       -0.301158   -0.544320   -0.892483
      5          1           0       -0.595061    1.030028    0.001920
 ---------------------------------------------------------------------

 SCF Done:  E(RHF) =  -39.9582160749     A.U. after    9 cycles

 The electronic state is 1-A.
 Alpha  occ. eigenvalues --  -11.17260  -0.92598  -0.55882  -0.53042  -0.49958
 Alpha virt. eigenvalues --    0.27379   0.30714   0.33836   0.35684   0.91646
 Alpha virt. eigenvalues --    0.95637   1.00343   1.22799   1.25835   1.33789
 Alpha virt. eigenvalues --    1.36593   1.93128

 Mulliken charges:
               1
     1  C   -0.746658
     2  H    0.169178
     3  H    0.210580
     4  H    0.210528
     5  H    0.156373
 Sum of Mulliken charges =   0.00000

 Dipole moment (field-independent basis, Debye):
    X=             -0.0691    Y=             -0.0729    Z=              0.0002  Tot=              0.1005
 Quadrupole moment (field-independent basis, Debye-Ang):
   XX=             -8.4889   YY=             -8.7046   ZZ=             -8.5138
   XY=              0.1398   XZ=              0.0009   YZ=             -0.0008

 Normal termination of Gaussian 16 at Fri Sep 22 17:17:49 2023.
