 Gaussian 16, Revision A.03,
 Gaussian 16:  ES64L-G16RevA.03 25-Dec-2016

 ----------
 # hf/3-21g
 ----------

 ------------------------
 tmpdir/M2_conf_190_6.gjf
 ------------------------
 Symbolic Z-matrix:
 Charge =  0 Multiplicity = 1

                         Standard orientation:
 ---------------------------------------------------------------------
 Center     Atomic      Atomic             Coordinates (Angstroms)
 Number     Number       Type             X           Y           Z
 ---------------------------------------------------------------------
      1          1           0       -0.813554   -0.000787    0.974746
      2          6           0       -1.209666    0.000026   -0.022893
      3         17           0        0.682232    0.000011   -0.020437
      4          1           0       -1.763080    0.892911   -0.244482
      5          1           0       -1.763308   -0.892469   -0.245471
 ---------------------------------------------------------------------

 SCF Done:  E(RHF) =  -496.618655905     A.U. after   11 cycles

 The electronic state is 1-A.
 Alpha  occ. eigenvalues -- -104.09695 -11.24350 -10.49229  -7.95587  -7.95166
 Alpha  occ. eigenvalues --   -7.95138  -1.13625  -0.92802  -0.65195  -0.62943
 Alpha  occ. eigenvalues --   -0.50444  -0.44978  -0.41322
 Alpha virt. eigenvalues --    0.13512   0.28451   0.31731   0.31830   0.74186
 Alpha virt. eigenvalues --    0.78523   0.80419   0.84548   0.94198   0.97536
 Alpha virt. eigenvalues --    1.02653   1.26868   1.31403   1.31423   1.84145

 Mulliken charges:
               1
     1  H    0.292039
     2  C   -0.713167
     3  Cl  -0.113588
     4  H    0.267361
     5  H    0.267355
 Sum of Mulliken charges =  -0.00000

 Dipole moment (field-independent basis, Debye):
    X=             -2.5679    Y=             -0.0003    Z=              0.4092  Tot=              2.6003
 Quadrupole moment (field-independent basis, Debye-Ang):
   XX=            -18.5438   YY=            -20.1496   ZZ=            -20.9137
   XY=             -0.0004   XZ=              0.7284   YZ=             -0.0001

 Normal termination of Gaussian 16 at Fri Sep 22 17:18:57 2023.
