 Gaussian 16, Revision A.03,
 Gaussian 16:  ES64L-G16RevA.03 25-Dec-2016

 ----------
 # hf/3-21g
 ----------

 -----------------------
 tmpdir/M2_conf_13_9.gjf
 -----------------------
 Symbolic Z-matrix:
 Charge =  0 Multiplicity = 1

                         Standard orientation:
 ---------------------------------------------------------------------
 Center     Atomic      Atomic             Coordinates (Angstroms)
 Number     Number       Type             X           Y           Z
 ---------------------------------------------------------------------
      1          1           0        1.389088   -0.034928    1.054322
      2          6           0        1.202564    0.000087   -0.002371
      3         17           0       -0.689340    0.000142   -0.004508
      4          1           0        1.557295   -0.876065   -0.511016
      5          1           0        1.557010    0.908054   -0.452447
 ---------------------------------------------------------------------

 SCF Done:  E(RHF) =  -496.687874614     A.U. after   11 cycles

 The electronic state is 1-A.
 Alpha  occ. eigenvalues -- -104.08788 -11.24996 -10.48178  -7.94552  -7.94148
 Alpha  occ. eigenvalues --   -7.94148  -1.11321  -0.93326  -0.63333  -0.63211
 Alpha  occ. eigenvalues --   -0.51262  -0.43803  -0.43633
 Alpha virt. eigenvalues --    0.16502   0.27338   0.31368   0.31410   0.73846
 Alpha virt. eigenvalues --    0.80339   0.80958   0.85564   0.92917   0.94424
 Alpha virt. eigenvalues --    0.99741   1.31052   1.31196   1.32290   1.91765

 Mulliken charges:
               1
     1  H    0.273875
     2  C   -0.703167
     3  Cl  -0.107033
     4  H    0.268174
     5  H    0.268151
 Sum of Mulliken charges =  -0.00000

 Dipole moment (field-independent basis, Debye):
    X=              2.8613    Y=             -0.0021    Z=              0.0614  Tot=              2.8620
 Quadrupole moment (field-independent basis, Debye-Ang):
   XX=            -18.5646   YY=            -20.1825   ZZ=            -20.1995
   XY=              0.0051   XZ=             -0.1684   YZ=             -0.0002

 Normal termination of Gaussian 16 at Fri Sep 22 17:14:26 2023.
