 Gaussian 16, Revision A.03,
 Gaussian 16:  ES64L-G16RevA.03 25-Dec-2016

 ----------
 # hf/3-21g
 ----------

 ------------------------
 tmpdir/M2_conf_227_6.gjf
 ------------------------
 Symbolic Z-matrix:
 Charge =  0 Multiplicity = 1

                         Standard orientation:
 ---------------------------------------------------------------------
 Center     Atomic      Atomic             Coordinates (Angstroms)
 Number     Number       Type             X           Y           Z
 ---------------------------------------------------------------------
      1          1           0       -1.315106   -0.007062    1.063497
      2          6           0       -1.202910    0.000044   -0.004000
      3         17           0        0.688989    0.000038   -0.007309
      4          1           0       -1.589905    0.895751   -0.451833
      5          1           0       -1.590336   -0.889591   -0.463411
 ---------------------------------------------------------------------

 SCF Done:  E(RHF) =  -496.685077594     A.U. after   11 cycles

 The electronic state is 1-A.
 Alpha  occ. eigenvalues -- -104.08816 -11.24985 -10.48208  -7.94582  -7.94177
 Alpha  occ. eigenvalues --   -7.94176  -1.11395  -0.93306  -0.63443  -0.63192
 Alpha  occ. eigenvalues --   -0.51163  -0.43865  -0.43538
 Alpha virt. eigenvalues --    0.16331   0.27355   0.31376   0.31434   0.73883
 Alpha virt. eigenvalues --    0.80126   0.81041   0.85628   0.92567   0.94904
 Alpha virt. eigenvalues --    1.00044   1.30783   1.31173   1.32369   1.91340

 Mulliken charges:
               1
     1  H    0.276503
     2  C   -0.703931
     3  Cl  -0.107159
     4  H    0.267302
     5  H    0.267284
 Sum of Mulliken charges =  -0.00000

 Dipole moment (field-independent basis, Debye):
    X=             -2.8524    Y=             -0.0006    Z=              0.1025  Tot=              2.8543
 Quadrupole moment (field-independent basis, Debye-Ang):
   XX=            -18.5562   YY=            -20.1825   ZZ=            -20.2351
   XY=             -0.0013   XZ=              0.2725   YZ=             -0.0001

 Normal termination of Gaussian 16 at Fri Sep 22 17:19:53 2023.
