 Gaussian 16, Revision A.03,
 Gaussian 16:  ES64L-G16RevA.03 25-Dec-2016

 ----------
 # hf/3-21g
 ----------

 -----------------------
 tmpdir/M2_conf_29_5.gjf
 -----------------------
 Symbolic Z-matrix:
 Charge =  0 Multiplicity = 1

                         Standard orientation:
 ---------------------------------------------------------------------
 Center     Atomic      Atomic             Coordinates (Angstroms)
 Number     Number       Type             X           Y           Z
 ---------------------------------------------------------------------
      1          1           0        1.060574    0.030479   -0.310361
      2          6           0        0.026487   -0.029582   -0.028859
      3          1           0       -0.802152   -0.213570   -0.686219
      4          1           0       -0.139414   -0.712705    0.782578
      5          1           0       -0.277931    1.073289    0.387154
 ---------------------------------------------------------------------

 SCF Done:  E(RHF) =  -39.9591769163     A.U. after    9 cycles

 The electronic state is 1-A.
 Alpha  occ. eigenvalues --  -11.15769  -0.93906  -0.58258  -0.53787  -0.49205
 Alpha virt. eigenvalues --    0.28294   0.31356   0.34853   0.36678   0.90258
 Alpha virt. eigenvalues --    0.95677   0.97285   1.25344   1.31269   1.35428
 Alpha virt. eigenvalues --    1.39813   1.94496

 Mulliken charges:
               1
     1  H    0.214033
     2  C   -0.783752
     3  H    0.214664
     4  H    0.206227
     5  H    0.148827
 Sum of Mulliken charges =  -0.00000

 Dipole moment (field-independent basis, Debye):
    X=             -0.0571    Y=             -0.0644    Z=              0.0301  Tot=              0.0911
 Quadrupole moment (field-independent basis, Debye-Ang):
   XX=             -7.9450   YY=             -8.6649   ZZ=             -8.8646
   XY=              0.1106   XZ=              0.0281   YZ=             -0.1510

 Normal termination of Gaussian 16 at Fri Sep 22 17:14:50 2023.
