 Gaussian 16, Revision A.03,
 Gaussian 16:  ES64L-G16RevA.03 25-Dec-2016

 ----------
 # hf/3-21g
 ----------

 ------------------------
 tmpdir/M2_conf_263_8.gjf
 ------------------------
 Symbolic Z-matrix:
 Charge =  0 Multiplicity = 1

                         Standard orientation:
 ---------------------------------------------------------------------
 Center     Atomic      Atomic             Coordinates (Angstroms)
 Number     Number       Type             X           Y           Z
 ---------------------------------------------------------------------
      1          1           0        0.359386   -0.000002    0.567850
      2          6           0        1.224623    0.000022   -0.067745
      3         17           0       -0.666515   -0.000009   -0.013911
      4          1           0        1.811642    0.892489    0.037557
      5          1           0        1.811996   -0.892461    0.037549
 ---------------------------------------------------------------------

 SCF Done:  E(RHF) =  -496.394181105     A.U. after   12 cycles

 The electronic state is 1-A.
 Alpha  occ. eigenvalues -- -104.14932 -11.19208 -10.55312  -8.01751  -8.01049
 Alpha  occ. eigenvalues --   -8.00995  -1.27099  -0.90528  -0.69456  -0.60956
 Alpha  occ. eigenvalues --   -0.54383  -0.49436  -0.33019
 Alpha virt. eigenvalues --    0.10251   0.32904   0.34096   0.37972   0.68738
 Alpha virt. eigenvalues --    0.72804   0.75068   0.78884   0.93073   0.99462
 Alpha virt. eigenvalues --    1.05773   1.22962   1.34365   1.36085   1.82821

 Mulliken charges:
               1
     1  H    0.241359
     2  C   -0.824547
     3  Cl   0.043230
     4  H    0.269995
     5  H    0.269964
 Sum of Mulliken charges =  -0.00000

 Dipole moment (field-independent basis, Debye):
    X=              0.5427    Y=              0.0000    Z=              1.1159  Tot=              1.2409
 Quadrupole moment (field-independent basis, Debye-Ang):
   XX=            -19.2950   YY=            -19.7066   ZZ=            -22.2031
   XY=             -0.0003   XZ=              0.5622   YZ=              0.0001

 Normal termination of Gaussian 16 at Fri Sep 22 17:20:48 2023.
