 Gaussian 16, Revision A.03,
 Gaussian 16:  ES64L-G16RevA.03 25-Dec-2016

 ----------
 # hf/3-21g
 ----------

 ------------------------
 tmpdir/M2_conf_239_3.gjf
 ------------------------
 Symbolic Z-matrix:
 Charge =  0 Multiplicity = 1

                         Standard orientation:
 ---------------------------------------------------------------------
 Center     Atomic      Atomic             Coordinates (Angstroms)
 Number     Number       Type             X           Y           Z
 ---------------------------------------------------------------------
      1          6           0       -2.235891    0.000008    0.000008
      2         17           0        1.236709   -0.000008   -0.000002
      3          1           0       -2.536260   -0.278196    0.992266
      4          1           0       -2.535947    0.998716   -0.255263
      5          1           0       -2.536497   -0.720437   -0.737023
 ---------------------------------------------------------------------

 SCF Done:  E(RHF) =  -496.521885989     A.U. after   11 cycles

 The electronic state is 1-A.
 Alpha  occ. eigenvalues -- -104.00532 -11.37538 -10.39257  -7.85576  -7.85384
 Alpha  occ. eigenvalues --   -7.85384  -1.05652  -0.94155  -0.70858  -0.70853
 Alpha  occ. eigenvalues --   -0.36059  -0.36059  -0.32900
 Alpha virt. eigenvalues --   -0.09282   0.20689   0.25362   0.25366   0.72808
 Alpha virt. eigenvalues --    0.79236   0.79249   0.83572   0.89542   0.89543
 Alpha virt. eigenvalues --    0.97657   1.12596   1.22276   1.22286   1.64093

 Mulliken charges:
               1
     1  C   -0.342238
     2  Cl  -0.577248
     3  H    0.306499
     4  H    0.306507
     5  H    0.306479
 Sum of Mulliken charges =  -0.00000

 Dipole moment (field-independent basis, Debye):
    X=             -9.9728    Y=              0.0001    Z=              0.0001  Tot=              9.9728
 Quadrupole moment (field-independent basis, Debye-Ang):
   XX=             -7.2507   YY=            -20.3913   ZZ=            -20.3929
   XY=              0.0002   XZ=              0.0000   YZ=             -0.0001

 Normal termination of Gaussian 16 at Fri Sep 22 17:20:11 2023.
