 Gaussian 16, Revision A.03,
 Gaussian 16:  ES64L-G16RevA.03 25-Dec-2016

 ----------
 # hf/3-21g
 ----------

 -----------------------
 tmpdir/M2_conf_30_7.gjf
 -----------------------
 Symbolic Z-matrix:
 Charge =  0 Multiplicity = 1

                         Standard orientation:
 ---------------------------------------------------------------------
 Center     Atomic      Atomic             Coordinates (Angstroms)
 Number     Number       Type             X           Y           Z
 ---------------------------------------------------------------------
      1          1           0        0.468354   -0.170473    0.944206
      2          6           0        0.016250    0.022016   -0.010345
      3          1           0        0.724842   -0.367721   -0.716469
      4          1           0       -0.285673    1.045908   -0.122873
      5          1           0       -1.005021   -0.639810   -0.042796
 ---------------------------------------------------------------------

 SCF Done:  E(RHF) =  -39.9650159059     A.U. after    9 cycles

 The electronic state is 1-A.
 Alpha  occ. eigenvalues --  -11.15720  -0.93836  -0.56961  -0.53846  -0.50608
 Alpha virt. eigenvalues --    0.28233   0.32340   0.35004   0.36184   0.90609
 Alpha virt. eigenvalues --    0.93242   0.98226   1.24830   1.32727   1.35387
 Alpha virt. eigenvalues --    1.38500   1.94296

 Mulliken charges:
               1
     1  H    0.204527
     2  C   -0.773021
     3  H    0.206586
     4  H    0.208063
     5  H    0.153845
 Sum of Mulliken charges =   0.00000

 Dipole moment (field-independent basis, Debye):
    X=              0.1004    Y=              0.0212    Z=              0.0533  Tot=              0.1156
 Quadrupole moment (field-independent basis, Debye-Ang):
   XX=             -8.3504   YY=             -8.3956   ZZ=             -8.6887
   XY=             -0.2181   XZ=             -0.0241   YZ=             -0.0109

 Normal termination of Gaussian 16 at Fri Sep 22 17:14:52 2023.
