 Gaussian 16, Revision A.03,
 Gaussian 16:  ES64L-G16RevA.03 25-Dec-2016

 ----------
 # hf/3-21g
 ----------

 ------------------------
 tmpdir/M2_conf_143_3.gjf
 ------------------------
 Symbolic Z-matrix:
 Charge =  0 Multiplicity = 1

                         Standard orientation:
 ---------------------------------------------------------------------
 Center     Atomic      Atomic             Coordinates (Angstroms)
 Number     Number       Type             X           Y           Z
 ---------------------------------------------------------------------
      1          6           0       -1.486126    0.000015    0.000010
      2         17           0        0.839774   -0.000012   -0.000003
      3          1           0       -1.786494   -0.278188    0.992268
      4          1           0       -1.786176    0.998725   -0.255259
      5          1           0       -1.786738   -0.720428   -0.737022
 ---------------------------------------------------------------------

 SCF Done:  E(RHF) =  -496.652126204     A.U. after   10 cycles

 The electronic state is 1-A.
 Alpha  occ. eigenvalues -- -104.07618 -11.29467 -10.46327  -7.92651  -7.92383
 Alpha  occ. eigenvalues --   -7.92383  -1.03986  -0.96948  -0.64299  -0.64294
 Alpha  occ. eigenvalues --   -0.44301  -0.42162  -0.42162
 Alpha virt. eigenvalues --    0.04810   0.25572   0.30318   0.30321   0.73294
 Alpha virt. eigenvalues --    0.78911   0.78917   0.88359   0.93418   0.93427
 Alpha virt. eigenvalues --    1.01507   1.27638   1.28714   1.28723   1.81213

 Mulliken charges:
               1
     1  C   -0.486337
     2  Cl  -0.328108
     3  H    0.271497
     4  H    0.271491
     5  H    0.271457
 Sum of Mulliken charges =   0.00000

 Dipole moment (field-independent basis, Debye):
    X=             -4.5823    Y=              0.0001    Z=              0.0001  Tot=              4.5823
 Quadrupole moment (field-independent basis, Debye-Ang):
   XX=            -15.6123   YY=            -20.4002   ZZ=            -20.4016
   XY=              0.0005   XZ=             -0.0001   YZ=             -0.0001

 Normal termination of Gaussian 16 at Fri Sep 22 17:17:41 2023.
