 Gaussian 16, Revision A.03,
 Gaussian 16:  ES64L-G16RevA.03 25-Dec-2016

 ----------
 # hf/3-21g
 ----------

 ------------------------
 tmpdir/M2_conf_166_0.gjf
 ------------------------
 Symbolic Z-matrix:
 Charge =  0 Multiplicity = 1

                         Standard orientation:
 ---------------------------------------------------------------------
 Center     Atomic      Atomic             Coordinates (Angstroms)
 Number     Number       Type             X           Y           Z
 ---------------------------------------------------------------------
      1          6           0        0.012746   -0.027572    0.000056
      2          1           0        1.067446    0.460364    0.001388
      3          1           0       -0.180274   -0.591293    0.893133
      4          1           0       -0.176482   -0.593783   -0.892245
      5          1           0       -0.787165    0.890147   -0.002614
 ---------------------------------------------------------------------

 SCF Done:  E(RHF) =  -39.9630188050     A.U. after    9 cycles

 The electronic state is 1-A.
 Alpha  occ. eigenvalues --  -11.16754  -0.92927  -0.55791  -0.53822  -0.50142
 Alpha virt. eigenvalues --    0.27839   0.31338   0.34239   0.35685   0.91737
 Alpha virt. eigenvalues --    0.95038   0.98815   1.24242   1.27431   1.34261
 Alpha virt. eigenvalues --    1.36713   1.93643

 Mulliken charges:
               1
     1  C   -0.755893
     2  H    0.182412
     3  H    0.209328
     4  H    0.209326
     5  H    0.154827
 Sum of Mulliken charges =  -0.00000

 Dipole moment (field-independent basis, Debye):
    X=             -0.0159    Y=             -0.0728    Z=              0.0001  Tot=              0.0745
 Quadrupole moment (field-independent basis, Debye-Ang):
   XX=             -8.5384   YY=             -8.6086   ZZ=             -8.4737
   XY=              0.1586   XZ=             -0.0010   YZ=              0.0007

 Normal termination of Gaussian 16 at Fri Sep 22 17:18:16 2023.
