 Gaussian 16, Revision A.03,
 Gaussian 16:  ES64L-G16RevA.03 25-Dec-2016

 ----------
 # hf/3-21g
 ----------

 ------------------------
 tmpdir/M2_conf_280_8.gjf
 ------------------------
 Symbolic Z-matrix:
 Charge =  0 Multiplicity = 1

                         Standard orientation:
 ---------------------------------------------------------------------
 Center     Atomic      Atomic             Coordinates (Angstroms)
 Number     Number       Type             X           Y           Z
 ---------------------------------------------------------------------
      1          1           0        0.552451    0.000064    0.800019
      2          6           0        1.216777    0.000017   -0.043360
      3         17           0       -0.674981   -0.000011   -0.020165
      4          1           0        1.810610    0.892483   -0.098550
      5          1           0        1.810957   -0.892467   -0.098495
 ---------------------------------------------------------------------

 SCF Done:  E(RHF) =  -496.526279409     A.U. after   12 cycles

 The electronic state is 1-A.
 Alpha  occ. eigenvalues -- -104.11438 -11.22516 -10.51349  -7.97708  -7.97221
 Alpha  occ. eigenvalues --   -7.97157  -1.18141  -0.91875  -0.67045  -0.62196
 Alpha  occ. eigenvalues --   -0.51730  -0.46832  -0.37540
 Alpha virt. eigenvalues --    0.11348   0.30718   0.32601   0.33060   0.73635
 Alpha virt. eigenvalues --    0.77101   0.79608   0.84120   0.91907   0.98542
 Alpha virt. eigenvalues --    1.03931   1.20740   1.31521   1.32385   1.81025

 Mulliken charges:
               1
     1  H    0.292981
     2  C   -0.746036
     3  Cl  -0.087682
     4  H    0.270387
     5  H    0.270350
 Sum of Mulliken charges =   0.00000

 Dipole moment (field-independent basis, Debye):
    X=              1.9023    Y=              0.0001    Z=              0.6619  Tot=              2.0142
 Quadrupole moment (field-independent basis, Debye-Ang):
   XX=            -18.8441   YY=            -20.0193   ZZ=            -21.5426
   XY=             -0.0003   XZ=             -0.4935   YZ=              0.0000

 Normal termination of Gaussian 16 at Fri Sep 22 17:21:14 2023.
