 Gaussian 16, Revision A.03,
 Gaussian 16:  ES64L-G16RevA.03 25-Dec-2016

 ----------
 # hf/3-21g
 ----------

 ------------------------
 tmpdir/M2_conf_118_1.gjf
 ------------------------
 Symbolic Z-matrix:
 Charge =  0 Multiplicity = 1

                         Standard orientation:
 ---------------------------------------------------------------------
 Center     Atomic      Atomic             Coordinates (Angstroms)
 Number     Number       Type             X           Y           Z
 ---------------------------------------------------------------------
      1          6           0       -0.030435   -0.006266    0.000058
      2          1           0       -0.471102    0.998534   -0.006034
      3          1           0       -0.260955   -0.550474    0.896094
      4          1           0       -0.262022   -0.562037   -0.888812
      5          1           0        1.176686    0.151571   -0.001598
 ---------------------------------------------------------------------

 SCF Done:  E(RHF) =  -39.9667785153     A.U. after    9 cycles

 The electronic state is 1-A.
 Alpha  occ. eigenvalues --  -11.16001  -0.93522  -0.55673  -0.55135  -0.50252
 Alpha virt. eigenvalues --    0.28227   0.32055   0.35222   0.35687   0.91860
 Alpha virt. eigenvalues --    0.92939   0.97762   1.24941   1.31325   1.35723
 Alpha virt. eigenvalues --    1.36886   1.94370

 Mulliken charges:
               1
     1  C   -0.767218
     2  H    0.200310
     3  H    0.207317
     4  H    0.207261
     5  H    0.152330
 Sum of Mulliken charges =   0.00000

 Dipole moment (field-independent basis, Debye):
    X=             -0.0617    Y=             -0.0228    Z=              0.0003  Tot=              0.0658
 Quadrupole moment (field-independent basis, Debye-Ang):
   XX=             -8.6732   YY=             -8.4010   ZZ=             -8.4138
   XY=             -0.0391   XZ=              0.0004   YZ=              0.0002

 Normal termination of Gaussian 16 at Fri Sep 22 17:17:03 2023.
