 Gaussian 16, Revision A.03,
 Gaussian 16:  ES64L-G16RevA.03 25-Dec-2016

 ----------
 # hf/3-21g
 ----------

 -----------------------
 tmpdir/M2_conf_85_9.gjf
 -----------------------
 Symbolic Z-matrix:
 Charge =  0 Multiplicity = 1

                         Standard orientation:
 ---------------------------------------------------------------------
 Center     Atomic      Atomic             Coordinates (Angstroms)
 Number     Number       Type             X           Y           Z
 ---------------------------------------------------------------------
      1          1           0        1.471203   -0.405400    0.956362
      2          6           0        1.202369    0.000267   -0.000602
      3         17           0       -0.689527    0.000488   -0.001172
      4          1           0        1.518432   -0.624102   -0.814521
      5          1           0        1.518102    1.019611   -0.118305
 ---------------------------------------------------------------------

 SCF Done:  E(RHF) =  -496.689359703     A.U. after   11 cycles

 The electronic state is 1-A.
 Alpha  occ. eigenvalues -- -104.08774 -11.25001 -10.48163  -7.94537  -7.94134
 Alpha  occ. eigenvalues --   -7.94134  -1.11283  -0.93336  -0.63259  -0.63235
 Alpha  occ. eigenvalues --   -0.51319  -0.43746  -0.43706
 Alpha virt. eigenvalues --    0.16598   0.27332   0.31372   0.31386   0.73826
 Alpha virt. eigenvalues --    0.80585   0.80775   0.85504   0.93446   0.93877
 Alpha virt. eigenvalues --    0.99545   1.31216   1.31222   1.32206   1.91990

 Mulliken charges:
               1
     1  H    0.270976
     2  C   -0.702663
     3  Cl  -0.107042
     4  H    0.269376
     5  H    0.269353
 Sum of Mulliken charges =   0.00000

 Dipole moment (field-independent basis, Debye):
    X=              2.8659    Y=             -0.0066    Z=              0.0155  Tot=              2.8660
 Quadrupole moment (field-independent basis, Debye-Ang):
   XX=            -18.5696   YY=            -20.1807   ZZ=            -20.1819
   XY=              0.0180   XZ=             -0.0440   YZ=             -0.0005

 Normal termination of Gaussian 16 at Fri Sep 22 17:16:14 2023.
