 Gaussian 16, Revision A.03,
 Gaussian 16:  ES64L-G16RevA.03 25-Dec-2016

 ----------
 # hf/3-21g
 ----------

 -----------------------
 tmpdir/M2_conf_62_8.gjf
 -----------------------
 Symbolic Z-matrix:
 Charge =  0 Multiplicity = 1

                         Standard orientation:
 ---------------------------------------------------------------------
 Center     Atomic      Atomic             Coordinates (Angstroms)
 Number     Number       Type             X           Y           Z
 ---------------------------------------------------------------------
      1          1           0       -1.340118   -0.008899    1.061339
      2          6           0       -1.202774    0.000016   -0.003403
      3         17           0        0.689121    0.000059   -0.006380
      4          1           0       -1.579054   -0.888543   -0.473567
      5          1           0       -1.579247    0.896347   -0.458899
 ---------------------------------------------------------------------

 SCF Done:  E(RHF) =  -496.686182929     A.U. after   11 cycles

 The electronic state is 1-A.
 Alpha  occ. eigenvalues -- -104.08805 -11.24990 -10.48196  -7.94570  -7.94165
 Alpha  occ. eigenvalues --   -7.94164  -1.11365  -0.93313  -0.63404  -0.63197
 Alpha  occ. eigenvalues --   -0.51200  -0.43842  -0.43573
 Alpha virt. eigenvalues --    0.16398   0.27346   0.31373   0.31425   0.73869
 Alpha virt. eigenvalues --    0.80196   0.81024   0.85610   0.92674   0.94735
 Alpha virt. eigenvalues --    0.99932   1.30892   1.31182   1.32334   1.91506

 Mulliken charges:
               1
     1  H    0.275597
     2  C   -0.703643
     3  Cl  -0.107097
     4  H    0.267596
     5  H    0.267548
 Sum of Mulliken charges =  -0.00000

 Dipole moment (field-independent basis, Debye):
    X=             -2.8560    Y=             -0.0009    Z=              0.0883  Tot=              2.8573
 Quadrupole moment (field-independent basis, Debye-Ang):
   XX=            -18.5596   YY=            -20.1835   ZZ=            -20.2201
   XY=             -0.0020   XZ=              0.2384   YZ=              0.0000

 Normal termination of Gaussian 16 at Fri Sep 22 17:15:40 2023.
