 Gaussian 16, Revision A.03,
 Gaussian 16:  ES64L-G16RevA.03 25-Dec-2016

 ----------
 # hf/3-21g
 ----------

 ----------------------
 tmpdir/M2_conf_5_5.gjf
 ----------------------
 Symbolic Z-matrix:
 Charge =  0 Multiplicity = 1

                         Standard orientation:
 ---------------------------------------------------------------------
 Center     Atomic      Atomic             Coordinates (Angstroms)
 Number     Number       Type             X           Y           Z
 ---------------------------------------------------------------------
      1          1           0        1.087267    0.005247   -0.257506
      2          6           0        0.036513   -0.029582   -0.040964
      3          1           0       -0.851091   -0.135468   -0.635577
      4          1           0       -0.203054   -0.751088    0.717090
      5          1           0       -0.252202    1.058800    0.421777
 ---------------------------------------------------------------------

 SCF Done:  E(RHF) =  -39.9483876965     A.U. after    9 cycles

 The electronic state is 1-A.
 Alpha  occ. eigenvalues --  -11.15810  -0.94107  -0.59628  -0.53058  -0.48098
 Alpha virt. eigenvalues --    0.28183   0.30303   0.34557   0.37162   0.89856
 Alpha virt. eigenvalues --    0.97198   0.98941   1.25197   1.30602   1.35012
 Alpha virt. eigenvalues --    1.41747   1.94278

 Mulliken charges:
               1
     1  H    0.222589
     2  C   -0.802850
     3  H    0.225689
     4  H    0.206704
     5  H    0.147868
 Sum of Mulliken charges =   0.00000

 Dipole moment (field-independent basis, Debye):
    X=             -0.1042    Y=             -0.0650    Z=              0.0613  Tot=              0.1373
 Quadrupole moment (field-independent basis, Debye-Ang):
   XX=             -7.6683   YY=             -8.6909   ZZ=             -9.1521
   XY=              0.0993   XZ=              0.0239   YZ=             -0.1659

 Normal termination of Gaussian 16 at Fri Sep 22 17:14:14 2023.
