 Gaussian 16, Revision A.03,
 Gaussian 16:  ES64L-G16RevA.03 25-Dec-2016

 ----------
 # hf/3-21g
 ----------

 -----------------------
 tmpdir/M2_conf_71_7.gjf
 -----------------------
 Symbolic Z-matrix:
 Charge =  0 Multiplicity = 1

                         Standard orientation:
 ---------------------------------------------------------------------
 Center     Atomic      Atomic             Coordinates (Angstroms)
 Number     Number       Type             X           Y           Z
 ---------------------------------------------------------------------
      1          1           0        0.427710   -0.226729    0.957352
      2          6           0        0.022629    0.016952   -0.006571
      3          1           0        0.636673   -0.477388   -0.735395
      4          1           0       -0.108113    1.073713   -0.141985
      5          1           0       -1.092047   -0.471311   -0.040547
 ---------------------------------------------------------------------

 SCF Done:  E(RHF) =  -39.9662331413     A.U. after    9 cycles

 The electronic state is 1-A.
 Alpha  occ. eigenvalues --  -11.15720  -0.93803  -0.56516  -0.54454  -0.50513
 Alpha virt. eigenvalues --    0.28271   0.32328   0.35233   0.36035   0.90966
 Alpha virt. eigenvalues --    0.92805   0.97984   1.24909   1.32712   1.35863
 Alpha virt. eigenvalues --    1.37931   1.94473

 Mulliken charges:
               1
     1  H    0.205048
     2  C   -0.771577
     3  H    0.206212
     4  H    0.207386
     5  H    0.152930
 Sum of Mulliken charges =   0.00000

 Dipole moment (field-independent basis, Debye):
    X=              0.0891    Y=              0.0134    Z=              0.0352  Tot=              0.0968
 Quadrupole moment (field-independent basis, Debye-Ang):
   XX=             -8.4853   YY=             -8.3605   ZZ=             -8.5880
   XY=             -0.1758   XZ=             -0.0221   YZ=             -0.0068

 Normal termination of Gaussian 16 at Fri Sep 22 17:15:54 2023.
