 Gaussian 16, Revision A.03,
 Gaussian 16:  ES64L-G16RevA.03 25-Dec-2016

 ----------
 # hf/3-21g
 ----------

 ------------------------
 tmpdir/M2_conf_299_7.gjf
 ------------------------
 Symbolic Z-matrix:
 Charge =  0 Multiplicity = 1

                         Standard orientation:
 ---------------------------------------------------------------------
 Center     Atomic      Atomic             Coordinates (Angstroms)
 Number     Number       Type             X           Y           Z
 ---------------------------------------------------------------------
      1          1           0       -0.328177    0.977709   -0.331000
      2          6           0       -0.031765    0.000217   -0.000446
      3          1           0       -0.325587   -0.774168   -0.683545
      4          1           0       -0.341232   -0.204152    1.006846
      5          1           0        1.185586   -0.000691    0.010377
 ---------------------------------------------------------------------

 SCF Done:  E(RHF) =  -39.9669362833     A.U. after    9 cycles

 The electronic state is 1-A.
 Alpha  occ. eigenvalues --  -11.15726  -0.93776  -0.55669  -0.55613  -0.50262
 Alpha virt. eigenvalues --    0.28319   0.32226   0.35678   0.35698   0.91888
 Alpha virt. eigenvalues --    0.91956   0.97629   1.25072   1.32442   1.36921
 Alpha virt. eigenvalues --    1.36968   1.94652

 Mulliken charges:
               1
     1  H    0.206474
     2  C   -0.770703
     3  H    0.206447
     4  H    0.206463
     5  H    0.151319
 Sum of Mulliken charges =   0.00000

 Dipole moment (field-independent basis, Debye):
    X=             -0.0704    Y=             -0.0008    Z=              0.0001  Tot=              0.0704
 Quadrupole moment (field-independent basis, Debye-Ang):
   XX=             -8.6586   YY=             -8.3847   ZZ=             -8.3947
   XY=              0.0001   XZ=             -0.0044   YZ=             -0.0002

 Normal termination of Gaussian 16 at Fri Sep 22 17:21:47 2023.
