 Gaussian 16, Revision A.03,
 Gaussian 16:  ES64L-G16RevA.03 25-Dec-2016

 ----------
 # hf/3-21g
 ----------

 ------------------------
 tmpdir/M2_conf_145_1.gjf
 ------------------------
 Symbolic Z-matrix:
 Charge =  0 Multiplicity = 1

                         Standard orientation:
 ---------------------------------------------------------------------
 Center     Atomic      Atomic             Coordinates (Angstroms)
 Number     Number       Type             X           Y           Z
 ---------------------------------------------------------------------
      1          6           0       -0.031303   -0.002307    0.000057
      2          1           0       -0.378838    1.023848   -0.013989
      3          1           0       -0.308444   -0.517575    0.899986
      4          1           0       -0.309858   -0.542748   -0.884779
      5          1           0        1.184956    0.050316   -0.001561
 ---------------------------------------------------------------------

 SCF Done:  E(RHF) =  -39.9669678688     A.U. after    9 cycles

 The electronic state is 1-A.
 Alpha  occ. eigenvalues --  -11.15841  -0.93667  -0.55651  -0.55426  -0.50263
 Alpha virt. eigenvalues --    0.28282   0.32162   0.35487   0.35687   0.91890
 Alpha virt. eigenvalues --    0.92358   0.97679   1.25018   1.32028   1.36360
 Alpha virt. eigenvalues --    1.36919   1.94530

 Mulliken charges:
               1
     1  C   -0.769274
     2  H    0.203889
     3  H    0.206836
     4  H    0.206780
     5  H    0.151768
 Sum of Mulliken charges =   0.00000

 Dipole moment (field-independent basis, Debye):
    X=             -0.0677    Y=             -0.0090    Z=              0.0003  Tot=              0.0683
 Quadrupole moment (field-independent basis, Debye-Ang):
   XX=             -8.6656   YY=             -8.3928   ZZ=             -8.4006
   XY=             -0.0126   XZ=              0.0004   YZ=              0.0002

 Normal termination of Gaussian 16 at Fri Sep 22 17:17:44 2023.
