 Gaussian 16, Revision A.03,
 Gaussian 16:  ES64L-G16RevA.03 25-Dec-2016

 ----------
 # hf/3-21g
 ----------

 ------------------------
 tmpdir/M2_conf_210_3.gjf
 ------------------------
 Symbolic Z-matrix:
 Charge =  0 Multiplicity = 1

                         Standard orientation:
 ---------------------------------------------------------------------
 Center     Atomic      Atomic             Coordinates (Angstroms)
 Number     Number       Type             X           Y           Z
 ---------------------------------------------------------------------
      1          6           0       -1.976314    0.000010    0.000009
      2         17           0        1.099286   -0.000009   -0.000002
      3          1           0       -2.276683   -0.278194    0.992266
      4          1           0       -2.276369    0.998718   -0.255262
      5          1           0       -2.276921   -0.720435   -0.737023
 ---------------------------------------------------------------------

 SCF Done:  E(RHF) =  -496.558021446     A.U. after   10 cycles

 The electronic state is 1-A.
 Alpha  occ. eigenvalues -- -104.02873 -11.35467 -10.41537  -7.87854  -7.87648
 Alpha  occ. eigenvalues --   -7.87648  -1.03811  -0.96091  -0.68873  -0.68868
 Alpha  occ. eigenvalues --   -0.37959  -0.37959  -0.35796
 Alpha virt. eigenvalues --   -0.05890   0.22181   0.26952   0.26956   0.72372
 Alpha virt. eigenvalues --    0.79293   0.79303   0.85283   0.90136   0.90141
 Alpha virt. eigenvalues --    0.98242   1.18097   1.24101   1.24110   1.68985

 Mulliken charges:
               1
     1  C   -0.356927
     2  Cl  -0.525291
     3  H    0.294079
     4  H    0.294085
     5  H    0.294055
 Sum of Mulliken charges =  -0.00000

 Dipole moment (field-independent basis, Debye):
    X=             -8.1222    Y=              0.0001    Z=              0.0001  Tot=              8.1222
 Quadrupole moment (field-independent basis, Debye-Ang):
   XX=            -10.1612   YY=            -20.4097   ZZ=            -20.4112
   XY=              0.0002   XZ=             -0.0000   YZ=             -0.0001

 Normal termination of Gaussian 16 at Fri Sep 22 17:19:27 2023.
