 Gaussian 16, Revision A.03,
 Gaussian 16:  ES64L-G16RevA.03 25-Dec-2016

 ----------
 # hf/3-21g
 ----------

 ------------------------
 tmpdir/M2_conf_292_3.gjf
 ------------------------
 Symbolic Z-matrix:
 Charge =  0 Multiplicity = 1

                         Standard orientation:
 ---------------------------------------------------------------------
 Center     Atomic      Atomic             Coordinates (Angstroms)
 Number     Number       Type             X           Y           Z
 ---------------------------------------------------------------------
      1          6           0       -2.528291    0.000007    0.000008
      2         17           0        1.391509   -0.000007   -0.000002
      3          1           0       -2.828660   -0.278197    0.992265
      4          1           0       -2.828348    0.998714   -0.255263
      5          1           0       -2.828895   -0.720439   -0.737023
 ---------------------------------------------------------------------

 SCF Done:  E(RHF) =  -496.492075124     A.U. after   10 cycles

 The electronic state is 1-A.
 Alpha  occ. eigenvalues -- -103.98319 -11.39051 -10.37103  -7.83422  -7.83246
 Alpha  occ. eigenvalues --   -7.83246  -1.07212  -0.92343  -0.72457  -0.72452
 Alpha  occ. eigenvalues --   -0.34298  -0.34298  -0.30478
 Alpha virt. eigenvalues --   -0.11966   0.19424   0.24010   0.24014   0.75107
 Alpha virt. eigenvalues --    0.78277   0.78291   0.83569   0.90350   0.90350
 Alpha virt. eigenvalues --    0.94731   1.08927   1.20809   1.20819   1.61287

 Mulliken charges:
               1
     1  C   -0.336056
     2  Cl  -0.610770
     3  H    0.315611
     4  H    0.315620
     5  H    0.315594
 Sum of Mulliken charges =  -0.00000

 Dipole moment (field-independent basis, Debye):
    X=            -11.8911    Y=              0.0001    Z=              0.0000  Tot=             11.8911
 Quadrupole moment (field-independent basis, Debye-Ang):
   XX=             -3.8223   YY=            -20.3772   ZZ=            -20.3789
   XY=              0.0002   XZ=              0.0000   YZ=             -0.0001

 Normal termination of Gaussian 16 at Fri Sep 22 17:21:37 2023.
