 Gaussian 16, Revision A.03,
 Gaussian 16:  ES64L-G16RevA.03 25-Dec-2016

 ----------
 # hf/3-21g
 ----------

 ------------------------
 tmpdir/M2_conf_188_3.gjf
 ------------------------
 Symbolic Z-matrix:
 Charge =  0 Multiplicity = 1

                         Standard orientation:
 ---------------------------------------------------------------------
 Center     Atomic      Atomic             Coordinates (Angstroms)
 Number     Number       Type             X           Y           Z
 ---------------------------------------------------------------------
      1          6           0       -1.816253    0.000011    0.000009
      2         17           0        1.014547   -0.000010   -0.000002
      3          1           0       -2.116621   -0.278192    0.992267
      4          1           0       -2.116306    0.998720   -0.255261
      5          1           0       -2.116861   -0.720433   -0.737022
 ---------------------------------------------------------------------

 SCF Done:  E(RHF) =  -496.585655316     A.U. after   10 cycles

 The electronic state is 1-A.
 Alpha  occ. eigenvalues -- -104.04464 -11.33796 -10.43091  -7.89406  -7.89189
 Alpha  occ. eigenvalues --   -7.89189  -1.02670  -0.97309  -0.67405  -0.67400
 Alpha  occ. eigenvalues --   -0.39276  -0.39276  -0.38064
 Alpha virt. eigenvalues --   -0.03180   0.23253   0.28074   0.28077   0.72751
 Alpha virt. eigenvalues --    0.78935   0.78943   0.87902   0.91240   0.91246
 Alpha virt. eigenvalues --    0.97396   1.21652   1.25474   1.25483   1.73064

 Mulliken charges:
               1
     1  C   -0.377445
     2  Cl  -0.478379
     3  H    0.285283
     4  H    0.285286
     5  H    0.285255
 Sum of Mulliken charges =  -0.00000

 Dipole moment (field-independent basis, Debye):
    X=             -6.9444    Y=              0.0001    Z=              0.0001  Tot=              6.9444
 Quadrupole moment (field-independent basis, Debye-Ang):
   XX=            -11.9460   YY=            -20.4217   ZZ=            -20.4232
   XY=              0.0003   XZ=             -0.0000   YZ=             -0.0001

 Normal termination of Gaussian 16 at Fri Sep 22 17:18:54 2023.
