 Gaussian 16, Revision A.03,
 Gaussian 16:  ES64L-G16RevA.03 25-Dec-2016

 ----------
 # hf/3-21g
 ----------

 -----------------------
 tmpdir/M2_conf_44_4.gjf
 -----------------------
 Symbolic Z-matrix:
 Charge =  0 Multiplicity = 1

                         Standard orientation:
 ---------------------------------------------------------------------
 Center     Atomic      Atomic             Coordinates (Angstroms)
 Number     Number       Type             X           Y           Z
 ---------------------------------------------------------------------
      1          1           0        0.357419   -0.300701    0.972986
      2          6           0        0.029642    0.006035   -0.002033
      3          1           0        0.442341   -0.635351   -0.757633
      4          1           0        0.199876    1.050557   -0.182581
      5          1           0       -1.177487   -0.150714   -0.020572
 ---------------------------------------------------------------------

 SCF Done:  E(RHF) =  -39.9669639992     A.U. after    9 cycles

 The electronic state is 1-A.
 Alpha  occ. eigenvalues --  -11.15723  -0.93780  -0.55931  -0.55242  -0.50362
 Alpha virt. eigenvalues --    0.28306   0.32276   0.35536   0.35809   0.91551
 Alpha virt. eigenvalues --    0.92223   0.97736   1.25014   1.32565   1.36570
 Alpha virt. eigenvalues --    1.37248   1.94613

 Mulliken charges:
               1
     1  H    0.205938
     2  C   -0.770642
     3  H    0.206186
     4  H    0.206666
     5  H    0.151852
 Sum of Mulliken charges =  -0.00000

 Dipole moment (field-independent basis, Debye):
    X=              0.0766    Y=              0.0023    Z=              0.0121  Tot=              0.0776
 Quadrupole moment (field-independent basis, Debye-Ang):
   XX=             -8.6250   YY=             -8.3536   ZZ=             -8.4569
   XY=             -0.0612   XZ=             -0.0108   YZ=             -0.0007

 Normal termination of Gaussian 16 at Fri Sep 22 17:15:13 2023.
