 Gaussian 16, Revision A.03,
 Gaussian 16:  ES64L-G16RevA.03 25-Dec-2016

 ----------
 # hf/3-21g
 ----------

 -----------------------
 tmpdir/M2_conf_42_1.gjf
 -----------------------
 Symbolic Z-matrix:
 Charge =  0 Multiplicity = 1

                         Standard orientation:
 ---------------------------------------------------------------------
 Center     Atomic      Atomic             Coordinates (Angstroms)
 Number     Number       Type             X           Y           Z
 ---------------------------------------------------------------------
      1          6           0       -0.032244   -0.000060    0.014184
      2          1           0       -0.145929   -0.001575    0.991493
      3          1           0       -0.413231   -0.892320   -0.445058
      4          1           0       -0.415500    0.892621   -0.442806
      5          1           0        1.168122    0.001634   -0.188735
 ---------------------------------------------------------------------

 SCF Done:  E(RHF) =  -39.9592958956     A.U. after    9 cycles

 The electronic state is 1-A.
 Alpha  occ. eigenvalues --  -11.14685  -0.94953  -0.57612  -0.55515  -0.50290
 Alpha virt. eigenvalues --    0.28540   0.32613   0.35681   0.37703   0.87845
 Alpha virt. eigenvalues --    0.92129   0.97564   1.25399   1.34186   1.37111
 Alpha virt. eigenvalues --    1.45580   1.96056

 Mulliken charges:
               1
     1  C   -0.780519
     2  H    0.227417
     3  H    0.202887
     4  H    0.202833
     5  H    0.147382
 Sum of Mulliken charges =   0.00000

 Dipole moment (field-independent basis, Debye):
    X=             -0.0843    Y=             -0.0003    Z=              0.0605  Tot=              0.1038
 Quadrupole moment (field-independent basis, Debye-Ang):
   XX=             -8.5602   YY=             -8.3000   ZZ=             -8.3759
   XY=             -0.0005   XZ=              0.0466   YZ=             -0.0001

 Normal termination of Gaussian 16 at Fri Sep 22 17:15:10 2023.
