 Gaussian 16, Revision A.03,
 Gaussian 16:  ES64L-G16RevA.03 25-Dec-2016

 ----------
 # hf/3-21g
 ----------

 -----------------------
 tmpdir/M2_conf_48_0.gjf
 -----------------------
 Symbolic Z-matrix:
 Charge =  0 Multiplicity = 1

                         Standard orientation:
 ---------------------------------------------------------------------
 Center     Atomic      Atomic             Coordinates (Angstroms)
 Number     Number       Type             X           Y           Z
 ---------------------------------------------------------------------
      1          6           0        0.018607   -0.024072    0.000056
      2          1           0        0.962657    0.623310    0.001710
      3          1           0       -0.077734   -0.612327    0.892972
      4          1           0       -0.073229   -0.613718   -0.892406
      5          1           0       -0.923333    0.747170   -0.002613
 ---------------------------------------------------------------------

 SCF Done:  E(RHF) =  -39.9644367936     A.U. after    9 cycles

 The electronic state is 1-A.
 Alpha  occ. eigenvalues --  -11.16554  -0.93072  -0.55758  -0.54156  -0.50184
 Alpha virt. eigenvalues --    0.27968   0.31562   0.34453   0.35685   0.91771
 Alpha virt. eigenvalues --    0.94617   0.98394   1.24523   1.28410   1.34509
 Alpha virt. eigenvalues --    1.36760   1.93836

 Mulliken charges:
               1
     1  C   -0.759164
     2  H    0.187351
     3  H    0.208813
     4  H    0.208811
     5  H    0.154188
 Sum of Mulliken charges =   0.00000

 Dipole moment (field-independent basis, Debye):
    X=              0.0089    Y=             -0.0679    Z=              0.0001  Tot=              0.0685
 Quadrupole moment (field-independent basis, Debye-Ang):
   XX=             -8.5846   YY=             -8.5437   ZZ=             -8.4579
   XY=              0.1555   XZ=             -0.0011   YZ=              0.0006

 Normal termination of Gaussian 16 at Fri Sep 22 17:15:19 2023.
