 Gaussian 16, Revision A.03,
 Gaussian 16:  ES64L-G16RevA.03 25-Dec-2016

 ----------
 # hf/3-21g
 ----------

 ------------------------
 tmpdir/M2_conf_124_4.gjf
 ------------------------
 Symbolic Z-matrix:
 Charge =  0 Multiplicity = 1

                         Standard orientation:
 ---------------------------------------------------------------------
 Center     Atomic      Atomic             Coordinates (Angstroms)
 Number     Number       Type             X           Y           Z
 ---------------------------------------------------------------------
      1          1           0       -0.355439    0.965190   -0.352985
      2          6           0       -0.033251    0.001245   -0.007744
      3          1           0       -0.160648   -0.802350   -0.708181
      4          1           0       -0.453879   -0.254775    0.946264
      5          1           0        1.169474    0.084467    0.161365
 ---------------------------------------------------------------------

 SCF Done:  E(RHF) =  -39.9664684702     A.U. after    9 cycles

 The electronic state is 1-A.
 Alpha  occ. eigenvalues --  -11.15731  -0.93781  -0.56190  -0.55226  -0.50120
 Alpha virt. eigenvalues --    0.28329   0.32139   0.35505   0.35900   0.91512
 Alpha virt. eigenvalues --    0.92498   0.97523   1.25142   1.32258   1.36539
 Alpha virt. eigenvalues --    1.37492   1.94669

 Mulliken charges:
               1
     1  H    0.207417
     2  C   -0.771429
     3  H    0.207112
     4  H    0.206182
     5  H    0.150718
 Sum of Mulliken charges =  -0.00000

 Dipole moment (field-independent basis, Debye):
    X=             -0.0627    Y=             -0.0191    Z=              0.0010  Tot=              0.0655
 Quadrupole moment (field-independent basis, Debye-Ang):
   XX=             -8.6675   YY=             -8.3016   ZZ=             -8.4732
   XY=             -0.0399   XZ=             -0.0656   YZ=             -0.0065

 Normal termination of Gaussian 16 at Fri Sep 22 17:17:12 2023.
