 Gaussian 16, Revision A.03,
 Gaussian 16:  ES64L-G16RevA.03 25-Dec-2016

 ----------
 # hf/3-21g
 ----------

 ------------------------
 tmpdir/M2_conf_168_9.gjf
 ------------------------
 Symbolic Z-matrix:
 Charge =  0 Multiplicity = 1

                         Standard orientation:
 ---------------------------------------------------------------------
 Center     Atomic      Atomic             Coordinates (Angstroms)
 Number     Number       Type             X           Y           Z
 ---------------------------------------------------------------------
      1          1           0        0.806337   -0.001038    0.971574
      2          6           0        1.209820    0.000016   -0.023322
      3         17           0       -0.682074    0.000024   -0.020522
      4          1           0        1.764960   -0.892275   -0.242027
      5          1           0        1.765034    0.892804   -0.240742
 ---------------------------------------------------------------------

 SCF Done:  E(RHF) =  -496.616866129     A.U. after   11 cycles

 The electronic state is 1-A.
 Alpha  occ. eigenvalues -- -104.09724 -11.24324 -10.49263  -7.95621  -7.95199
 Alpha  occ. eigenvalues --   -7.95171  -1.13696  -0.92787  -0.65234  -0.62934
 Alpha  occ. eigenvalues --   -0.50454  -0.45010  -0.41252
 Alpha virt. eigenvalues --    0.13456   0.28488   0.31745   0.31844   0.74183
 Alpha virt. eigenvalues --    0.78492   0.80408   0.84540   0.94216   0.97558
 Alpha virt. eigenvalues --    1.02686   1.26757   1.31390   1.31423   1.84021

 Mulliken charges:
               1
     1  H    0.292190
     2  C   -0.713526
     3  Cl  -0.113541
     4  H    0.267455
     5  H    0.267421
 Sum of Mulliken charges =   0.00000

 Dipole moment (field-independent basis, Debye):
    X=              2.5579    Y=             -0.0005    Z=              0.4142  Tot=              2.5912
 Quadrupole moment (field-independent basis, Debye-Ang):
   XX=            -18.5468   YY=            -20.1487   ZZ=            -20.9282
   XY=              0.0007   XZ=             -0.7299   YZ=             -0.0000

 Normal termination of Gaussian 16 at Fri Sep 22 17:18:19 2023.
