 Gaussian 16, Revision A.03,
 Gaussian 16:  ES64L-G16RevA.03 25-Dec-2016

 ----------
 # hf/3-21g
 ----------

 -----------------------
 tmpdir/M2_conf_45_5.gjf
 -----------------------
 Symbolic Z-matrix:
 Charge =  0 Multiplicity = 1

                         Standard orientation:
 ---------------------------------------------------------------------
 Center     Atomic      Atomic             Coordinates (Angstroms)
 Number     Number       Type             X           Y           Z
 ---------------------------------------------------------------------
      1          1           0        1.069600    0.015928   -0.294181
      2          6           0        0.029486   -0.029699   -0.032896
      3          1           0       -0.820935   -0.178805   -0.671004
      4          1           0       -0.164943   -0.728046    0.759013
      5          1           0       -0.260640    1.069120    0.403547
 ---------------------------------------------------------------------

 SCF Done:  E(RHF) =  -39.9562084166     A.U. after    9 cycles

 The electronic state is 1-A.
 Alpha  occ. eigenvalues --  -11.15781  -0.93960  -0.58712  -0.53518  -0.48892
 Alpha virt. eigenvalues --    0.28267   0.31059   0.34740   0.36842   0.90078
 Alpha virt. eigenvalues --    0.96606   0.97289   1.25338   1.31034   1.35263
 Alpha virt. eigenvalues --    1.40405   1.94426

 Mulliken charges:
               1
     1  H    0.216410
     2  C   -0.788976
     3  H    0.217689
     4  H    0.206379
     5  H    0.148497
 Sum of Mulliken charges =   0.00000

 Dipole moment (field-independent basis, Debye):
    X=             -0.0721    Y=             -0.0641    Z=              0.0392  Tot=              0.1041
 Quadrupole moment (field-independent basis, Debye-Ang):
   XX=             -7.8545   YY=             -8.6736   ZZ=             -8.9570
   XY=              0.1029   XZ=              0.0257   YZ=             -0.1579

 Normal termination of Gaussian 16 at Fri Sep 22 17:15:14 2023.
