 Gaussian 16, Revision A.03,
 Gaussian 16:  ES64L-G16RevA.03 25-Dec-2016

 ----------
 # hf/3-21g
 ----------

 -----------------------
 tmpdir/M2_conf_12_9.gjf
 -----------------------
 Symbolic Z-matrix:
 Charge =  0 Multiplicity = 1

                         Standard orientation:
 ---------------------------------------------------------------------
 Center     Atomic      Atomic             Coordinates (Angstroms)
 Number     Number       Type             X           Y           Z
 ---------------------------------------------------------------------
      1          1           0        1.386489   -0.033431    1.054772
      2          6           0        1.202572    0.000085   -0.002426
      3         17           0       -0.689330    0.000139   -0.004609
      4          1           0        1.558483   -0.876822   -0.508941
      5          1           0        1.558200    0.907379   -0.452927
 ---------------------------------------------------------------------

 SCF Done:  E(RHF) =  -496.687800058     A.U. after   11 cycles

 The electronic state is 1-A.
 Alpha  occ. eigenvalues -- -104.08789 -11.24996 -10.48179  -7.94553  -7.94149
 Alpha  occ. eigenvalues --   -7.94148  -1.11323  -0.93325  -0.63336  -0.63210
 Alpha  occ. eigenvalues --   -0.51259  -0.43805  -0.43630
 Alpha virt. eigenvalues --    0.16497   0.27338   0.31368   0.31410   0.73847
 Alpha virt. eigenvalues --    0.80332   0.80962   0.85566   0.92902   0.94441
 Alpha virt. eigenvalues --    0.99750   1.31044   1.31195   1.32292   1.91754

 Mulliken charges:
               1
     1  H    0.273967
     2  C   -0.703191
     3  Cl  -0.107033
     4  H    0.268141
     5  H    0.268117
 Sum of Mulliken charges =   0.00000

 Dipole moment (field-independent basis, Debye):
    X=              2.8611    Y=             -0.0020    Z=              0.0628  Tot=              2.8618
 Quadrupole moment (field-independent basis, Debye-Ang):
   XX=            -18.5643   YY=            -20.1826   ZZ=            -20.2004
   XY=              0.0049   XZ=             -0.1722   YZ=             -0.0002

 Normal termination of Gaussian 16 at Fri Sep 22 17:14:25 2023.
