 Gaussian 16, Revision A.03,
 Gaussian 16:  ES64L-G16RevA.03 25-Dec-2016

 ----------
 # hf/3-21g
 ----------

 ------------------------
 tmpdir/M2_conf_160_2.gjf
 ------------------------
 Symbolic Z-matrix:
 Charge =  0 Multiplicity = 1

                         Standard orientation:
 ---------------------------------------------------------------------
 Center     Atomic      Atomic             Coordinates (Angstroms)
 Number     Number       Type             X           Y           Z
 ---------------------------------------------------------------------
      1          6           0        0.023865   -0.019077   -0.000015
      2          1           0        0.819231    0.783307   -0.004632
      3          1           0        0.045030   -0.612821    0.893977
      4          1           0        0.038669   -0.617618   -0.891167
      5          1           0       -1.046121    0.561597    0.001910
 ---------------------------------------------------------------------

 SCF Done:  E(RHF) =  -39.9654261943     A.U. after    9 cycles

 The electronic state is 1-A.
 Alpha  occ. eigenvalues --  -11.16380  -0.93206  -0.55733  -0.54455  -0.50212
 Alpha virt. eigenvalues --    0.28063   0.31738   0.34666   0.35688   0.91795
 Alpha virt. eigenvalues --    0.94162   0.98123   1.24693   1.29332   1.34786
 Alpha virt. eigenvalues --    1.36808   1.94003

 Mulliken charges:
               1
     1  C   -0.761856
     2  H    0.191501
     3  H    0.208395
     4  H    0.208345
     5  H    0.153615
 Sum of Mulliken charges =  -0.00000

 Dipole moment (field-independent basis, Debye):
    X=              0.0305    Y=             -0.0581    Z=              0.0001  Tot=              0.0656
 Quadrupole moment (field-independent basis, Debye-Ang):
   XX=             -8.6311   YY=             -8.4804   ZZ=             -8.4442
   XY=              0.1322   XZ=              0.0012   YZ=             -0.0002

 Normal termination of Gaussian 16 at Fri Sep 22 17:18:07 2023.
