 Gaussian 16, Revision A.03,
 Gaussian 16:  ES64L-G16RevA.03 25-Dec-2016

 ----------
 # hf/3-21g
 ----------

 -----------------------
 tmpdir/M2_conf_19_4.gjf
 -----------------------
 Symbolic Z-matrix:
 Charge =  0 Multiplicity = 1

                         Standard orientation:
 ---------------------------------------------------------------------
 Center     Atomic      Atomic             Coordinates (Angstroms)
 Number     Number       Type             X           Y           Z
 ---------------------------------------------------------------------
      1          1           0       -1.049253    0.072384   -0.326457
      2          6           0       -0.024190   -0.028922   -0.024510
      3          1           0        0.773310   -0.275286   -0.699729
      4          1           0        0.094133   -0.693919    0.809986
      5          1           0        0.326952    1.070354    0.363259
 ---------------------------------------------------------------------

 SCF Done:  E(RHF) =  -39.9617321279     A.U. after    9 cycles

 The electronic state is 1-A.
 Alpha  occ. eigenvalues --  -11.15758  -0.93860  -0.57777  -0.54098  -0.49482
 Alpha virt. eigenvalues --    0.28314   0.31615   0.34989   0.36502   0.90493
 Alpha virt. eigenvalues --    0.94781   0.97317   1.25320   1.31518   1.35635
 Alpha virt. eigenvalues --    1.39224   1.94557

 Mulliken charges:
               1
     1  H    0.211935
     2  C   -0.779300
     3  H    0.212062
     4  H    0.206098
     5  H    0.149204
 Sum of Mulliken charges =  -0.00000

 Dipole moment (field-independent basis, Debye):
    X=              0.0400    Y=             -0.0656    Z=              0.0213  Tot=              0.0797
 Quadrupole moment (field-independent basis, Debye-Ang):
   XX=             -8.0449   YY=             -8.6498   ZZ=             -8.7701
   XY=             -0.1312   XZ=             -0.0340   YZ=             -0.1406

 Normal termination of Gaussian 16 at Fri Sep 22 17:14:36 2023.
