 Gaussian 16, Revision A.03,
 Gaussian 16:  ES64L-G16RevA.03 25-Dec-2016

 ----------
 # hf/3-21g
 ----------

 ------------------------
 tmpdir/M2_conf_221_8.gjf
 ------------------------
 Symbolic Z-matrix:
 Charge =  0 Multiplicity = 1

                         Standard orientation:
 ---------------------------------------------------------------------
 Center     Atomic      Atomic             Coordinates (Angstroms)
 Number     Number       Type             X           Y           Z
 ---------------------------------------------------------------------
      1          1           0        0.530102    0.000053    0.778965
      2          6           0        1.217545    0.000018   -0.045680
      3         17           0       -0.674181   -0.000010   -0.019774
      4          1           0        1.812678    0.892485   -0.084382
      5          1           0        1.813027   -0.892465   -0.084338
 ---------------------------------------------------------------------

 SCF Done:  E(RHF) =  -496.514977322     A.U. after   12 cycles

 The electronic state is 1-A.
 Alpha  occ. eigenvalues -- -104.11702 -11.22235 -10.51661  -7.98024  -7.97523
 Alpha  occ. eigenvalues --   -7.97457  -1.18813  -0.91746  -0.67260  -0.62079
 Alpha  occ. eigenvalues --   -0.51952  -0.47076  -0.37082
 Alpha virt. eigenvalues --    0.11171   0.30983   0.32720   0.33352   0.73513
 Alpha virt. eigenvalues --    0.76927   0.79398   0.83742   0.91526   0.98630
 Alpha virt. eigenvalues --    1.04085   1.20325   1.31721   1.32544   1.80987

 Mulliken charges:
               1
     1  H    0.291358
     2  C   -0.752075
     3  Cl  -0.080493
     4  H    0.270623
     5  H    0.270586
 Sum of Mulliken charges =  -0.00000

 Dipole moment (field-independent basis, Debye):
    X=              1.7981    Y=              0.0001    Z=              0.6948  Tot=              1.9276
 Quadrupole moment (field-independent basis, Debye-Ang):
   XX=            -18.8917   YY=            -19.9964   ZZ=            -21.6057
   XY=             -0.0003   XZ=             -0.4316   YZ=              0.0000

 Normal termination of Gaussian 16 at Fri Sep 22 17:19:44 2023.
