 Gaussian 16, Revision A.03,
 Gaussian 16:  ES64L-G16RevA.03 25-Dec-2016

 ----------
 # hf/3-21g
 ----------

 -----------------------
 tmpdir/M2_conf_80_8.gjf
 -----------------------
 Symbolic Z-matrix:
 Charge =  0 Multiplicity = 1

                         Standard orientation:
 ---------------------------------------------------------------------
 Center     Atomic      Atomic             Coordinates (Angstroms)
 Number     Number       Type             X           Y           Z
 ---------------------------------------------------------------------
      1          1           0       -1.568903   -0.061350    1.008665
      2          6           0       -1.202436   -0.000095    0.001408
      3         17           0        0.689466   -0.000160    0.002694
      4          1           0       -1.468636   -0.858516   -0.585472
      5          1           0       -1.468760    0.923161   -0.477433
 ---------------------------------------------------------------------

 SCF Done:  E(RHF) =  -496.688930495     A.U. after   11 cycles

 The electronic state is 1-A.
 Alpha  occ. eigenvalues -- -104.08777 -11.25000 -10.48166  -7.94541  -7.94137
 Alpha  occ. eigenvalues --   -7.94137  -1.11293  -0.93333  -0.63270  -0.63240
 Alpha  occ. eigenvalues --   -0.51300  -0.43756  -0.43690
 Alpha virt. eigenvalues --    0.16568   0.27332   0.31367   0.31398   0.73832
 Alpha virt. eigenvalues --    0.80462   0.80890   0.85528   0.93189   0.94106
 Alpha virt. eigenvalues --    0.99624   1.31111   1.31255   1.32254   1.91930

 Mulliken charges:
               1
     1  H    0.267624
     2  C   -0.702878
     3  Cl  -0.107007
     4  H    0.271155
     5  H    0.271107
 Sum of Mulliken charges =  -0.00000

 Dipole moment (field-independent basis, Debye):
    X=             -2.8647    Y=              0.0020    Z=             -0.0350  Tot=              2.8649
 Quadrupole moment (field-independent basis, Debye-Ang):
   XX=            -18.5683   YY=            -20.1796   ZZ=            -20.1885
   XY=              0.0062   XZ=             -0.1006   YZ=              0.0002

 Normal termination of Gaussian 16 at Fri Sep 22 17:16:07 2023.
