 Gaussian 16, Revision A.03,
 Gaussian 16:  ES64L-G16RevA.03 25-Dec-2016

 ----------
 # hf/3-21g
 ----------

 ------------------------
 tmpdir/M2_conf_174_8.gjf
 ------------------------
 Symbolic Z-matrix:
 Charge =  0 Multiplicity = 1

                         Standard orientation:
 ---------------------------------------------------------------------
 Center     Atomic      Atomic             Coordinates (Angstroms)
 Number     Number       Type             X           Y           Z
 ---------------------------------------------------------------------
      1          1           0       -1.043643   -0.000910    1.049430
      2          6           0       -1.205578   -0.000006   -0.011886
      3         17           0        0.686313    0.000021   -0.016025
      4          1           0       -1.694968   -0.892180   -0.353500
      5          1           0       -1.695235    0.892769   -0.352191
 ---------------------------------------------------------------------

 SCF Done:  E(RHF) =  -496.661352460     A.U. after   11 cycles

 The electronic state is 1-A.
 Alpha  occ. eigenvalues -- -104.09094 -11.24836 -10.48517  -7.94884  -7.94476
 Alpha  occ. eigenvalues --   -7.94467  -1.12094  -0.93137  -0.64171  -0.63119
 Alpha  occ. eigenvalues --   -0.50609  -0.44255  -0.42830
 Alpha virt. eigenvalues --    0.15120   0.27642   0.31474   0.31582   0.74096
 Alpha virt. eigenvalues --    0.79326   0.80837   0.85209   0.93068   0.96443
 Alpha virt. eigenvalues --    1.01530   1.29317   1.31194   1.32090   1.88111

 Mulliken charges:
               1
     1  H    0.285224
     2  C   -0.707330
     3  Cl  -0.110095
     4  H    0.266123
     5  H    0.266078
 Sum of Mulliken charges =  -0.00000

 Dipole moment (field-independent basis, Debye):
    X=             -2.7669    Y=             -0.0003    Z=              0.2591  Tot=              2.7790
 Quadrupole moment (field-independent basis, Debye-Ang):
   XX=            -18.5162   YY=            -20.1784   ZZ=            -20.5090
   XY=             -0.0006   XZ=              0.5945   YZ=              0.0000

 Normal termination of Gaussian 16 at Fri Sep 22 17:18:28 2023.
