 Gaussian 16, Revision A.03,
 Gaussian 16:  ES64L-G16RevA.03 25-Dec-2016

 ----------
 # hf/3-21g
 ----------

 ------------------------
 tmpdir/M2_conf_147_6.gjf
 ------------------------
 Symbolic Z-matrix:
 Charge =  0 Multiplicity = 1

                         Standard orientation:
 ---------------------------------------------------------------------
 Center     Atomic      Atomic             Coordinates (Angstroms)
 Number     Number       Type             X           Y           Z
 ---------------------------------------------------------------------
      1          1           0       -1.167215   -0.002677    1.064929
      2          6           0       -1.204094    0.000035   -0.007834
      3         17           0        0.687805    0.000022   -0.012418
      4          1           0       -1.650263    0.893738   -0.401331
      5          1           0       -1.650644   -0.891637   -0.405480
 ---------------------------------------------------------------------

 SCF Done:  E(RHF) =  -496.675015017     A.U. after   11 cycles

 The electronic state is 1-A.
 Alpha  occ. eigenvalues -- -104.08928 -11.24934 -10.48329  -7.94700  -7.94294
 Alpha  occ. eigenvalues --   -7.94290  -1.11677  -0.93235  -0.63776  -0.63158
 Alpha  occ. eigenvalues --   -0.50873  -0.44038  -0.43242
 Alpha virt. eigenvalues --    0.15776   0.27455   0.31413   0.31502   0.73993
 Alpha virt. eigenvalues --    0.79698   0.81006   0.85549   0.92517   0.95785
 Alpha virt. eigenvalues --    1.00826   1.30083   1.31164   1.32322   1.89877

 Mulliken charges:
               1
     1  H    0.281423
     2  C   -0.705735
     3  Cl  -0.108210
     4  H    0.266269
     5  H    0.266254
 Sum of Mulliken charges =  -0.00000

 Dipole moment (field-independent basis, Debye):
    X=             -2.8183    Y=             -0.0004    Z=              0.1865  Tot=              2.8245
 Quadrupole moment (field-independent basis, Debye-Ang):
   XX=            -18.5330   YY=            -20.1817   ZZ=            -20.3569
   XY=             -0.0007   XZ=              0.4624   YZ=             -0.0001

 Normal termination of Gaussian 16 at Fri Sep 22 17:17:47 2023.
