 Gaussian 16, Revision A.03,
 Gaussian 16:  ES64L-G16RevA.03 25-Dec-2016

 ----------
 # hf/3-21g
 ----------

 ------------------------
 tmpdir/M2_conf_243_0.gjf
 ------------------------
 Symbolic Z-matrix:
 Charge =  0 Multiplicity = 1

                         Standard orientation:
 ---------------------------------------------------------------------
 Center     Atomic      Atomic             Coordinates (Angstroms)
 Number     Number       Type             X           Y           Z
 ---------------------------------------------------------------------
      1          6           0       -0.031568   -0.000574   -0.000051
      2          1           0       -0.343654    1.027620   -0.054639
      3          1           0       -0.323750   -0.565106   -0.865242
      4          1           0       -0.328953   -0.471661    0.917687
      5          1           0        1.185763    0.012591    0.002502
 ---------------------------------------------------------------------

 SCF Done:  E(RHF) =  -39.9669673101     A.U. after    9 cycles

 The electronic state is 1-A.
 Alpha  occ. eigenvalues --  -11.15755  -0.93748  -0.55640  -0.55583  -0.50268
 Alpha virt. eigenvalues --    0.28309   0.32214   0.35637   0.35686   0.91919
 Alpha virt. eigenvalues --    0.92022   0.97647   1.25055   1.32353   1.36788
 Alpha virt. eigenvalues --    1.36931   1.94619

 Mulliken charges:
               1
     1  C   -0.770331
     2  H    0.205840
     3  H    0.206517
     4  H    0.206513
     5  H    0.151461
 Sum of Mulliken charges =  -0.00000

 Dipole moment (field-independent basis, Debye):
    X=             -0.0701    Y=             -0.0021    Z=             -0.0001  Tot=              0.0702
 Quadrupole moment (field-independent basis, Debye-Ang):
   XX=             -8.6592   YY=             -8.3914   ZZ=             -8.3925
   XY=             -0.0035   XZ=             -0.0012   YZ=              0.0003

 Normal termination of Gaussian 16 at Fri Sep 22 17:20:18 2023.
