 Gaussian 16, Revision A.03,
 Gaussian 16:  ES64L-G16RevA.03 25-Dec-2016

 ----------
 # hf/3-21g
 ----------

 ------------------------
 tmpdir/M2_conf_161_7.gjf
 ------------------------
 Symbolic Z-matrix:
 Charge =  0 Multiplicity = 1

                         Standard orientation:
 ---------------------------------------------------------------------
 Center     Atomic      Atomic             Coordinates (Angstroms)
 Number     Number       Type             X           Y           Z
 ---------------------------------------------------------------------
      1          1           0       -0.382197    0.957597   -0.350303
      2          6           0       -0.033647    0.001035   -0.009539
      3          1           0       -0.108388   -0.805997   -0.713625
      4          1           0       -0.468092   -0.283665    0.929810
      5          1           0        1.160557    0.125852    0.191354
 ---------------------------------------------------------------------

 SCF Done:  E(RHF) =  -39.9662354120     A.U. after    9 cycles

 The electronic state is 1-A.
 Alpha  occ. eigenvalues --  -11.15733  -0.93784  -0.56341  -0.55114  -0.50074
 Alpha virt. eigenvalues --    0.28330   0.32107   0.35457   0.35956   0.91393
 Alpha virt. eigenvalues --    0.92688   0.97494   1.25163   1.32193   1.36447
 Alpha virt. eigenvalues --    1.37641   1.94668

 Mulliken charges:
               1
     1  H    0.207676
     2  C   -0.771800
     3  H    0.207374
     4  H    0.206197
     5  H    0.150553
 Sum of Mulliken charges =  -0.00000

 Dipole moment (field-independent basis, Debye):
    X=             -0.0600    Y=             -0.0253    Z=              0.0025  Tot=              0.0651
 Quadrupole moment (field-independent basis, Debye-Ang):
   XX=             -8.6649   YY=             -8.2794   ZZ=             -8.4996
   XY=             -0.0584   XZ=             -0.0775   YZ=             -0.0107

 Normal termination of Gaussian 16 at Fri Sep 22 17:18:08 2023.
