 Gaussian 16, Revision A.03,
 Gaussian 16:  ES64L-G16RevA.03 25-Dec-2016

 ----------
 # hf/3-21g
 ----------

 ------------------------
 tmpdir/M2_conf_120_9.gjf
 ------------------------
 Symbolic Z-matrix:
 Charge =  0 Multiplicity = 1

                         Standard orientation:
 ---------------------------------------------------------------------
 Center     Atomic      Atomic             Coordinates (Angstroms)
 Number     Number       Type             X           Y           Z
 ---------------------------------------------------------------------
      1          1           0        1.446413   -0.139597    1.034961
      2          6           0        1.202406    0.000166   -0.001158
      3         17           0       -0.689493    0.000294   -0.002240
      4          1           0        1.530421   -0.817764   -0.614014
      5          1           0        1.530105    0.951365   -0.375912
 ---------------------------------------------------------------------

 SCF Done:  E(RHF) =  -496.689088536     A.U. after   11 cycles

 The electronic state is 1-A.
 Alpha  occ. eigenvalues -- -104.08776 -11.25000 -10.48166  -7.94540  -7.94136
 Alpha  occ. eigenvalues --   -7.94136  -1.11290  -0.93334  -0.63276  -0.63227
 Alpha  occ. eigenvalues --   -0.51308  -0.43762  -0.43687
 Alpha virt. eigenvalues --    0.16580   0.27333   0.31369   0.31393   0.73830
 Alpha virt. eigenvalues --    0.80510   0.80839   0.85516   0.93277   0.94045
 Alpha virt. eigenvalues --    0.99584   1.31187   1.31212   1.32226   1.91949

 Mulliken charges:
               1
     1  H    0.271850
     2  C   -0.702764
     3  Cl  -0.107034
     4  H    0.268985
     5  H    0.268963
 Sum of Mulliken charges =  -0.00000

 Dipole moment (field-independent basis, Debye):
    X=              2.8651    Y=             -0.0041    Z=              0.0299  Tot=              2.8652
 Quadrupole moment (field-independent basis, Debye-Ang):
   XX=            -18.5687   YY=            -20.1815   ZZ=            -20.1846
   XY=              0.0107   XZ=             -0.0838   YZ=             -0.0003

 Normal termination of Gaussian 16 at Fri Sep 22 17:17:07 2023.
