 Gaussian 16, Revision A.03,
 Gaussian 16:  ES64L-G16RevA.03 25-Dec-2016

 ----------
 # hf/3-21g
 ----------

 ------------------------
 tmpdir/M2_conf_221_6.gjf
 ------------------------
 Symbolic Z-matrix:
 Charge =  0 Multiplicity = 1

                         Standard orientation:
 ---------------------------------------------------------------------
 Center     Atomic      Atomic             Coordinates (Angstroms)
 Number     Number       Type             X           Y           Z
 ---------------------------------------------------------------------
      1          1           0       -1.001282   -0.001375    1.040075
      2          6           0       -1.206204    0.000030   -0.013582
      3         17           0        0.685695    0.000015   -0.017077
      4          1           0       -1.708998    0.893162   -0.333153
      5          1           0       -1.709313   -0.892217   -0.335116
 ---------------------------------------------------------------------

 SCF Done:  E(RHF) =  -496.655353545     A.U. after   11 cycles

 The electronic state is 1-A.
 Alpha  occ. eigenvalues -- -104.09172 -11.24783 -10.48606  -7.94972  -7.94562
 Alpha  occ. eigenvalues --   -7.94550  -1.12290  -0.93092  -0.64327  -0.63101
 Alpha  occ. eigenvalues --   -0.50532  -0.44352  -0.42639
 Alpha virt. eigenvalues --    0.14858   0.27741   0.31502   0.31614   0.74129
 Alpha virt. eigenvalues --    0.79194   0.80761   0.85062   0.93311   0.96671
 Alpha virt. eigenvalues --    1.01757   1.28981   1.31208   1.32006   1.87423

 Mulliken charges:
               1
     1  H    0.286549
     2  C   -0.707985
     3  Cl  -0.110922
     4  H    0.266185
     5  H    0.266174
 Sum of Mulliken charges =  -0.00000

 Dipole moment (field-independent basis, Debye):
    X=             -2.7427    Y=             -0.0003    Z=              0.2852  Tot=              2.7575
 Quadrupole moment (field-independent basis, Debye-Ang):
   XX=            -18.5135   YY=            -20.1746   ZZ=            -20.5730
   XY=             -0.0005   XZ=              0.6308   YZ=             -0.0001

 Normal termination of Gaussian 16 at Fri Sep 22 17:19:44 2023.
