 Gaussian 16, Revision A.03,
 Gaussian 16:  ES64L-G16RevA.03 25-Dec-2016

 ----------
 # hf/3-21g
 ----------

 ------------------------
 tmpdir/M2_conf_267_2.gjf
 ------------------------
 Symbolic Z-matrix:
 Charge =  0 Multiplicity = 1

                         Standard orientation:
 ---------------------------------------------------------------------
 Center     Atomic      Atomic             Coordinates (Angstroms)
 Number     Number       Type             X           Y           Z
 ---------------------------------------------------------------------
      1          6           0        0.005493   -0.030021   -0.000016
      2          1           0        1.151660    0.295507   -0.002270
      3          1           0       -0.269234   -0.558798    0.892800
      4          1           0       -0.273678   -0.557672   -0.892355
      5          1           0       -0.641706    1.001089    0.001919
 ---------------------------------------------------------------------

 SCF Done:  E(RHF) =  -39.9600596727     A.U. after    9 cycles

 The electronic state is 1-A.
 Alpha  occ. eigenvalues --  -11.17084  -0.92707  -0.55850  -0.53299  -0.50037
 Alpha virt. eigenvalues --    0.27564   0.30933   0.33956   0.35685   0.91675
 Alpha virt. eigenvalues --    0.95493   0.99757   1.23427   1.26223   1.33941
 Alpha virt. eigenvalues --    1.36639   1.93313

 Mulliken charges:
               1
     1  C   -0.750018
     2  H    0.173866
     3  H    0.210178
     4  H    0.210127
     5  H    0.155846
 Sum of Mulliken charges =  -0.00000

 Dipole moment (field-independent basis, Debye):
    X=             -0.0517    Y=             -0.0737    Z=              0.0002  Tot=              0.0900
 Quadrupole moment (field-independent basis, Debye-Ang):
   XX=             -8.4985   YY=             -8.6789   ZZ=             -8.5001
   XY=              0.1462   XZ=              0.0010   YZ=             -0.0008

 Normal termination of Gaussian 16 at Fri Sep 22 17:20:54 2023.
