 Gaussian 16, Revision A.03,
 Gaussian 16:  ES64L-G16RevA.03 25-Dec-2016

 ----------
 # hf/3-21g
 ----------

 ------------------------
 tmpdir/M2_conf_145_3.gjf
 ------------------------
 Symbolic Z-matrix:
 Charge =  0 Multiplicity = 1

                         Standard orientation:
 ---------------------------------------------------------------------
 Center     Atomic      Atomic             Coordinates (Angstroms)
 Number     Number       Type             X           Y           Z
 ---------------------------------------------------------------------
      1          6           0       -1.492076    0.000015    0.000010
      2         17           0        0.842924   -0.000012   -0.000003
      3          1           0       -1.792444   -0.278188    0.992268
      4          1           0       -1.792126    0.998725   -0.255259
      5          1           0       -1.792688   -0.720428   -0.737022
 ---------------------------------------------------------------------

 SCF Done:  E(RHF) =  -496.650932624     A.U. after   10 cycles

 The electronic state is 1-A.
 Alpha  occ. eigenvalues -- -104.07571 -11.29554 -10.46274  -7.92598  -7.92331
 Alpha  occ. eigenvalues --   -7.92331  -1.03893  -0.97003  -0.64347  -0.64342
 Alpha  occ. eigenvalues --   -0.44169  -0.42113  -0.42113
 Alpha virt. eigenvalues --    0.04624   0.25532   0.30283   0.30287   0.73289
 Alpha virt. eigenvalues --    0.78891   0.78896   0.88460   0.93397   0.93406
 Alpha virt. eigenvalues --    1.01362   1.27547   1.28654   1.28663   1.81062

 Mulliken charges:
               1
     1  C   -0.483188
     2  Cl  -0.331649
     3  H    0.271628
     4  H    0.271622
     5  H    0.271588
 Sum of Mulliken charges =   0.00000

 Dipole moment (field-independent basis, Debye):
    X=             -4.6224    Y=              0.0001    Z=              0.0001  Tot=              4.6224
 Quadrupole moment (field-independent basis, Debye-Ang):
   XX=            -15.5471   YY=            -20.4020   ZZ=            -20.4034
   XY=              0.0005   XZ=             -0.0001   YZ=             -0.0001

 Normal termination of Gaussian 16 at Fri Sep 22 17:17:44 2023.
