 Gaussian 16, Revision A.03,
 Gaussian 16:  ES64L-G16RevA.03 25-Dec-2016

 ----------
 # hf/3-21g
 ----------

 -----------------------
 tmpdir/M2_conf_27_4.gjf
 -----------------------
 Symbolic Z-matrix:
 Charge =  0 Multiplicity = 1

                         Standard orientation:
 ---------------------------------------------------------------------
 Center     Atomic      Atomic             Coordinates (Angstroms)
 Number     Number       Type             X           Y           Z
 ---------------------------------------------------------------------
      1          1           0        0.519426   -0.104100    0.914909
      2          6           0        0.005140    0.026529   -0.018168
      3          1           0        0.810044   -0.235197   -0.678658
      4          1           0       -0.475246    0.983838   -0.091606
      5          1           0       -0.885065   -0.803714   -0.035636
 ---------------------------------------------------------------------

 SCF Done:  E(RHF) =  -39.9608726875     A.U. after    9 cycles

 The electronic state is 1-A.
 Alpha  occ. eigenvalues --  -11.15728  -0.93946  -0.57849  -0.52602  -0.50760
 Alpha virt. eigenvalues --    0.28127   0.32310   0.34552   0.36418   0.90114
 Alpha virt. eigenvalues --    0.94028   0.98868   1.24665   1.32404   1.34679
 Alpha virt. eigenvalues --    1.39749   1.93721

 Mulliken charges:
               1
     1  H    0.203530
     2  C   -0.777203
     3  H    0.207909
     4  H    0.209830
     5  H    0.155933
 Sum of Mulliken charges =   0.00000

 Dipole moment (field-independent basis, Debye):
    X=              0.1302    Y=              0.0297    Z=              0.0926  Tot=              0.1625
 Quadrupole moment (field-independent basis, Debye-Ang):
   XX=             -8.1089   YY=             -8.4397   ZZ=             -8.8949
   XY=             -0.2377   XZ=             -0.0237   YZ=             -0.0143

 Normal termination of Gaussian 16 at Fri Sep 22 17:14:48 2023.
