 Gaussian 16, Revision A.03,
 Gaussian 16:  ES64L-G16RevA.03 25-Dec-2016

 ----------
 # hf/3-21g
 ----------

 -----------------------
 tmpdir/M2_conf_22_2.gjf
 -----------------------
 Symbolic Z-matrix:
 Charge =  0 Multiplicity = 1

                         Standard orientation:
 ---------------------------------------------------------------------
 Center     Atomic      Atomic             Coordinates (Angstroms)
 Number     Number       Type             X           Y           Z
 ---------------------------------------------------------------------
      1          6           0        0.012886   -0.027511   -0.000015
      2          1           0        1.065909    0.463080   -0.002998
      3          1           0       -0.174035   -0.592748    0.893163
      4          1           0       -0.179544   -0.593175   -0.891989
      5          1           0       -0.789644    0.887912    0.001916
 ---------------------------------------------------------------------

 SCF Done:  E(RHF) =  -39.9630515858     A.U. after    9 cycles

 The electronic state is 1-A.
 Alpha  occ. eigenvalues --  -11.16747  -0.92933  -0.55792  -0.53832  -0.50143
 Alpha virt. eigenvalues --    0.27843   0.31344   0.34246   0.35687   0.91731
 Alpha virt. eigenvalues --    0.95027   0.98805   1.24252   1.27453   1.34277
 Alpha virt. eigenvalues --    1.36722   1.93650

 Mulliken charges:
               1
     1  C   -0.756001
     2  H    0.182528
     3  H    0.209360
     4  H    0.209310
     5  H    0.154803
 Sum of Mulliken charges =   0.00000

 Dipole moment (field-independent basis, Debye):
    X=             -0.0155    Y=             -0.0729    Z=              0.0001  Tot=              0.0745
 Quadrupole moment (field-independent basis, Debye-Ang):
   XX=             -8.5385   YY=             -8.6076   ZZ=             -8.4735
   XY=              0.1588   XZ=              0.0011   YZ=             -0.0006

 Normal termination of Gaussian 16 at Fri Sep 22 17:14:40 2023.
