 Gaussian 16, Revision A.03,
 Gaussian 16:  ES64L-G16RevA.03 25-Dec-2016

 ----------
 # hf/3-21g
 ----------

 ------------------------
 tmpdir/M2_conf_144_4.gjf
 ------------------------
 Symbolic Z-matrix:
 Charge =  0 Multiplicity = 1

                         Standard orientation:
 ---------------------------------------------------------------------
 Center     Atomic      Atomic             Coordinates (Angstroms)
 Number     Number       Type             X           Y           Z
 ---------------------------------------------------------------------
      1          1           0       -1.041475    0.112879   -0.333049
      2          6           0       -0.023757   -0.028220   -0.022361
      3          1           0        0.750469   -0.322792   -0.705312
      4          1           0        0.059867   -0.682169    0.824965
      5          1           0        0.373678    1.061401    0.347564
 ---------------------------------------------------------------------

 SCF Done:  E(RHF) =  -39.9627557466     A.U. after    9 cycles

 The electronic state is 1-A.
 Alpha  occ. eigenvalues --  -11.15753  -0.93842  -0.57547  -0.54253  -0.49599
 Alpha virt. eigenvalues --    0.28320   0.31721   0.35059   0.36416   0.90619
 Alpha virt. eigenvalues --    0.94388   0.97337   1.25302   1.31636   1.35744
 Alpha virt. eigenvalues --    1.38956   1.94585

 Mulliken charges:
               1
     1  H    0.211071
     2  C   -0.777549
     3  H    0.211021
     4  H    0.206061
     5  H    0.149396
 Sum of Mulliken charges =   0.00000

 Dipole moment (field-independent basis, Debye):
    X=              0.0307    Y=             -0.0665    Z=              0.0175  Tot=              0.0753
 Quadrupole moment (field-independent basis, Debye-Ang):
   XX=             -8.0981   YY=             -8.6372   ZZ=             -8.7253
   XY=             -0.1496   XZ=             -0.0389   YZ=             -0.1331

 Normal termination of Gaussian 16 at Fri Sep 22 17:17:43 2023.
