 Gaussian 16, Revision A.03,
 Gaussian 16:  ES64L-G16RevA.03 25-Dec-2016

 ----------
 # hf/3-21g
 ----------

 ------------------------
 tmpdir/M2_conf_272_5.gjf
 ------------------------
 Symbolic Z-matrix:
 Charge =  0 Multiplicity = 1

                         Standard orientation:
 ---------------------------------------------------------------------
 Center     Atomic      Atomic             Coordinates (Angstroms)
 Number     Number       Type             X           Y           Z
 ---------------------------------------------------------------------
      1          1           0       -0.407614   -0.251336    0.962187
      2          6           0       -0.025181    0.013979   -0.005047
      3          1           0       -0.585005   -0.528563   -0.743190
      4          1           0        0.017591    1.076524   -0.152623
      5          1           0        1.126116   -0.380498   -0.036095
 ---------------------------------------------------------------------

 SCF Done:  E(RHF) =  -39.9665695119     A.U. after    9 cycles

 The electronic state is 1-A.
 Alpha  occ. eigenvalues --  -11.15720  -0.93793  -0.56329  -0.54708  -0.50467
 Alpha virt. eigenvalues --    0.28284   0.32315   0.35332   0.35965   0.91130
 Alpha virt. eigenvalues --    0.92629   0.97897   1.24943   1.32673   1.36088
 Alpha virt. eigenvalues --    1.37703   1.94527

 Mulliken charges:
               1
     1  H    0.205348
     2  C   -0.771152
     3  H    0.206139
     4  H    0.207096
     5  H    0.152569
 Sum of Mulliken charges =  -0.00000

 Dipole moment (field-independent basis, Debye):
    X=             -0.0849    Y=              0.0098    Z=              0.0278  Tot=              0.0899
 Quadrupole moment (field-independent basis, Debye-Ang):
   XX=             -8.5374   YY=             -8.3502   ZZ=             -8.5464
   XY=              0.1469   XZ=              0.0194   YZ=             -0.0046

 Normal termination of Gaussian 16 at Fri Sep 22 17:21:02 2023.
