 Gaussian 16, Revision A.03,
 Gaussian 16:  ES64L-G16RevA.03 25-Dec-2016

 ----------
 # hf/3-21g
 ----------

 ------------------------
 tmpdir/M2_conf_213_1.gjf
 ------------------------
 Symbolic Z-matrix:
 Charge =  0 Multiplicity = 1

                         Standard orientation:
 ---------------------------------------------------------------------
 Center     Atomic      Atomic             Coordinates (Angstroms)
 Number     Number       Type             X           Y           Z
 ---------------------------------------------------------------------
      1          6           0       -0.032239   -0.000060    0.012551
      2          1           0       -0.158544   -0.001845    1.001214
      3          1           0       -0.408067   -0.892185   -0.451182
      4          1           0       -0.410290    0.892755   -0.448495
      5          1           0        1.170335    0.001635   -0.176840
 ---------------------------------------------------------------------

 SCF Done:  E(RHF) =  -39.9613583064     A.U. after    9 cycles

 The electronic state is 1-A.
 Alpha  occ. eigenvalues --  -11.14831  -0.94763  -0.57329  -0.55529  -0.50289
 Alpha virt. eigenvalues --    0.28517   0.32577   0.35682   0.37406   0.88424
 Alpha virt. eigenvalues --    0.92097   0.97555   1.25361   1.34051   1.37092
 Alpha virt. eigenvalues --    1.44105   1.95802

 Mulliken charges:
               1
     1  C   -0.779450
     2  H    0.224661
     3  H    0.203436
     4  H    0.203381
     5  H    0.147972
 Sum of Mulliken charges =  -0.00000

 Dipole moment (field-independent basis, Debye):
    X=             -0.0830    Y=             -0.0003    Z=              0.0536  Tot=              0.0988
 Quadrupole moment (field-independent basis, Debye-Ang):
   XX=             -8.5744   YY=             -8.3133   ZZ=             -8.3783
   XY=             -0.0005   XZ=              0.0442   YZ=             -0.0001

 Normal termination of Gaussian 16 at Fri Sep 22 17:19:32 2023.
