 Gaussian 16, Revision A.03,
 Gaussian 16:  ES64L-G16RevA.03 25-Dec-2016

 ----------
 # hf/3-21g
 ----------

 ------------------------
 tmpdir/M2_conf_288_9.gjf
 ------------------------
 Symbolic Z-matrix:
 Charge =  0 Multiplicity = 1

                         Standard orientation:
 ---------------------------------------------------------------------
 Center     Atomic      Atomic             Coordinates (Angstroms)
 Number     Number       Type             X           Y           Z
 ---------------------------------------------------------------------
      1          1           0        1.333051   -0.016185    1.061947
      2          6           0        1.202811    0.000062   -0.003600
      3         17           0       -0.689091    0.000095   -0.006643
      4          1           0        1.582442   -0.885341   -0.477033
      5          1           0        1.582189    0.899540   -0.450383
 ---------------------------------------------------------------------

 SCF Done:  E(RHF) =  -496.685884674     A.U. after   11 cycles

 The electronic state is 1-A.
 Alpha  occ. eigenvalues -- -104.08808 -11.24989 -10.48199  -7.94573  -7.94169
 Alpha  occ. eigenvalues --   -7.94168  -1.11373  -0.93312  -0.63412  -0.63197
 Alpha  occ. eigenvalues --   -0.51190  -0.43849  -0.43564
 Alpha virt. eigenvalues --    0.16380   0.27349   0.31372   0.31429   0.73872
 Alpha virt. eigenvalues --    0.80176   0.81029   0.85615   0.92642   0.94783
 Alpha virt. eigenvalues --    0.99962   1.30862   1.31183   1.32342   1.91462

 Mulliken charges:
               1
     1  H    0.275836
     2  C   -0.703724
     3  Cl  -0.107103
     4  H    0.267508
     5  H    0.267483
 Sum of Mulliken charges =  -0.00000

 Dipole moment (field-independent basis, Debye):
    X=              2.8550    Y=             -0.0015    Z=              0.0923  Tot=              2.8565
 Quadrupole moment (field-independent basis, Debye-Ang):
   XX=            -18.5584   YY=            -20.1831   ZZ=            -20.2244
   XY=              0.0033   XZ=             -0.2481   YZ=             -0.0001

 Normal termination of Gaussian 16 at Fri Sep 22 17:21:31 2023.
