 Gaussian 16, Revision A.03,
 Gaussian 16:  ES64L-G16RevA.03 25-Dec-2016

 ----------
 # hf/3-21g
 ----------

 ------------------------
 tmpdir/M2_conf_114_9.gjf
 ------------------------
 Symbolic Z-matrix:
 Charge =  0 Multiplicity = 1

                         Standard orientation:
 ---------------------------------------------------------------------
 Center     Atomic      Atomic             Coordinates (Angstroms)
 Number     Number       Type             X           Y           Z
 ---------------------------------------------------------------------
      1          1           0        1.261889   -0.008352    1.066680
      2          6           0        1.203260    0.000046   -0.005285
      3         17           0       -0.688639    0.000067   -0.009233
      4          1           0        1.612815   -0.889048   -0.445707
      5          1           0        1.612604    0.895981   -0.432301
 ---------------------------------------------------------------------

 SCF Done:  E(RHF) =  -496.682169652     A.U. after   11 cycles

 The electronic state is 1-A.
 Alpha  occ. eigenvalues -- -104.08847 -11.24972 -10.48241  -7.94614  -7.94210
 Alpha  occ. eigenvalues --   -7.94208  -1.11473  -0.93285  -0.63544  -0.63181
 Alpha  occ. eigenvalues --   -0.51069  -0.43919  -0.43450
 Alpha virt. eigenvalues --    0.16163   0.27378   0.31384   0.31458   0.73918
 Alpha virt. eigenvalues --    0.79970   0.81058   0.85643   0.92453   0.95222
 Alpha virt. eigenvalues --    1.00307   1.30567   1.31173   1.32364   1.90904

 Mulliken charges:
               1
     1  H    0.278268
     2  C   -0.704554
     3  Cl  -0.107379
     4  H    0.266845
     5  H    0.266820
 Sum of Mulliken charges =   0.00000

 Dipole moment (field-independent basis, Debye):
    X=              2.8428    Y=             -0.0011    Z=              0.1322  Tot=              2.8459
 Quadrupole moment (field-independent basis, Debye-Ang):
   XX=            -18.5483   YY=            -20.1833   ZZ=            -20.2705
   XY=              0.0023   XZ=             -0.3446   YZ=             -0.0001

 Normal termination of Gaussian 16 at Fri Sep 22 17:16:58 2023.
