 Gaussian 16, Revision A.03,
 Gaussian 16:  ES64L-G16RevA.03 25-Dec-2016

 ----------
 # hf/3-21g
 ----------

 ------------------------
 tmpdir/M2_conf_182_6.gjf
 ------------------------
 Symbolic Z-matrix:
 Charge =  0 Multiplicity = 1

                         Standard orientation:
 ---------------------------------------------------------------------
 Center     Atomic      Atomic             Coordinates (Angstroms)
 Number     Number       Type             X           Y           Z
 ---------------------------------------------------------------------
      1          1           0       -0.983380   -0.001296    1.035634
      2          6           0       -1.206481    0.000030   -0.014324
      3         17           0        0.685415    0.000014   -0.017495
      4          1           0       -1.714744    0.893127   -0.325221
      5          1           0       -1.715052   -0.892252   -0.327052
 ---------------------------------------------------------------------

 SCF Done:  E(RHF) =  -496.652598874     A.U. after   11 cycles

 The electronic state is 1-A.
 Alpha  occ. eigenvalues -- -104.09208 -11.24758 -10.48648  -7.95013  -7.94603
 Alpha  occ. eigenvalues --   -7.94590  -1.12381  -0.93072  -0.64398  -0.63092
 Alpha  occ. eigenvalues --   -0.50504  -0.44396  -0.42548
 Alpha virt. eigenvalues --    0.14743   0.27787   0.31516   0.31629   0.74141
 Alpha virt. eigenvalues --    0.79136   0.80728   0.85000   0.93418   0.96760
 Alpha virt. eigenvalues --    1.01852   1.28832   1.31218   1.31959   1.87122

 Mulliken charges:
               1
     1  H    0.287086
     2  C   -0.708286
     3  Cl  -0.111273
     4  H    0.266242
     5  H    0.266231
 Sum of Mulliken charges =  -0.00000

 Dipole moment (field-independent basis, Debye):
    X=             -2.7312    Y=             -0.0003    Z=              0.2963  Tot=              2.7472
 Quadrupole moment (field-independent basis, Debye-Ang):
   XX=            -18.5130   YY=            -20.1732   ZZ=            -20.6011
   XY=             -0.0005   XZ=              0.6452   YZ=             -0.0001

 Normal termination of Gaussian 16 at Fri Sep 22 17:18:41 2023.
