 Gaussian 16, Revision A.03,
 Gaussian 16:  ES64L-G16RevA.03 25-Dec-2016

 ----------
 # hf/3-21g
 ----------

 -----------------------
 tmpdir/M2_conf_74_1.gjf
 -----------------------
 Symbolic Z-matrix:
 Charge =  0 Multiplicity = 1

                         Standard orientation:
 ---------------------------------------------------------------------
 Center     Atomic      Atomic             Coordinates (Angstroms)
 Number     Number       Type             X           Y           Z
 ---------------------------------------------------------------------
      1          6           0       -0.025948   -0.016288    0.000059
      2          1           0       -0.738919    0.851607   -0.002917
      3          1           0       -0.099298   -0.605083    0.894554
      4          1           0       -0.099333   -0.611555   -0.890378
      5          1           0        1.093235    0.462756   -0.001612
 ---------------------------------------------------------------------

 SCF Done:  E(RHF) =  -39.9657946771     A.U. after    9 cycles

 The electronic state is 1-A.
 Alpha  occ. eigenvalues --  -11.16304  -0.93267  -0.55718  -0.54594  -0.50221
 Alpha virt. eigenvalues --    0.28100   0.31808   0.34772   0.35687   0.91804
 Alpha virt. eigenvalues --    0.93943   0.98024   1.24754   1.29748   1.34933
 Alpha virt. eigenvalues --    1.36822   1.94076

 Mulliken charges:
               1
     1  C   -0.762996
     2  H    0.193319
     3  H    0.208185
     4  H    0.208129
     5  H    0.153362
 Sum of Mulliken charges =   0.00000

 Dipole moment (field-independent basis, Debye):
    X=             -0.0395    Y=             -0.0515    Z=              0.0003  Tot=              0.0649
 Quadrupole moment (field-independent basis, Debye-Ang):
   XX=             -8.6506   YY=             -8.4529   ZZ=             -8.4385
   XY=             -0.1132   XZ=              0.0004   YZ=              0.0003

 Normal termination of Gaussian 16 at Fri Sep 22 17:15:58 2023.
