 Gaussian 16, Revision A.03,
 Gaussian 16:  ES64L-G16RevA.03 25-Dec-2016

 ----------
 # hf/3-21g
 ----------

 ----------------------
 tmpdir/M2_conf_3_9.gjf
 ----------------------
 Symbolic Z-matrix:
 Charge =  0 Multiplicity = 1

                         Standard orientation:
 ---------------------------------------------------------------------
 Center     Atomic      Atomic             Coordinates (Angstroms)
 Number     Number       Type             X           Y           Z
 ---------------------------------------------------------------------
      1          1           0        1.336965   -0.016920    1.061535
      2          6           0        1.202787    0.000063   -0.003512
      3         17           0       -0.689110    0.000097   -0.006496
      4          1           0        1.580716   -0.884986   -0.478963
      5          1           0        1.580461    0.899876   -0.451065
 ---------------------------------------------------------------------

 SCF Done:  E(RHF) =  -496.686050074     A.U. after   11 cycles

 The electronic state is 1-A.
 Alpha  occ. eigenvalues -- -104.08806 -11.24989 -10.48197  -7.94571  -7.94167
 Alpha  occ. eigenvalues --   -7.94166  -1.11368  -0.93313  -0.63406  -0.63198
 Alpha  occ. eigenvalues --   -0.51196  -0.43845  -0.43569
 Alpha virt. eigenvalues --    0.16390   0.27348   0.31372   0.31428   0.73870
 Alpha virt. eigenvalues --    0.80187   0.81026   0.85612   0.92658   0.94759
 Alpha virt. eigenvalues --    0.99945   1.30876   1.31184   1.32339   1.91487

 Mulliken charges:
               1
     1  H    0.275700
     2  C   -0.703684
     3  Cl  -0.107091
     4  H    0.267550
     5  H    0.267526
 Sum of Mulliken charges =   0.00000

 Dipole moment (field-independent basis, Debye):
    X=              2.8555    Y=             -0.0015    Z=              0.0902  Tot=              2.8569
 Quadrupole moment (field-independent basis, Debye-Ang):
   XX=            -18.5589   YY=            -20.1831   ZZ=            -20.2223
   XY=              0.0034   XZ=             -0.2426   YZ=             -0.0001

 Normal termination of Gaussian 16 at Fri Sep 22 17:14:12 2023.
