 Gaussian 16, Revision A.03,
 Gaussian 16:  ES64L-G16RevA.03 25-Dec-2016

 ----------
 # hf/3-21g
 ----------

 ------------------------
 tmpdir/M2_conf_254_9.gjf
 ------------------------
 Symbolic Z-matrix:
 Charge =  0 Multiplicity = 1

                         Standard orientation:
 ---------------------------------------------------------------------
 Center     Atomic      Atomic             Coordinates (Angstroms)
 Number     Number       Type             X           Y           Z
 ---------------------------------------------------------------------
      1          1           0        1.361011   -0.022821    1.058635
      2          6           0        1.202676    0.000072   -0.002978
      3         17           0       -0.689227    0.000114   -0.005587
      4          1           0        1.570031   -0.882110   -0.491856
      5          1           0        1.569763    0.902567   -0.453927
 ---------------------------------------------------------------------

 SCF Done:  E(RHF) =  -496.686978171     A.U. after   11 cycles

 The electronic state is 1-A.
 Alpha  occ. eigenvalues -- -104.08797 -11.24993 -10.48187  -7.94561  -7.94157
 Alpha  occ. eigenvalues --   -7.94157  -1.11344  -0.93319  -0.63370  -0.63204
 Alpha  occ. eigenvalues --   -0.51229  -0.43825  -0.43600
 Alpha virt. eigenvalues --    0.16446   0.27342   0.31369   0.31419   0.73858
 Alpha virt. eigenvalues --    0.80257   0.80999   0.85591   0.92768   0.94606
 Alpha virt. eigenvalues --    0.99845   1.30962   1.31189   1.32319   1.91628

 Mulliken charges:
               1
     1  H    0.274861
     2  C   -0.703431
     3  Cl  -0.107056
     4  H    0.267825
     5  H    0.267800
 Sum of Mulliken charges =   0.00000

 Dipole moment (field-independent basis, Debye):
    X=              2.8585    Y=             -0.0017    Z=              0.0768  Tot=              2.8595
 Quadrupole moment (field-independent basis, Debye-Ang):
   XX=            -18.5617   YY=            -20.1829   ZZ=            -20.2107
   XY=              0.0040   XZ=             -0.2087   YZ=             -0.0002

 Normal termination of Gaussian 16 at Fri Sep 22 17:20:34 2023.
