 Gaussian 16, Revision A.03,
 Gaussian 16:  ES64L-G16RevA.03 25-Dec-2016

 ----------
 # hf/3-21g
 ----------

 ------------------------
 tmpdir/M2_conf_299_5.gjf
 ------------------------
 Symbolic Z-matrix:
 Charge =  0 Multiplicity = 1

                         Standard orientation:
 ---------------------------------------------------------------------
 Center     Atomic      Atomic             Coordinates (Angstroms)
 Number     Number       Type             X           Y           Z
 ---------------------------------------------------------------------
      1          1           0        1.047119    0.081507   -0.328437
      2          6           0        0.023847   -0.028817   -0.023593
      3          1           0       -0.765556   -0.290497   -0.702551
      4          1           0       -0.085697   -0.687754    0.816890
      5          1           0       -0.338950    1.069643    0.355653
 ---------------------------------------------------------------------

 SCF Done:  E(RHF) =  -39.9621752591     A.U. after    9 cycles

 The electronic state is 1-A.
 Alpha  occ. eigenvalues --  -11.15756  -0.93852  -0.57682  -0.54160  -0.49534
 Alpha virt. eigenvalues --    0.28317   0.31661   0.35018   0.36466   0.90544
 Alpha virt. eigenvalues --    0.94615   0.97323   1.25314   1.31568   1.35677
 Alpha virt. eigenvalues --    1.39114   1.94573

 Mulliken charges:
               1
     1  H    0.211570
     2  C   -0.778554
     3  H    0.211613
     4  H    0.206089
     5  H    0.149283
 Sum of Mulliken charges =  -0.00000

 Dipole moment (field-independent basis, Debye):
    X=             -0.0367    Y=             -0.0658    Z=              0.0198  Tot=              0.0779
 Quadrupole moment (field-independent basis, Debye-Ang):
   XX=             -8.0651   YY=             -8.6473   ZZ=             -8.7505
   XY=              0.1360   XZ=              0.0350   YZ=             -0.1373

 Normal termination of Gaussian 16 at Fri Sep 22 17:21:48 2023.
