 Gaussian 16, Revision A.03,
 Gaussian 16:  ES64L-G16RevA.03 25-Dec-2016

 ----------
 # hf/3-21g
 ----------

 ------------------------
 tmpdir/M2_conf_179_7.gjf
 ------------------------
 Symbolic Z-matrix:
 Charge =  0 Multiplicity = 1

                         Standard orientation:
 ---------------------------------------------------------------------
 Center     Atomic      Atomic             Coordinates (Angstroms)
 Number     Number       Type             X           Y           Z
 ---------------------------------------------------------------------
      1          1           0        0.421343   -0.234909    0.958927
      2          6           0        0.023431    0.016097   -0.006101
      3          1           0        0.621799   -0.492960   -0.737832
      4          1           0       -0.080610    1.075414   -0.144655
      5          1           0       -1.103119   -0.444128   -0.039835
 ---------------------------------------------------------------------

 SCF Done:  E(RHF) =  -39.9663473399     A.U. after    9 cycles

 The electronic state is 1-A.
 Alpha  occ. eigenvalues --  -11.15720  -0.93800  -0.56459  -0.54531  -0.50500
 Alpha virt. eigenvalues --    0.28275   0.32325   0.35262   0.36015   0.91017
 Alpha virt. eigenvalues --    0.92749   0.97957   1.24919   1.32703   1.35928
 Alpha virt. eigenvalues --    1.37862   1.94491

 Mulliken charges:
               1
     1  H    0.205119
     2  C   -0.771434
     3  H    0.206183
     4  H    0.207311
     5  H    0.152820
 Sum of Mulliken charges =  -0.00000

 Dipole moment (field-independent basis, Debye):
    X=              0.0878    Y=              0.0123    Z=              0.0330  Tot=              0.0946
 Quadrupole moment (field-independent basis, Debye-Ang):
   XX=             -8.5019   YY=             -8.3566   ZZ=             -8.5752
   XY=             -0.1675   XZ=             -0.0216   YZ=             -0.0061

 Normal termination of Gaussian 16 at Fri Sep 22 17:18:36 2023.
