 Gaussian 16, Revision A.03,
 Gaussian 16:  ES64L-G16RevA.03 25-Dec-2016

 ----------
 # hf/3-21g
 ----------

 ------------------------
 tmpdir/M2_conf_224_4.gjf
 ------------------------
 Symbolic Z-matrix:
 Charge =  0 Multiplicity = 1

                         Standard orientation:
 ---------------------------------------------------------------------
 Center     Atomic      Atomic             Coordinates (Angstroms)
 Number     Number       Type             X           Y           Z
 ---------------------------------------------------------------------
      1          1           0       -0.331094    0.950426   -0.399945
      2          6           0       -0.031779    0.000087   -0.000628
      3          1           0       -0.318802   -0.821844   -0.628846
      4          1           0       -0.344944   -0.134433    1.017427
      5          1           0        1.185512    0.005330    0.015132
 ---------------------------------------------------------------------

 SCF Done:  E(RHF) =  -39.9669339576     A.U. after    9 cycles

 The electronic state is 1-A.
 Alpha  occ. eigenvalues --  -11.15726  -0.93776  -0.55675  -0.55608  -0.50261
 Alpha virt. eigenvalues --    0.28319   0.32226   0.35674   0.35702   0.91893
 Alpha virt. eigenvalues --    0.91950   0.97629   1.25072   1.32441   1.36909
 Alpha virt. eigenvalues --    1.36981   1.94652

 Mulliken charges:
               1
     1  H    0.206532
     2  C   -0.770705
     3  H    0.206459
     4  H    0.206402
     5  H    0.151312
 Sum of Mulliken charges =   0.00000

 Dipole moment (field-independent basis, Debye):
    X=             -0.0703    Y=             -0.0011    Z=             -0.0003  Tot=              0.0703
 Quadrupole moment (field-independent basis, Debye-Ang):
   XX=             -8.6587   YY=             -8.3844   ZZ=             -8.3949
   XY=             -0.0026   XZ=             -0.0062   YZ=             -0.0003

 Normal termination of Gaussian 16 at Fri Sep 22 17:19:49 2023.
