 Gaussian 16, Revision A.03,
 Gaussian 16:  ES64L-G16RevA.03 25-Dec-2016

 ----------
 # hf/3-21g
 ----------

 ------------------------
 tmpdir/M2_conf_170_8.gjf
 ------------------------
 Symbolic Z-matrix:
 Charge =  0 Multiplicity = 1

                         Standard orientation:
 ---------------------------------------------------------------------
 Center     Atomic      Atomic             Coordinates (Angstroms)
 Number     Number       Type             X           Y           Z
 ---------------------------------------------------------------------
      1          1           0       -1.023002   -0.000816    1.045236
      2          6           0       -1.205877   -0.000006   -0.012673
      3         17           0        0.686021    0.000020   -0.016554
      4          1           0       -1.701907   -0.892218   -0.344472
      5          1           0       -1.702179    0.892731   -0.343313
 ---------------------------------------------------------------------

 SCF Done:  E(RHF) =  -496.658525474     A.U. after   11 cycles

 The electronic state is 1-A.
 Alpha  occ. eigenvalues -- -104.09131 -11.24812 -10.48558  -7.94925  -7.94516
 Alpha  occ. eigenvalues --   -7.94506  -1.12185  -0.93116  -0.64247  -0.63110
 Alpha  occ. eigenvalues --   -0.50570  -0.44301  -0.42741
 Alpha virt. eigenvalues --    0.14995   0.27686   0.31487   0.31598   0.74112
 Alpha virt. eigenvalues --    0.79261   0.80802   0.85139   0.93187   0.96549
 Alpha virt. eigenvalues --    1.01644   1.29163   1.31202   1.32043   1.87779

 Mulliken charges:
               1
     1  H    0.285850
     2  C   -0.707627
     3  Cl  -0.110488
     4  H    0.266155
     5  H    0.266110
 Sum of Mulliken charges =  -0.00000

 Dipole moment (field-independent basis, Debye):
    X=             -2.7556    Y=             -0.0003    Z=              0.2716  Tot=              2.7690
 Quadrupole moment (field-independent basis, Debye-Ang):
   XX=            -18.5145   YY=            -20.1772   ZZ=            -20.5391
   XY=             -0.0006   XZ=              0.6132   YZ=              0.0000

 Normal termination of Gaussian 16 at Fri Sep 22 17:18:22 2023.
