 Gaussian 16, Revision A.03,
 Gaussian 16:  ES64L-G16RevA.03 25-Dec-2016

 ----------
 # hf/3-21g
 ----------

 -----------------------
 tmpdir/M2_conf_19_3.gjf
 -----------------------
 Symbolic Z-matrix:
 Charge =  0 Multiplicity = 1

                         Standard orientation:
 ---------------------------------------------------------------------
 Center     Atomic      Atomic             Coordinates (Angstroms)
 Number     Number       Type             X           Y           Z
 ---------------------------------------------------------------------
      1          6           0       -1.267349    0.000018    0.000010
      2         17           0        0.723951   -0.000014   -0.000003
      3          1           0       -1.567717   -0.278184    0.992269
      4          1           0       -1.567395    0.998730   -0.255257
      5          1           0       -1.567965   -0.720423   -0.737021
 ---------------------------------------------------------------------

 SCF Done:  E(RHF) =  -496.686586220     A.U. after   10 cycles

 The electronic state is 1-A.
 Alpha  occ. eigenvalues -- -104.08732 -11.26072 -10.47882  -7.94239  -7.93879
 Alpha  occ. eigenvalues --   -7.93879  -1.09029  -0.94314  -0.63179  -0.63174
 Alpha  occ. eigenvalues --   -0.49612  -0.43581  -0.43581
 Alpha virt. eigenvalues --    0.13330   0.26940   0.31255   0.31259   0.73626
 Alpha virt. eigenvalues --    0.80209   0.80213   0.85590   0.93646   0.93657
 Alpha virt. eigenvalues --    1.01891   1.30757   1.30766   1.31039   1.88847

 Mulliken charges:
               1
     1  C   -0.641946
     2  Cl  -0.167766
     3  H    0.269927
     4  H    0.269907
     5  H    0.269878
 Sum of Mulliken charges =  -0.00000

 Dipole moment (field-independent basis, Debye):
    X=             -3.2195    Y=              0.0001    Z=              0.0001  Tot=              3.2195
 Quadrupole moment (field-independent basis, Debye-Ang):
   XX=            -17.9329   YY=            -20.2588   ZZ=            -20.2602
   XY=              0.0007   XZ=             -0.0001   YZ=             -0.0001

 Normal termination of Gaussian 16 at Fri Sep 22 17:14:36 2023.
