 Gaussian 16, Revision A.03,
 Gaussian 16:  ES64L-G16RevA.03 25-Dec-2016

 ----------
 # hf/3-21g
 ----------

 -----------------------
 tmpdir/M2_conf_24_4.gjf
 -----------------------
 Symbolic Z-matrix:
 Charge =  0 Multiplicity = 1

                         Standard orientation:
 ---------------------------------------------------------------------
 Center     Atomic      Atomic             Coordinates (Angstroms)
 Number     Number       Type             X           Y           Z
 ---------------------------------------------------------------------
      1          1           0        0.438539   -0.209993    0.954869
      2          6           0        0.021278    0.018217   -0.007420
      3          1           0        0.658439   -0.455194   -0.730278
      4          1           0       -0.151222    1.069379   -0.141234
      5          1           0       -1.073423   -0.513493   -0.038834
 ---------------------------------------------------------------------

 SCF Done:  E(RHF) =  -39.9660206265     A.U. after    9 cycles

 The electronic state is 1-A.
 Alpha  occ. eigenvalues --  -11.15720  -0.93809  -0.56607  -0.54328  -0.50535
 Alpha virt. eigenvalues --    0.28264   0.32331   0.35188   0.36066   0.90874
 Alpha virt. eigenvalues --    0.92911   0.98029   1.24892   1.32715   1.35770
 Alpha virt. eigenvalues --    1.38043   1.94441

 Mulliken charges:
               1
     1  H    0.204989
     2  C   -0.771840
     3  H    0.206273
     4  H    0.207463
     5  H    0.153115
 Sum of Mulliken charges =   0.00000

 Dipole moment (field-independent basis, Debye):
    X=              0.0915    Y=              0.0152    Z=              0.0390  Tot=              0.1006
 Quadrupole moment (field-independent basis, Debye-Ang):
   XX=             -8.4574   YY=             -8.3669   ZZ=             -8.6094
   XY=             -0.1880   XZ=             -0.0216   YZ=             -0.0074

 Normal termination of Gaussian 16 at Fri Sep 22 17:14:43 2023.
