 Gaussian 16, Revision A.03,
 Gaussian 16:  ES64L-G16RevA.03 25-Dec-2016

 ----------
 # hf/3-21g
 ----------

 ------------------------
 tmpdir/M2_conf_202_3.gjf
 ------------------------
 Symbolic Z-matrix:
 Charge =  0 Multiplicity = 1

                         Standard orientation:
 ---------------------------------------------------------------------
 Center     Atomic      Atomic             Coordinates (Angstroms)
 Number     Number       Type             X           Y           Z
 ---------------------------------------------------------------------
      1          6           0       -1.933618    0.000010    0.000009
      2         17           0        1.076682   -0.000009   -0.000002
      3          1           0       -2.233986   -0.278193    0.992266
      4          1           0       -2.233673    0.998719   -0.255262
      5          1           0       -2.234225   -0.720435   -0.737023
 ---------------------------------------------------------------------

 SCF Done:  E(RHF) =  -496.564981541     A.U. after   10 cycles

 The electronic state is 1-A.
 Alpha  occ. eigenvalues -- -104.03288 -11.35051 -10.41942  -7.88258  -7.88050
 Alpha  occ. eigenvalues --   -7.88050  -1.03489  -0.96427  -0.68496  -0.68492
 Alpha  occ. eigenvalues --   -0.38299  -0.38299  -0.36359
 Alpha virt. eigenvalues --   -0.05220   0.22458   0.27244   0.27248   0.72452
 Alpha virt. eigenvalues --    0.79212   0.79221   0.85859   0.90391   0.90395
 Alpha virt. eigenvalues --    0.98081   1.19069   1.24450   1.24459   1.70023

 Mulliken charges:
               1
     1  C   -0.361172
     2  Cl  -0.514069
     3  H    0.291754
     4  H    0.291759
     5  H    0.291729
 Sum of Mulliken charges =  -0.00000

 Dipole moment (field-independent basis, Debye):
    X=             -7.8093    Y=              0.0001    Z=              0.0001  Tot=              7.8093
 Quadrupole moment (field-independent basis, Debye-Ang):
   XX=            -10.6371   YY=            -20.4131   ZZ=            -20.4146
   XY=              0.0003   XZ=             -0.0000   YZ=             -0.0001

 Normal termination of Gaussian 16 at Fri Sep 22 17:19:16 2023.
