 Gaussian 16, Revision A.03,
 Gaussian 16:  ES64L-G16RevA.03 25-Dec-2016

 ----------
 # hf/3-21g
 ----------

 -----------------------
 tmpdir/M2_conf_94_4.gjf
 -----------------------
 Symbolic Z-matrix:
 Charge =  0 Multiplicity = 1

                         Standard orientation:
 ---------------------------------------------------------------------
 Center     Atomic      Atomic             Coordinates (Angstroms)
 Number     Number       Type             X           Y           Z
 ---------------------------------------------------------------------
      1          1           0        0.341931   -0.310283    0.977482
      2          6           0        0.030805    0.002830   -0.000960
      3          1           0        0.383877   -0.668389   -0.760837
      4          1           0        0.273873    1.029416   -0.200070
      5          1           0       -1.184512   -0.067726   -0.010813
 ---------------------------------------------------------------------

 SCF Done:  E(RHF) =  -39.9669895345     A.U. after    9 cycles

 The electronic state is 1-A.
 Alpha  occ. eigenvalues --  -11.15724  -0.93777  -0.55778  -0.55447  -0.50316
 Alpha virt. eigenvalues --    0.28313   0.32254   0.35615   0.35746   0.91733
 Alpha virt. eigenvalues --    0.92067   0.97683   1.25042   1.32511   1.36763
 Alpha virt. eigenvalues --    1.37084   1.94635

 Mulliken charges:
               1
     1  H    0.206204
     2  C   -0.770615
     3  H    0.206288
     4  H    0.206532
     5  H    0.151591
 Sum of Mulliken charges =  -0.00000

 Dipole moment (field-independent basis, Debye):
    X=              0.0736    Y=              0.0006    Z=              0.0059  Tot=              0.0738
 Quadrupole moment (field-independent basis, Debye-Ang):
   XX=             -8.6447   YY=             -8.3694   ZZ=             -8.4225
   XY=             -0.0277   XZ=             -0.0056   YZ=             -0.0001

 Normal termination of Gaussian 16 at Fri Sep 22 17:16:28 2023.
