 Gaussian 16, Revision A.03,
 Gaussian 16:  ES64L-G16RevA.03 25-Dec-2016

 ----------
 # hf/3-21g
 ----------

 ------------------------
 tmpdir/M2_conf_200_1.gjf
 ------------------------
 Symbolic Z-matrix:
 Charge =  0 Multiplicity = 1

                         Standard orientation:
 ---------------------------------------------------------------------
 Center     Atomic      Atomic             Coordinates (Angstroms)
 Number     Number       Type             X           Y           Z
 ---------------------------------------------------------------------
      1          6           0       -0.024887   -0.017792    0.000059
      2          1           0       -0.781460    0.817233   -0.002723
      3          1           0       -0.069569   -0.609598    0.894458
      4          1           0       -0.069439   -0.615764   -0.890475
      5          1           0        1.069789    0.514879   -0.001613
 ---------------------------------------------------------------------

 SCF Done:  E(RHF) =  -39.9655993620     A.U. after    9 cycles

 The electronic state is 1-A.
 Alpha  occ. eigenvalues --  -11.16345  -0.93234  -0.55724  -0.54521  -0.50216
 Alpha virt. eigenvalues --    0.28080   0.31770   0.34715   0.35687   0.91797
 Alpha virt. eigenvalues --    0.94068   0.98074   1.24722   1.29520   1.34853
 Alpha virt. eigenvalues --    1.36812   1.94036

 Mulliken charges:
               1
     1  C   -0.762379
     2  H    0.192332
     3  H    0.208300
     4  H    0.208245
     5  H    0.153501
 Sum of Mulliken charges =  -0.00000

 Dipole moment (field-independent basis, Debye):
    X=             -0.0349    Y=             -0.0551    Z=              0.0003  Tot=              0.0652
 Quadrupole moment (field-independent basis, Debye-Ang):
   XX=             -8.6415   YY=             -8.4660   ZZ=             -8.4419
   XY=             -0.1234   XZ=              0.0004   YZ=              0.0003

 Normal termination of Gaussian 16 at Fri Sep 22 17:19:12 2023.
