 Gaussian 16, Revision A.03,
 Gaussian 16:  ES64L-G16RevA.03 25-Dec-2016

 ----------
 # hf/3-21g
 ----------

 -----------------------
 tmpdir/M2_conf_31_8.gjf
 -----------------------
 Symbolic Z-matrix:
 Charge =  0 Multiplicity = 1

                         Standard orientation:
 ---------------------------------------------------------------------
 Center     Atomic      Atomic             Coordinates (Angstroms)
 Number     Number       Type             X           Y           Z
 ---------------------------------------------------------------------
      1          1           0       -1.574785   -0.050376    1.007245
      2          6           0       -1.202446   -0.000086    0.001535
      3         17           0        0.689450   -0.000143    0.002936
      4          1           0       -1.465533   -0.864704   -0.577600
      5          1           0       -1.465655    0.918034   -0.488767
 ---------------------------------------------------------------------

 SCF Done:  E(RHF) =  -496.688827177     A.U. after   11 cycles

 The electronic state is 1-A.
 Alpha  occ. eigenvalues -- -104.08778 -11.24999 -10.48167  -7.94542  -7.94138
 Alpha  occ. eigenvalues --   -7.94138  -1.11296  -0.93332  -0.63273  -0.63241
 Alpha  occ. eigenvalues --   -0.51296  -0.43758  -0.43687
 Alpha virt. eigenvalues --    0.16561   0.27332   0.31366   0.31400   0.73833
 Alpha virt. eigenvalues --    0.80441   0.80909   0.85534   0.93147   0.94142
 Alpha virt. eigenvalues --    0.99643   1.31093   1.31257   1.32264   1.91916

 Mulliken charges:
               1
     1  H    0.267429
     2  C   -0.702935
     3  Cl  -0.106991
     4  H    0.271272
     5  H    0.271224
 Sum of Mulliken charges =  -0.00000

 Dipole moment (field-independent basis, Debye):
    X=             -2.8644    Y=              0.0018    Z=             -0.0381  Tot=              2.8646
 Quadrupole moment (field-independent basis, Debye-Ang):
   XX=            -18.5679   YY=            -20.1795   ZZ=            -20.1900
   XY=              0.0056   XZ=             -0.1097   YZ=              0.0002

 Normal termination of Gaussian 16 at Fri Sep 22 17:14:53 2023.
