 Gaussian 16, Revision A.03,
 Gaussian 16:  ES64L-G16RevA.03 25-Dec-2016

 ----------
 # hf/3-21g
 ----------

 ------------------------
 tmpdir/M2_conf_179_8.gjf
 ------------------------
 Symbolic Z-matrix:
 Charge =  0 Multiplicity = 1

                         Standard orientation:
 ---------------------------------------------------------------------
 Center     Atomic      Atomic             Coordinates (Angstroms)
 Number     Number       Type             X           Y           Z
 ---------------------------------------------------------------------
      1          1           0       -1.103044   -0.001269    1.058969
      2          6           0       -1.204806   -0.000004   -0.009797
      3         17           0        0.687087    0.000024   -0.014382
      4          1           0       -1.674174   -0.892032   -0.378790
      5          1           0       -1.674428    0.892917   -0.376904
 ---------------------------------------------------------------------

 SCF Done:  E(RHF) =  -496.668586008     A.U. after   11 cycles

 The electronic state is 1-A.
 Alpha  occ. eigenvalues -- -104.09004 -11.24891 -10.48414  -7.94784  -7.94377
 Alpha  occ. eigenvalues --   -7.94370  -1.11869  -0.93189  -0.63969  -0.63139
 Alpha  occ. eigenvalues --   -0.50732  -0.44140  -0.43052
 Alpha virt. eigenvalues --    0.15456   0.27536   0.31441   0.31541   0.74047
 Alpha virt. eigenvalues --    0.79507   0.80930   0.85396   0.92760   0.96128
 Alpha virt. eigenvalues --    1.01195   1.29719   1.31176   1.32209   1.89011

 Mulliken charges:
               1
     1  H    0.283400
     2  C   -0.706530
     3  Cl  -0.109079
     4  H    0.266127
     5  H    0.266081
 Sum of Mulliken charges =   0.00000

 Dipole moment (field-independent basis, Debye):
    X=             -2.7948    Y=             -0.0004    Z=              0.2236  Tot=              2.8037
 Quadrupole moment (field-independent basis, Debye-Ang):
   XX=            -18.5232   YY=            -20.1810   ZZ=            -20.4296
   XY=             -0.0007   XZ=              0.5351   YZ=              0.0000

 Normal termination of Gaussian 16 at Fri Sep 22 17:18:36 2023.
