 Gaussian 16, Revision A.03,
 Gaussian 16:  ES64L-G16RevA.03 25-Dec-2016

 ----------
 # hf/3-21g
 ----------

 ------------------------
 tmpdir/M2_conf_209_1.gjf
 ------------------------
 Symbolic Z-matrix:
 Charge =  0 Multiplicity = 1

                         Standard orientation:
 ---------------------------------------------------------------------
 Center     Atomic      Atomic             Coordinates (Angstroms)
 Number     Number       Type             X           Y           Z
 ---------------------------------------------------------------------
      1          6           0       -0.020896   -0.022190    0.000059
      2          1           0       -0.907726    0.691590   -0.002245
      3          1           0        0.027711   -0.614045    0.894221
      4          1           0        0.028328   -0.619439   -0.890714
      5          1           0        0.977066    0.675036   -0.001615
 ---------------------------------------------------------------------

 SCF Done:  E(RHF) =  -39.9648801083     A.U. after    9 cycles

 The electronic state is 1-A.
 Alpha  occ. eigenvalues --  -11.16479  -0.93129  -0.55745  -0.54288  -0.50196
 Alpha virt. eigenvalues --    0.28011   0.31637   0.34544   0.35686   0.91773
 Alpha virt. eigenvalues --    0.94440   0.98267   1.24603   1.28793   1.34630
 Alpha virt. eigenvalues --    1.36782   1.93908

 Mulliken charges:
               1
     1  C   -0.760338
     2  H    0.189119
     3  H    0.208665
     4  H    0.208609
     5  H    0.153944
 Sum of Mulliken charges =   0.00000

 Dipole moment (field-independent basis, Debye):
    X=             -0.0182    Y=             -0.0645    Z=              0.0003  Tot=              0.0670
 Quadrupole moment (field-independent basis, Debye-Ang):
   XX=             -8.6052   YY=             -8.5151   ZZ=             -8.4527
   XY=             -0.1485   XZ=              0.0003   YZ=              0.0004

 Normal termination of Gaussian 16 at Fri Sep 22 17:19:26 2023.
