 Gaussian 16, Revision A.03,
 Gaussian 16:  ES64L-G16RevA.03 25-Dec-2016

 ----------
 # hf/3-21g
 ----------

 -----------------------
 tmpdir/M2_conf_68_9.gjf
 -----------------------
 Symbolic Z-matrix:
 Charge =  0 Multiplicity = 1

                         Standard orientation:
 ---------------------------------------------------------------------
 Center     Atomic      Atomic             Coordinates (Angstroms)
 Number     Number       Type             X           Y           Z
 ---------------------------------------------------------------------
      1          1           0        1.342000   -0.017943    1.060981
      2          6           0        1.202761    0.000064   -0.003399
      3         17           0       -0.689135    0.000100   -0.006307
      4          1           0        1.578493   -0.884491   -0.481501
      5          1           0        1.578236    0.900343   -0.451866
 ---------------------------------------------------------------------

 SCF Done:  E(RHF) =  -496.686256800     A.U. after   11 cycles

 The electronic state is 1-A.
 Alpha  occ. eigenvalues -- -104.08804 -11.24990 -10.48195  -7.94569  -7.94165
 Alpha  occ. eigenvalues --   -7.94164  -1.11363  -0.93314  -0.63398  -0.63199
 Alpha  occ. eigenvalues --   -0.51204  -0.43841  -0.43576
 Alpha virt. eigenvalues --    0.16402   0.27346   0.31371   0.31426   0.73868
 Alpha virt. eigenvalues --    0.80202   0.81021   0.85608   0.92680   0.94727
 Alpha virt. eigenvalues --    0.99923   1.30895   1.31185   1.32335   1.91519

 Mulliken charges:
               1
     1  H    0.275525
     2  C   -0.703631
     3  Cl  -0.107081
     4  H    0.267606
     5  H    0.267581
 Sum of Mulliken charges =  -0.00000

 Dipole moment (field-independent basis, Debye):
    X=              2.8562    Y=             -0.0015    Z=              0.0874  Tot=              2.8575
 Quadrupole moment (field-independent basis, Debye-Ang):
   XX=            -18.5595   YY=            -20.1830   ZZ=            -20.2198
   XY=              0.0035   XZ=             -0.2355   YZ=             -0.0002

 Normal termination of Gaussian 16 at Fri Sep 22 17:15:49 2023.
