 Gaussian 16, Revision A.03,
 Gaussian 16:  ES64L-G16RevA.03 25-Dec-2016

 ----------
 # hf/3-21g
 ----------

 ------------------------
 tmpdir/M2_conf_143_8.gjf
 ------------------------
 Symbolic Z-matrix:
 Charge =  0 Multiplicity = 1

                         Standard orientation:
 ---------------------------------------------------------------------
 Center     Atomic      Atomic             Coordinates (Angstroms)
 Number     Number       Type             X           Y           Z
 ---------------------------------------------------------------------
      1          1           0       -1.320899   -0.007041    1.063233
      2          6           0       -1.202876    0.000013   -0.003837
      3         17           0        0.689019    0.000052   -0.007097
      4          1           0       -1.587480   -0.889419   -0.465539
      5          1           0       -1.587679    0.895494   -0.454014
 ---------------------------------------------------------------------

 SCF Done:  E(RHF) =  -496.685349125     A.U. after   11 cycles

 The electronic state is 1-A.
 Alpha  occ. eigenvalues -- -104.08813 -11.24986 -10.48205  -7.94578  -7.94174
 Alpha  occ. eigenvalues --   -7.94173  -1.11387  -0.93308  -0.63435  -0.63192
 Alpha  occ. eigenvalues --   -0.51172  -0.43860  -0.43547
 Alpha virt. eigenvalues --    0.16348   0.27352   0.31375   0.31433   0.73879
 Alpha virt. eigenvalues --    0.80141   0.81040   0.85624   0.92598   0.94856
 Alpha virt. eigenvalues --    1.00017   1.30819   1.31179   1.32347   1.91379

 Mulliken charges:
               1
     1  H    0.276263
     2  C   -0.703854
     3  Cl  -0.107141
     4  H    0.267390
     5  H    0.267343
 Sum of Mulliken charges =   0.00000

 Dipole moment (field-independent basis, Debye):
    X=             -2.8533    Y=             -0.0008    Z=              0.0990  Tot=              2.8550
 Quadrupole moment (field-independent basis, Debye-Ang):
   XX=            -18.5571   YY=            -20.1836   ZZ=            -20.2306
   XY=             -0.0018   XZ=              0.2652   YZ=              0.0000

 Normal termination of Gaussian 16 at Fri Sep 22 17:17:41 2023.
