 Gaussian 16, Revision A.03,
 Gaussian 16:  ES64L-G16RevA.03 25-Dec-2016

 ----------
 # hf/3-21g
 ----------

 ------------------------
 tmpdir/M2_conf_137_5.gjf
 ------------------------
 Symbolic Z-matrix:
 Charge =  0 Multiplicity = 1

                         Standard orientation:
 ---------------------------------------------------------------------
 Center     Atomic      Atomic             Coordinates (Angstroms)
 Number     Number       Type             X           Y           Z
 ---------------------------------------------------------------------
      1          1           0        1.062839    0.025773   -0.306504
      2          6           0        0.027181   -0.029632   -0.029862
      3          1           0       -0.807220   -0.203657   -0.682630
      4          1           0       -0.146480   -0.716798    0.776522
      5          1           0       -0.272225    1.072472    0.391784
 ---------------------------------------------------------------------

 SCF Done:  E(RHF) =  -39.9584955329     A.U. after    9 cycles

 The electronic state is 1-A.
 Alpha  occ. eigenvalues --  -11.15772  -0.93918  -0.58370  -0.53719  -0.49132
 Alpha virt. eigenvalues --    0.28288   0.31287   0.34824   0.36719   0.90210
 Alpha virt. eigenvalues --    0.95900   0.97281   1.25345   1.31211   1.35385
 Alpha virt. eigenvalues --    1.39956   1.94479

 Mulliken charges:
               1
     1  H    0.214582
     2  C   -0.784946
     3  H    0.215358
     4  H    0.206262
     5  H    0.148744
 Sum of Mulliken charges =   0.00000

 Dipole moment (field-independent basis, Debye):
    X=             -0.0608    Y=             -0.0642    Z=              0.0323  Tot=              0.0942
 Quadrupole moment (field-independent basis, Debye-Ang):
   XX=             -7.9226   YY=             -8.6672   ZZ=             -8.8872
   XY=              0.1081   XZ=              0.0274   YZ=             -0.1529

 Normal termination of Gaussian 16 at Fri Sep 22 17:17:32 2023.
