 Gaussian 16, Revision A.03,
 Gaussian 16:  ES64L-G16RevA.03 25-Dec-2016

 ----------
 # hf/3-21g
 ----------

 -----------------------
 tmpdir/M2_conf_27_0.gjf
 -----------------------
 Symbolic Z-matrix:
 Charge =  0 Multiplicity = 1

                         Standard orientation:
 ---------------------------------------------------------------------
 Center     Atomic      Atomic             Coordinates (Angstroms)
 Number     Number       Type             X           Y           Z
 ---------------------------------------------------------------------
      1          6           0       -0.025059   -0.017539   -0.000056
      2          1           0       -0.774615    0.822855   -0.002290
      3          1           0       -0.071909   -0.612224   -0.892681
      4          1           0       -0.077047   -0.611590    0.892695
      5          1           0        1.073927    0.506192    0.002611
 ---------------------------------------------------------------------

 SCF Done:  E(RHF) =  -39.9656406256     A.U. after    9 cycles

 The electronic state is 1-A.
 Alpha  occ. eigenvalues --  -11.16340  -0.93238  -0.55724  -0.54528  -0.50218
 Alpha virt. eigenvalues --    0.28083   0.31778   0.34721   0.35686   0.91810
 Alpha virt. eigenvalues --    0.94039   0.98067   1.24726   1.29564   1.34853
 Alpha virt. eigenvalues --    1.36809   1.94041

 Mulliken charges:
               1
     1  C   -0.762467
     2  H    0.192521
     3  H    0.208234
     4  H    0.208231
     5  H    0.153482
 Sum of Mulliken charges =  -0.00000

 Dipole moment (field-independent basis, Debye):
    X=             -0.0357    Y=             -0.0544    Z=             -0.0001  Tot=              0.0651
 Quadrupole moment (field-independent basis, Debye-Ang):
   XX=             -8.6426   YY=             -8.4653   ZZ=             -8.4406
   XY=             -0.1219   XZ=             -0.0012   YZ=             -0.0003

 Normal termination of Gaussian 16 at Fri Sep 22 17:14:48 2023.
