 Gaussian 16, Revision A.03,
 Gaussian 16:  ES64L-G16RevA.03 25-Dec-2016

 ----------
 # hf/3-21g
 ----------

 ------------------------
 tmpdir/M2_conf_160_9.gjf
 ------------------------
 Symbolic Z-matrix:
 Charge =  0 Multiplicity = 1

                         Standard orientation:
 ---------------------------------------------------------------------
 Center     Atomic      Atomic             Coordinates (Angstroms)
 Number     Number       Type             X           Y           Z
 ---------------------------------------------------------------------
      1          1           0        1.315691   -0.013455    1.063577
      2          6           0        1.202902    0.000057   -0.003996
      3         17           0       -0.688993    0.000086   -0.007288
      4          1           0        1.590006   -0.886648   -0.468863
      5          1           0        1.589763    0.898296   -0.446839
 ---------------------------------------------------------------------

 SCF Done:  E(RHF) =  -496.685103477     A.U. after   11 cycles

 The electronic state is 1-A.
 Alpha  occ. eigenvalues -- -104.08816 -11.24985 -10.48208  -7.94581  -7.94177
 Alpha  occ. eigenvalues --   -7.94176  -1.11394  -0.93306  -0.63441  -0.63193
 Alpha  occ. eigenvalues --   -0.51164  -0.43865  -0.43539
 Alpha virt. eigenvalues --    0.16333   0.27354   0.31374   0.31436   0.73882
 Alpha virt. eigenvalues --    0.80126   0.81042   0.85628   0.92578   0.94892
 Alpha virt. eigenvalues --    1.00041   1.30795   1.31180   1.32353   1.91344

 Mulliken charges:
               1
     1  H    0.276436
     2  C   -0.703921
     3  Cl  -0.107144
     4  H    0.267327
     5  H    0.267302
 Sum of Mulliken charges =  -0.00000

 Dipole moment (field-independent basis, Debye):
    X=              2.8525    Y=             -0.0013    Z=              0.1020  Tot=              2.8543
 Quadrupole moment (field-independent basis, Debye-Ang):
   XX=            -18.5562   YY=            -20.1832   ZZ=            -20.2342
   XY=              0.0030   XZ=             -0.2721   YZ=             -0.0001

 Normal termination of Gaussian 16 at Fri Sep 22 17:18:07 2023.
