 Gaussian 16, Revision A.03,
 Gaussian 16:  ES64L-G16RevA.03 25-Dec-2016

 ----------
 # hf/3-21g
 ----------

 -----------------------
 tmpdir/M2_conf_45_7.gjf
 -----------------------
 Symbolic Z-matrix:
 Charge =  0 Multiplicity = 1

                         Standard orientation:
 ---------------------------------------------------------------------
 Center     Atomic      Atomic             Coordinates (Angstroms)
 Number     Number       Type             X           Y           Z
 ---------------------------------------------------------------------
      1          1           0       -0.327383    0.975884   -0.344163
      2          6           0       -0.032588    0.001154   -0.004144
      3          1           0       -0.251827   -0.787371   -0.698972
      4          1           0       -0.406095   -0.221943    0.977128
      5          1           0        1.180833    0.026509    0.090870
 ---------------------------------------------------------------------

 SCF Done:  E(RHF) =  -39.9667655553     A.U. after    9 cycles

 The electronic state is 1-A.
 Alpha  occ. eigenvalues --  -11.15728  -0.93777  -0.55926  -0.55422  -0.50195
 Alpha virt. eigenvalues --    0.28325   0.32187   0.35594   0.35797   0.91695
 Alpha virt. eigenvalues --    0.92219   0.97573   1.25107   1.32354   1.36732
 Alpha virt. eigenvalues --    1.37221   1.94664

 Mulliken charges:
               1
     1  H    0.206889
     2  C   -0.770968
     3  H    0.206723
     4  H    0.206341
     5  H    0.151015
 Sum of Mulliken charges =  -0.00000

 Dipole moment (field-independent basis, Debye):
    X=             -0.0668    Y=             -0.0091    Z=              0.0002  Tot=              0.0674
 Quadrupole moment (field-independent basis, Debye-Ang):
   XX=             -8.6672   YY=             -8.3419   ZZ=             -8.4308
   XY=             -0.0131   XZ=             -0.0374   YZ=             -0.0017

 Normal termination of Gaussian 16 at Fri Sep 22 17:15:14 2023.
