 Gaussian 16, Revision A.03,
 Gaussian 16:  ES64L-G16RevA.03 25-Dec-2016

 ----------
 # hf/3-21g
 ----------

 ------------------------
 tmpdir/M2_conf_273_9.gjf
 ------------------------
 Symbolic Z-matrix:
 Charge =  0 Multiplicity = 1

                         Standard orientation:
 ---------------------------------------------------------------------
 Center     Atomic      Atomic             Coordinates (Angstroms)
 Number     Number       Type             X           Y           Z
 ---------------------------------------------------------------------
      1          1           0        1.157190   -0.004236    1.064425
      2          6           0        1.204192    0.000034   -0.008137
      3         17           0       -0.687701    0.000047   -0.012738
      4          1           0        1.654358   -0.890920   -0.402784
      5          1           0        1.654209    0.894148   -0.396274
 ---------------------------------------------------------------------

 SCF Done:  E(RHF) =  -496.674097805     A.U. after   11 cycles

 The electronic state is 1-A.
 Alpha  occ. eigenvalues -- -104.08939 -11.24928 -10.48341  -7.94712  -7.94306
 Alpha  occ. eigenvalues --   -7.94302  -1.11704  -0.93229  -0.63803  -0.63157
 Alpha  occ. eigenvalues --   -0.50851  -0.44053  -0.43215
 Alpha virt. eigenvalues --    0.15729   0.27464   0.31416   0.31510   0.74001
 Alpha virt. eigenvalues --    0.79667   0.80997   0.85530   0.92552   0.95833
 Alpha virt. eigenvalues --    1.00883   1.30039   1.31171   1.32291   1.89750

 Mulliken charges:
               1
     1  H    0.281692
     2  C   -0.705859
     3  Cl  -0.108310
     4  H    0.266252
     5  H    0.266224
 Sum of Mulliken charges =  -0.00000

 Dipole moment (field-independent basis, Debye):
    X=              2.8149    Y=             -0.0008    Z=              0.1922  Tot=              2.8215
 Quadrupole moment (field-independent basis, Debye-Ang):
   XX=            -18.5313   YY=            -20.1821   ZZ=            -20.3670
   XY=              0.0015   XZ=             -0.4745   YZ=             -0.0001

 Normal termination of Gaussian 16 at Fri Sep 22 17:21:03 2023.
