 Gaussian 16, Revision A.03,
 Gaussian 16:  ES64L-G16RevA.03 25-Dec-2016

 ----------
 # hf/3-21g
 ----------

 ------------------------
 tmpdir/M2_conf_267_9.gjf
 ------------------------
 Symbolic Z-matrix:
 Charge =  0 Multiplicity = 1

                         Standard orientation:
 ---------------------------------------------------------------------
 Center     Atomic      Atomic             Coordinates (Angstroms)
 Number     Number       Type             X           Y           Z
 ---------------------------------------------------------------------
      1          1           0        0.976739   -0.001880    1.034099
      2          6           0        1.206584    0.000023   -0.014607
      3         17           0       -0.685310    0.000032   -0.017649
      4          1           0        1.717030   -0.891937   -0.324524
      5          1           0        1.716993    0.893142   -0.321897
 ---------------------------------------------------------------------

 SCF Done:  E(RHF) =  -496.651546031     A.U. after   11 cycles

 The electronic state is 1-A.
 Alpha  occ. eigenvalues -- -104.09223 -11.24747 -10.48664  -7.95030  -7.94619
 Alpha  occ. eigenvalues --   -7.94606  -1.12416  -0.93065  -0.64425  -0.63089
 Alpha  occ. eigenvalues --   -0.50494  -0.44414  -0.42513
 Alpha virt. eigenvalues --    0.14700   0.27803   0.31521   0.31638   0.74145
 Alpha virt. eigenvalues --    0.79113   0.80717   0.84980   0.93463   0.96784
 Alpha virt. eigenvalues --    1.01888   1.28785   1.31229   1.31925   1.87009

 Mulliken charges:
               1
     1  H    0.287234
     2  C   -0.708403
     3  Cl  -0.111378
     4  H    0.266289
     5  H    0.266258
 Sum of Mulliken charges =  -0.00000

 Dipole moment (field-independent basis, Debye):
    X=              2.7265    Y=             -0.0006    Z=              0.3003  Tot=              2.7430
 Quadrupole moment (field-independent basis, Debye-Ang):
   XX=            -18.5129   YY=            -20.1733   ZZ=            -20.6114
   XY=              0.0010   XZ=             -0.6508   YZ=             -0.0001

 Normal termination of Gaussian 16 at Fri Sep 22 17:20:54 2023.
