 Gaussian 16, Revision A.03,
 Gaussian 16:  ES64L-G16RevA.03 25-Dec-2016

 ----------
 # hf/3-21g
 ----------

 -----------------------
 tmpdir/M2_conf_93_5.gjf
 -----------------------
 Symbolic Z-matrix:
 Charge =  0 Multiplicity = 1

                         Standard orientation:
 ---------------------------------------------------------------------
 Center     Atomic      Atomic             Coordinates (Angstroms)
 Number     Number       Type             X           Y           Z
 ---------------------------------------------------------------------
      1          1           0        1.066531    0.019753   -0.299904
      2          6           0        0.028403   -0.029681   -0.031514
      3          1           0       -0.814925   -0.189299   -0.676442
      4          1           0       -0.156984   -0.723127    0.766844
      5          1           0       -0.265039    1.070759    0.398584
 ---------------------------------------------------------------------

 SCF Done:  E(RHF) =  -39.9572932157     A.U. after    9 cycles

 The electronic state is 1-A.
 Alpha  occ. eigenvalues --  -11.15777  -0.93940  -0.58556  -0.53608  -0.49006
 Alpha virt. eigenvalues --    0.28278   0.31167   0.34777   0.36786   0.90135
 Alpha virt. eigenvalues --    0.96281   0.97280   1.25344   1.31114   1.35317
 Alpha virt. eigenvalues --    1.40197   1.94451

 Mulliken charges:
               1
     1  H    0.215545
     2  C   -0.787062
     3  H    0.216584
     4  H    0.206324
     5  H    0.148608
 Sum of Mulliken charges =  -0.00000

 Dipole moment (field-independent basis, Debye):
    X=             -0.0669    Y=             -0.0641    Z=              0.0360  Tot=              0.0994
 Quadrupole moment (field-independent basis, Debye-Ang):
   XX=             -7.8856   YY=             -8.6707   ZZ=             -8.9249
   XY=              0.1049   XZ=              0.0264   YZ=             -0.1558

 Normal termination of Gaussian 16 at Fri Sep 22 17:16:26 2023.
