 Gaussian 16, Revision A.03,
 Gaussian 16:  ES64L-G16RevA.03 25-Dec-2016

 ----------
 # hf/3-21g
 ----------

 ------------------------
 tmpdir/M2_conf_214_6.gjf
 ------------------------
 Symbolic Z-matrix:
 Charge =  0 Multiplicity = 1

                         Standard orientation:
 ---------------------------------------------------------------------
 Center     Atomic      Atomic             Coordinates (Angstroms)
 Number     Number       Type             X           Y           Z
 ---------------------------------------------------------------------
      1          1           0       -0.931012   -0.001100    1.020558
      2          6           0       -1.207361    0.000029   -0.016658
      3         17           0        0.684541    0.000013   -0.018608
      4          1           0       -1.730873    0.893043   -0.301388
      5          1           0       -1.731157   -0.892337   -0.302892
 ---------------------------------------------------------------------

 SCF Done:  E(RHF) =  -496.643715604     A.U. after   11 cycles

 The electronic state is 1-A.
 Alpha  occ. eigenvalues -- -104.09329 -11.24667 -10.48789  -7.95152  -7.94740
 Alpha  occ. eigenvalues --   -7.94724  -1.12686  -0.93004  -0.64620  -0.63060
 Alpha  occ. eigenvalues --   -0.50440  -0.44543  -0.42246
 Alpha virt. eigenvalues --    0.14388   0.27946   0.31564   0.31679   0.74171
 Alpha virt. eigenvalues --    0.78961   0.80630   0.84829   0.93721   0.97012
 Alpha virt. eigenvalues --    1.02118   1.28349   1.31256   1.31808   1.86215

 Mulliken charges:
               1
     1  H    0.288646
     2  C   -0.709310
     3  Cl  -0.112283
     4  H    0.266478
     5  H    0.266469
 Sum of Mulliken charges =  -0.00000

 Dipole moment (field-independent basis, Debye):
    X=             -2.6922    Y=             -0.0003    Z=              0.3294  Tot=              2.7123
 Quadrupole moment (field-independent basis, Debye-Ang):
   XX=            -18.5148   YY=            -20.1682   ZZ=            -20.6889
   XY=             -0.0004   XZ=              0.6819   YZ=             -0.0001

 Normal termination of Gaussian 16 at Fri Sep 22 17:19:34 2023.
