 Gaussian 16, Revision A.03,
 Gaussian 16:  ES64L-G16RevA.03 25-Dec-2016

 ----------
 # hf/3-21g
 ----------

 ------------------------
 tmpdir/M2_conf_253_8.gjf
 ------------------------
 Symbolic Z-matrix:
 Charge =  0 Multiplicity = 1

                         Standard orientation:
 ---------------------------------------------------------------------
 Center     Atomic      Atomic             Coordinates (Angstroms)
 Number     Number       Type             X           Y           Z
 ---------------------------------------------------------------------
      1          1           0        0.549471    0.000063    0.797279
      2          6           0        1.216879    0.000017   -0.043663
      3         17           0       -0.674877   -0.000011   -0.020117
      4          1           0        1.810909    0.892483   -0.096679
      5          1           0        1.811257   -0.892467   -0.096625
 ---------------------------------------------------------------------

 SCF Done:  E(RHF) =  -496.524813029     A.U. after   12 cycles

 The electronic state is 1-A.
 Alpha  occ. eigenvalues -- -104.11471 -11.22480 -10.51389  -7.97748  -7.97259
 Alpha  occ. eigenvalues --   -7.97195  -1.18227  -0.91858  -0.67073  -0.62181
 Alpha  occ. eigenvalues --   -0.51759  -0.46864  -0.37480
 Alpha virt. eigenvalues --    0.11324   0.30754   0.32617   0.33096   0.73619
 Alpha virt. eigenvalues --    0.77078   0.79583   0.84080   0.91853   0.98553
 Alpha virt. eigenvalues --    1.03951   1.20679   1.31545   1.32405   1.81017

 Mulliken charges:
               1
     1  H    0.292798
     2  C   -0.746798
     3  Cl  -0.086803
     4  H    0.270420
     5  H    0.270382
 Sum of Mulliken charges =  -0.00000

 Dipole moment (field-independent basis, Debye):
    X=              1.8891    Y=              0.0001    Z=              0.6662  Tot=              2.0031
 Quadrupole moment (field-independent basis, Debye-Ang):
   XX=            -18.8503   YY=            -20.0164   ZZ=            -21.5509
   XY=             -0.0003   XZ=             -0.4858   YZ=              0.0000

 Normal termination of Gaussian 16 at Fri Sep 22 17:20:33 2023.
