 Gaussian 16, Revision A.03,
 Gaussian 16:  ES64L-G16RevA.03 25-Dec-2016

 ----------
 # hf/3-21g
 ----------

 ------------------------
 tmpdir/M2_conf_212_7.gjf
 ------------------------
 Symbolic Z-matrix:
 Charge =  0 Multiplicity = 1

                         Standard orientation:
 ---------------------------------------------------------------------
 Center     Atomic      Atomic             Coordinates (Angstroms)
 Number     Number       Type             X           Y           Z
 ---------------------------------------------------------------------
      1          1           0       -0.540035    0.881828   -0.349484
      2          6           0       -0.034195   -0.003343   -0.013012
      3          1           0        0.084812   -0.805466   -0.716617
      4          1           0       -0.446393   -0.390270    0.899433
      5          1           0        1.106789    0.333968    0.244740
 ---------------------------------------------------------------------

 SCF Done:  E(RHF) =  -39.9656540741     A.U. after    9 cycles

 The electronic state is 1-A.
 Alpha  occ. eigenvalues --  -11.15737  -0.93793  -0.56638  -0.54896  -0.49976
 Alpha virt. eigenvalues --    0.28332   0.32034   0.35357   0.36070   0.91184
 Alpha virt. eigenvalues --    0.93060   0.97446   1.25201   1.32065   1.36257
 Alpha virt. eigenvalues --    1.37952   1.94659

 Mulliken charges:
               1
     1  H    0.208341
     2  C   -0.772732
     3  H    0.208015
     4  H    0.206134
     5  H    0.150243
 Sum of Mulliken charges =   0.00000

 Dipole moment (field-independent basis, Debye):
    X=             -0.0493    Y=             -0.0426    Z=              0.0053  Tot=              0.0654
 Quadrupole moment (field-independent basis, Debye-Ang):
   XX=             -8.6227   YY=             -8.2715   ZZ=             -8.5531
   XY=             -0.1448   XZ=             -0.0941   YZ=             -0.0320

 Normal termination of Gaussian 16 at Fri Sep 22 17:19:30 2023.
