 Gaussian 16, Revision A.03,
 Gaussian 16:  ES64L-G16RevA.03 25-Dec-2016

 ----------
 # hf/3-21g
 ----------

 -----------------------
 tmpdir/M2_conf_54_4.gjf
 -----------------------
 Symbolic Z-matrix:
 Charge =  0 Multiplicity = 1

                         Standard orientation:
 ---------------------------------------------------------------------
 Center     Atomic      Atomic             Coordinates (Angstroms)
 Number     Number       Type             X           Y           Z
 ---------------------------------------------------------------------
      1          1           0       -0.409369    0.945734   -0.352986
      2          6           0       -0.033779    0.000347   -0.010403
      3          1           0       -0.069680   -0.810015   -0.713713
      4          1           0       -0.471199   -0.301488    0.922422
      5          1           0        1.152922    0.163690    0.206695
 ---------------------------------------------------------------------

 SCF Done:  E(RHF) =  -39.9661275330     A.U. after    9 cycles

 The electronic state is 1-A.
 Alpha  occ. eigenvalues --  -11.15734  -0.93786  -0.56406  -0.55066  -0.50054
 Alpha virt. eigenvalues --    0.28331   0.32093   0.35433   0.35983   0.91357
 Alpha virt. eigenvalues --    0.92754   0.97485   1.25171   1.32170   1.36395
 Alpha virt. eigenvalues --    1.37713   1.94666

 Mulliken charges:
               1
     1  H    0.207857
     2  C   -0.771967
     3  H    0.207505
     4  H    0.206120
     5  H    0.150485
 Sum of Mulliken charges =   0.00000

 Dipole moment (field-independent basis, Debye):
    X=             -0.0582    Y=             -0.0287    Z=              0.0027  Tot=              0.0649
 Quadrupole moment (field-independent basis, Debye-Ang):
   XX=             -8.6592   YY=             -8.2744   ZZ=             -8.5108
   XY=             -0.0751   XZ=             -0.0829   YZ=             -0.0144

 Normal termination of Gaussian 16 at Fri Sep 22 17:15:28 2023.
