 Gaussian 16, Revision A.03,
 Gaussian 16:  ES64L-G16RevA.03 25-Dec-2016

 ----------
 # hf/3-21g
 ----------

 -----------------------
 tmpdir/M2_conf_46_9.gjf
 -----------------------
 Symbolic Z-matrix:
 Charge =  0 Multiplicity = 1

                         Standard orientation:
 ---------------------------------------------------------------------
 Center     Atomic      Atomic             Coordinates (Angstroms)
 Number     Number       Type             X           Y           Z
 ---------------------------------------------------------------------
      1          1           0        1.245445   -0.007378    1.067050
      2          6           0        1.203382    0.000044   -0.005700
      3         17           0       -0.688512    0.000063   -0.009810
      4          1           0        1.619584   -0.889498   -0.438928
      5          1           0        1.619382    0.895543   -0.427162
 ---------------------------------------------------------------------

 SCF Done:  E(RHF) =  -496.681114225     A.U. after   11 cycles

 The electronic state is 1-A.
 Alpha  occ. eigenvalues -- -104.08859 -11.24967 -10.48254  -7.94626  -7.94222
 Alpha  occ. eigenvalues --   -7.94219  -1.11503  -0.93278  -0.63580  -0.63177
 Alpha  occ. eigenvalues --   -0.51038  -0.43938  -0.43419
 Alpha virt. eigenvalues --    0.16103   0.27388   0.31388   0.31466   0.73930
 Alpha virt. eigenvalues --    0.79923   0.81056   0.85639   0.92439   0.95321
 Alpha virt. eigenvalues --    1.00393   1.30491   1.31171   1.32361   1.90748

 Mulliken charges:
               1
     1  H    0.278818
     2  C   -0.704758
     3  Cl  -0.107478
     4  H    0.266722
     5  H    0.266696
 Sum of Mulliken charges =  -0.00000

 Dipole moment (field-independent basis, Debye):
    X=              2.8393    Y=             -0.0010    Z=              0.1415  Tot=              2.8428
 Quadrupole moment (field-independent basis, Debye-Ang):
   XX=            -18.5457   YY=            -20.1832   ZZ=            -20.2834
   XY=              0.0021   XZ=             -0.3660   YZ=             -0.0001

 Normal termination of Gaussian 16 at Fri Sep 22 17:15:16 2023.
