 Gaussian 16, Revision A.03,
 Gaussian 16:  ES64L-G16RevA.03 25-Dec-2016

 ----------
 # hf/3-21g
 ----------

 ------------------------
 tmpdir/M2_conf_162_5.gjf
 ------------------------
 Symbolic Z-matrix:
 Charge =  0 Multiplicity = 1

                         Standard orientation:
 ---------------------------------------------------------------------
 Center     Atomic      Atomic             Coordinates (Angstroms)
 Number     Number       Type             X           Y           Z
 ---------------------------------------------------------------------
      1          1           0        0.457977    0.925432   -0.350142
      2          6           0        0.034073   -0.000804   -0.011646
      3          1           0        0.009763   -0.810615   -0.716087
      4          1           0        0.466111   -0.337170    0.911832
      5          1           0       -1.138288    0.227174    0.224271
 ---------------------------------------------------------------------

 SCF Done:  E(RHF) =  -39.9659166673     A.U. after    9 cycles

 The electronic state is 1-A.
 Alpha  occ. eigenvalues --  -11.15735  -0.93789  -0.56518  -0.54984  -0.50017
 Alpha virt. eigenvalues --    0.28331   0.32066   0.35395   0.36026   0.91278
 Alpha virt. eigenvalues --    0.92893   0.97465   1.25186   1.32123   1.36322
 Alpha virt. eigenvalues --    1.37830   1.94665

 Mulliken charges:
               1
     1  H    0.208108
     2  C   -0.772310
     3  H    0.207736
     4  H    0.206100
     5  H    0.150366
 Sum of Mulliken charges =   0.00000

 Dipole moment (field-independent basis, Debye):
    X=              0.0548    Y=             -0.0347    Z=              0.0040  Tot=              0.0650
 Quadrupole moment (field-independent basis, Debye-Ang):
   XX=             -8.6491   YY=             -8.2666   ZZ=             -8.5301
   XY=              0.1023   XZ=              0.0886   YZ=             -0.0207

 Normal termination of Gaussian 16 at Fri Sep 22 17:18:10 2023.
