 Gaussian 16, Revision A.03,
 Gaussian 16:  ES64L-G16RevA.03 25-Dec-2016

 ----------
 # hf/3-21g
 ----------

 -----------------------
 tmpdir/M2_conf_95_6.gjf
 -----------------------
 Symbolic Z-matrix:
 Charge =  0 Multiplicity = 1

                         Standard orientation:
 ---------------------------------------------------------------------
 Center     Atomic      Atomic             Coordinates (Angstroms)
 Number     Number       Type             X           Y           Z
 ---------------------------------------------------------------------
      1          1           0       -1.350732   -0.010106    1.059904
      2          6           0       -1.202720    0.000048   -0.003194
      3         17           0        0.689176    0.000046   -0.005977
      4          1           0       -1.574245    0.897170   -0.461183
      5          1           0       -1.574687   -0.888131   -0.477943
 ---------------------------------------------------------------------

 SCF Done:  E(RHF) =  -496.686601566     A.U. after   11 cycles

 The electronic state is 1-A.
 Alpha  occ. eigenvalues -- -104.08801 -11.24991 -10.48191  -7.94565  -7.94161
 Alpha  occ. eigenvalues --   -7.94160  -1.11354  -0.93316  -0.63386  -0.63200
 Alpha  occ. eigenvalues --   -0.51216  -0.43833  -0.43587
 Alpha virt. eigenvalues --    0.16423   0.27345   0.31372   0.31420   0.73863
 Alpha virt. eigenvalues --    0.80229   0.81010   0.85600   0.92710   0.94679
 Alpha virt. eigenvalues --    0.99887   1.30919   1.31180   1.32343   1.91572

 Mulliken charges:
               1
     1  H    0.275267
     2  C   -0.703545
     3  Cl  -0.107075
     4  H    0.267686
     5  H    0.267666
 Sum of Mulliken charges =   0.00000

 Dipole moment (field-independent basis, Debye):
    X=             -2.8573    Y=             -0.0007    Z=              0.0827  Tot=              2.8585
 Quadrupole moment (field-independent basis, Debye-Ang):
   XX=            -18.5607   YY=            -20.1823   ZZ=            -20.2160
   XY=             -0.0016   XZ=              0.2229   YZ=             -0.0002

 Normal termination of Gaussian 16 at Fri Sep 22 17:16:29 2023.
