 Gaussian 16, Revision A.03,
 Gaussian 16:  ES64L-G16RevA.03 25-Dec-2016

 ----------
 # hf/3-21g
 ----------

 ------------------------
 tmpdir/M2_conf_208_1.gjf
 ------------------------
 Symbolic Z-matrix:
 Charge =  0 Multiplicity = 1

                         Standard orientation:
 ---------------------------------------------------------------------
 Center     Atomic      Atomic             Coordinates (Angstroms)
 Number     Number       Type             X           Y           Z
 ---------------------------------------------------------------------
      1          6           0       -0.017773   -0.024696    0.000059
      2          1           0       -0.980871    0.598053   -0.001990
      3          1           0        0.091991   -0.608504    0.894095
      4          1           0        0.092874   -0.613474   -0.890841
      5          1           0        0.902644    0.772101   -0.001617
 ---------------------------------------------------------------------

 SCF Done:  E(RHF) =  -39.9642700563     A.U. after    9 cycles

 The electronic state is 1-A.
 Alpha  occ. eigenvalues --  -11.16577  -0.93055  -0.55761  -0.54121  -0.50178
 Alpha virt. eigenvalues --    0.27954   0.31534   0.34429   0.35686   0.91756
 Alpha virt. eigenvalues --    0.94682   0.98438   1.24496   1.28278   1.34490
 Alpha virt. eigenvalues --    1.36759   1.93814

 Mulliken charges:
               1
     1  C   -0.758792
     2  H    0.186736
     3  H    0.208924
     4  H    0.208869
     5  H    0.154263
 Sum of Mulliken charges =  -0.00000

 Dipole moment (field-independent basis, Debye):
    X=             -0.0055    Y=             -0.0690    Z=              0.0003  Tot=              0.0692
 Quadrupole moment (field-independent basis, Debye-Ang):
   XX=             -8.5774   YY=             -8.5521   ZZ=             -8.4606
   XY=             -0.1575   XZ=              0.0003   YZ=              0.0004

 Normal termination of Gaussian 16 at Fri Sep 22 17:19:24 2023.
