 Gaussian 16, Revision A.03,
 Gaussian 16:  ES64L-G16RevA.03 25-Dec-2016

 ----------
 # hf/3-21g
 ----------

 ------------------------
 tmpdir/M2_conf_157_6.gjf
 ------------------------
 Symbolic Z-matrix:
 Charge =  0 Multiplicity = 1

                         Standard orientation:
 ---------------------------------------------------------------------
 Center     Atomic      Atomic             Coordinates (Angstroms)
 Number     Number       Type             X           Y           Z
 ---------------------------------------------------------------------
      1          1           0       -1.117268   -0.002129    1.060465
      2          6           0       -1.204638    0.000033   -0.009372
      3         17           0        0.687257    0.000019   -0.013957
      4          1           0       -1.668953    0.893493   -0.381865
      5          1           0       -1.669315   -0.891884   -0.385093
 ---------------------------------------------------------------------

 SCF Done:  E(RHF) =  -496.670124418     A.U. after   11 cycles

 The electronic state is 1-A.
 Alpha  occ. eigenvalues -- -104.08986 -11.24902 -10.48393  -7.94763  -7.94357
 Alpha  occ. eigenvalues --   -7.94351  -1.11823  -0.93200  -0.63922  -0.63145
 Alpha  occ. eigenvalues --   -0.50763  -0.44116  -0.43099
 Alpha virt. eigenvalues --    0.15530   0.27517   0.31433   0.31531   0.74035
 Alpha virt. eigenvalues --    0.79551   0.80947   0.85434   0.92690   0.96063
 Alpha virt. eigenvalues --    1.01111   1.29794   1.31170   1.32252   1.89216

 Mulliken charges:
               1
     1  H    0.283001
     2  C   -0.706369
     3  Cl  -0.108869
     4  H    0.266125
     5  H    0.266111
 Sum of Mulliken charges =  -0.00000

 Dipole moment (field-independent basis, Debye):
    X=             -2.8006    Y=             -0.0004    Z=              0.2156  Tot=              2.8089
 Quadrupole moment (field-independent basis, Debye-Ang):
   XX=            -18.5253   YY=            -20.1804   ZZ=            -20.4132
   XY=             -0.0007   XZ=              0.5190   YZ=             -0.0001

 Normal termination of Gaussian 16 at Fri Sep 22 17:18:02 2023.
