 Gaussian 16, Revision A.03,
 Gaussian 16:  ES64L-G16RevA.03 25-Dec-2016

 ----------
 # hf/3-21g
 ----------

 ------------------------
 tmpdir/M2_conf_258_4.gjf
 ------------------------
 Symbolic Z-matrix:
 Charge =  0 Multiplicity = 1

                         Standard orientation:
 ---------------------------------------------------------------------
 Center     Atomic      Atomic             Coordinates (Angstroms)
 Number     Number       Type             X           Y           Z
 ---------------------------------------------------------------------
      1          1           0       -0.381410    0.956383   -0.353206
      2          6           0       -0.033560    0.000911   -0.009315
      3          1           0       -0.111568   -0.807170   -0.711843
      4          1           0       -0.466907   -0.279167    0.932158
      5          1           0        1.161246    0.124485    0.188780
 ---------------------------------------------------------------------

 SCF Done:  E(RHF) =  -39.9662805248     A.U. after    9 cycles

 The electronic state is 1-A.
 Alpha  occ. eigenvalues --  -11.15733  -0.93783  -0.56316  -0.55133  -0.50082
 Alpha virt. eigenvalues --    0.28330   0.32113   0.35463   0.35949   0.91421
 Alpha virt. eigenvalues --    0.92645   0.97500   1.25159   1.32207   1.36454
 Alpha virt. eigenvalues --    1.37620   1.94668

 Mulliken charges:
               1
     1  H    0.207668
     2  C   -0.771724
     3  H    0.207331
     4  H    0.206144
     5  H    0.150581
 Sum of Mulliken charges =  -0.00000

 Dipole moment (field-independent basis, Debye):
    X=             -0.0603    Y=             -0.0244    Z=              0.0019  Tot=              0.0651
 Quadrupole moment (field-independent basis, Debye-Ang):
   XX=             -8.6643   YY=             -8.2844   ZZ=             -8.4949
   XY=             -0.0579   XZ=             -0.0763   YZ=             -0.0104

 Normal termination of Gaussian 16 at Fri Sep 22 17:20:40 2023.
