 Gaussian 16, Revision A.03,
 Gaussian 16:  ES64L-G16RevA.03 25-Dec-2016

 ----------
 # hf/3-21g
 ----------

 -----------------------
 tmpdir/M2_conf_31_7.gjf
 -----------------------
 Symbolic Z-matrix:
 Charge =  0 Multiplicity = 1

                         Standard orientation:
 ---------------------------------------------------------------------
 Center     Atomic      Atomic             Coordinates (Angstroms)
 Number     Number       Type             X           Y           Z
 ---------------------------------------------------------------------
      1          1           0        0.474537   -0.161726    0.941541
      2          6           0        0.015068    0.022701   -0.011083
      3          1           0        0.736943   -0.350127   -0.712869
      4          1           0       -0.311978    1.039298   -0.119464
      5          1           0       -0.989909   -0.663652   -0.042711
 ---------------------------------------------------------------------

 SCF Done:  E(RHF) =  -39.9647168941     A.U. after    9 cycles

 The electronic state is 1-A.
 Alpha  occ. eigenvalues --  -11.15720  -0.93844  -0.57047  -0.53728  -0.50625
 Alpha virt. eigenvalues --    0.28225   0.32340   0.34960   0.36211   0.90549
 Alpha virt. eigenvalues --    0.93322   0.98278   1.24814   1.32719   1.35303
 Alpha virt. eigenvalues --    1.38614   1.94254

 Mulliken charges:
               1
     1  H    0.204432
     2  C   -0.773358
     3  H    0.206686
     4  H    0.208210
     5  H    0.154031
 Sum of Mulliken charges =   0.00000

 Dipole moment (field-independent basis, Debye):
    X=              0.1028    Y=              0.0224    Z=              0.0568  Tot=              0.1196
 Quadrupole moment (field-independent basis, Debye-Ang):
   XX=             -8.3251   YY=             -8.4019   ZZ=             -8.7083
   XY=             -0.2225   XZ=             -0.0243   YZ=             -0.0115

 Normal termination of Gaussian 16 at Fri Sep 22 17:14:53 2023.
