 Gaussian 16, Revision A.03,
 Gaussian 16:  ES64L-G16RevA.03 25-Dec-2016

 ----------
 # hf/3-21g
 ----------

 -----------------------
 tmpdir/M2_conf_52_1.gjf
 -----------------------
 Symbolic Z-matrix:
 Charge =  0 Multiplicity = 1

                         Standard orientation:
 ---------------------------------------------------------------------
 Center     Atomic      Atomic             Coordinates (Angstroms)
 Number     Number       Type             X           Y           Z
 ---------------------------------------------------------------------
      1          6           0       -0.032243   -0.000060    0.013857
      2          1           0       -0.148321   -0.001623    0.993503
      3          1           0       -0.412256   -0.892295   -0.446238
      4          1           0       -0.414516    0.892645   -0.443909
      5          1           0        1.168552    0.001634   -0.186499
 ---------------------------------------------------------------------

 SCF Done:  E(RHF) =  -39.9597454348     A.U. after    9 cycles

 The electronic state is 1-A.
 Alpha  occ. eigenvalues --  -11.14715  -0.94914  -0.57554  -0.55518  -0.50290
 Alpha virt. eigenvalues --    0.28535   0.32606   0.35681   0.37643   0.87962
 Alpha virt. eigenvalues --    0.92122   0.97562   1.25391   1.34160   1.37107
 Alpha virt. eigenvalues --    1.45276   1.96002

 Mulliken charges:
               1
     1  C   -0.780311
     2  H    0.226865
     3  H    0.202999
     4  H    0.202945
     5  H    0.147503
 Sum of Mulliken charges =  -0.00000

 Dipole moment (field-independent basis, Debye):
    X=             -0.0840    Y=             -0.0003    Z=              0.0591  Tot=              0.1028
 Quadrupole moment (field-independent basis, Debye-Ang):
   XX=             -8.5631   YY=             -8.3027   ZZ=             -8.3764
   XY=             -0.0005   XZ=              0.0462   YZ=             -0.0001

 Normal termination of Gaussian 16 at Fri Sep 22 17:15:25 2023.
