 Gaussian 16, Revision A.03,
 Gaussian 16:  ES64L-G16RevA.03 25-Dec-2016

 ----------
 # hf/3-21g
 ----------

 ------------------------
 tmpdir/M2_conf_246_3.gjf
 ------------------------
 Symbolic Z-matrix:
 Charge =  0 Multiplicity = 1

                         Standard orientation:
 ---------------------------------------------------------------------
 Center     Atomic      Atomic             Coordinates (Angstroms)
 Number     Number       Type             X           Y           Z
 ---------------------------------------------------------------------
      1          6           0       -2.324095    0.000008    0.000008
      2         17           0        1.283405   -0.000007   -0.000002
      3          1           0       -2.624463   -0.278196    0.992266
      4          1           0       -2.624152    0.998715   -0.255263
      5          1           0       -2.624700   -0.720438   -0.737023
 ---------------------------------------------------------------------

 SCF Done:  E(RHF) =  -496.511796435     A.U. after   10 cycles

 The electronic state is 1-A.
 Alpha  occ. eigenvalues -- -103.99812 -11.38076 -10.38555  -7.84875  -7.84688
 Alpha  occ. eigenvalues --   -7.84688  -1.06184  -0.93562  -0.71409  -0.71404
 Alpha  occ. eigenvalues --   -0.35483  -0.35483  -0.32088
 Alpha virt. eigenvalues --   -0.10204   0.20262   0.24904   0.24908   0.73371
 Alpha virt. eigenvalues --    0.79001   0.79014   0.83454   0.89685   0.89686
 Alpha virt. eigenvalues --    0.96901   1.11167   1.21771   1.21781   1.63002

 Mulliken charges:
               1
     1  C   -0.339693
     2  Cl  -0.589718
     3  H    0.309807
     4  H    0.309815
     5  H    0.309788
 Sum of Mulliken charges =  -0.00000

 Dipole moment (field-independent basis, Debye):
    X=            -10.5735    Y=              0.0001    Z=              0.0001  Tot=             10.5735
 Quadrupole moment (field-independent basis, Debye-Ang):
   XX=             -6.2415   YY=            -20.3864   ZZ=            -20.3880
   XY=              0.0002   XZ=              0.0000   YZ=             -0.0001

 Normal termination of Gaussian 16 at Fri Sep 22 17:20:22 2023.
