 Gaussian 16, Revision A.03,
 Gaussian 16:  ES64L-G16RevA.03 25-Dec-2016

 ----------
 # hf/3-21g
 ----------

 ------------------------
 tmpdir/M2_conf_214_3.gjf
 ------------------------
 Symbolic Z-matrix:
 Charge =  0 Multiplicity = 1

                         Standard orientation:
 ---------------------------------------------------------------------
 Center     Atomic      Atomic             Coordinates (Angstroms)
 Number     Number       Type             X           Y           Z
 ---------------------------------------------------------------------
      1          6           0       -2.001226    0.000010    0.000008
      2         17           0        1.112474   -0.000009   -0.000002
      3          1           0       -2.301594   -0.278194    0.992266
      4          1           0       -2.301281    0.998718   -0.255262
      5          1           0       -2.301832   -0.720435   -0.737023
 ---------------------------------------------------------------------

 SCF Done:  E(RHF) =  -496.554099002     A.U. after   10 cycles

 The electronic state is 1-A.
 Alpha  occ. eigenvalues -- -104.02634 -11.35699 -10.41305  -7.87622  -7.87417
 Alpha  occ. eigenvalues --   -7.87417  -1.04000  -0.95896  -0.69086  -0.69082
 Alpha  occ. eigenvalues --   -0.37763  -0.37763  -0.35480
 Alpha virt. eigenvalues --   -0.06265   0.22024   0.26785   0.26789   0.72339
 Alpha virt. eigenvalues --    0.79332   0.79342   0.84993   0.90006   0.90010
 Alpha virt. eigenvalues --    0.98305   1.17528   1.23904   1.23913   1.68405

 Mulliken charges:
               1
     1  C   -0.354773
     2  Cl  -0.531445
     3  H    0.295412
     4  H    0.295418
     5  H    0.295388
 Sum of Mulliken charges =  -0.00000

 Dipole moment (field-independent basis, Debye):
    X=             -8.3039    Y=              0.0001    Z=              0.0001  Tot=              8.3039
 Quadrupole moment (field-independent basis, Debye-Ang):
   XX=             -9.8834   YY=            -20.4077   ZZ=            -20.4092
   XY=              0.0002   XZ=             -0.0000   YZ=             -0.0001

 Normal termination of Gaussian 16 at Fri Sep 22 17:19:33 2023.
