 Gaussian 16, Revision A.03,
 Gaussian 16:  ES64L-G16RevA.03 25-Dec-2016

 ----------
 # hf/3-21g
 ----------

 ------------------------
 tmpdir/M2_conf_147_4.gjf
 ------------------------
 Symbolic Z-matrix:
 Charge =  0 Multiplicity = 1

                         Standard orientation:
 ---------------------------------------------------------------------
 Center     Atomic      Atomic             Coordinates (Angstroms)
 Number     Number       Type             X           Y           Z
 ---------------------------------------------------------------------
      1          1           0       -1.029436    0.174794   -0.338127
      2          6           0       -0.024165   -0.027029   -0.020503
      3          1           0        0.718155   -0.383517   -0.709345
      4          1           0        0.013675   -0.669789    0.838586
      5          1           0        0.442596    1.040686    0.331903
 ---------------------------------------------------------------------

 SCF Done:  E(RHF) =  -39.9635250414     A.U. after    9 cycles

 The electronic state is 1-A.
 Alpha  occ. eigenvalues --  -11.15749  -0.93828  -0.57353  -0.54386  -0.49690
 Alpha virt. eigenvalues --    0.28325   0.31801   0.35120   0.36343   0.90732
 Alpha virt. eigenvalues --    0.94075   0.97356   1.25283   1.31733   1.35841
 Alpha virt. eigenvalues --    1.38735   1.94606

 Mulliken charges:
               1
     1  H    0.210405
     2  C   -0.776247
     3  H    0.210236
     4  H    0.206041
     5  H    0.149564
 Sum of Mulliken charges =  -0.00000

 Dipole moment (field-independent basis, Debye):
    X=              0.0210    Y=             -0.0674    Z=              0.0144  Tot=              0.0721
 Quadrupole moment (field-independent basis, Debye-Ang):
   XX=             -8.1527   YY=             -8.6168   ZZ=             -8.6879
   XY=             -0.1748   XZ=             -0.0458   YZ=             -0.1246

 Normal termination of Gaussian 16 at Fri Sep 22 17:17:47 2023.
