 Gaussian 16, Revision A.03,
 Gaussian 16:  ES64L-G16RevA.03 25-Dec-2016

 ----------
 # hf/3-21g
 ----------

 -----------------------
 tmpdir/M2_conf_25_1.gjf
 -----------------------
 Symbolic Z-matrix:
 Charge =  0 Multiplicity = 1

                         Standard orientation:
 ---------------------------------------------------------------------
 Center     Atomic      Atomic             Coordinates (Angstroms)
 Number     Number       Type             X           Y           Z
 ---------------------------------------------------------------------
      1          6           0       -0.020271   -0.022746    0.000059
      2          1           0       -0.923856    0.672493   -0.002189
      3          1           0        0.041305   -0.613434    0.894193
      4          1           0        0.041982   -0.618736   -0.890742
      5          1           0        0.962194    0.696153   -0.001616
 ---------------------------------------------------------------------

 SCF Done:  E(RHF) =  -39.9647635624     A.U. after    9 cycles

 The electronic state is 1-A.
 Alpha  occ. eigenvalues --  -11.16499  -0.93114  -0.55748  -0.54254  -0.50192
 Alpha virt. eigenvalues --    0.28000   0.31617   0.34520   0.35686   0.91769
 Alpha virt. eigenvalues --    0.94491   0.98299   1.24583   1.28689   1.34600
 Alpha virt. eigenvalues --    1.36778   1.93889

 Mulliken charges:
               1
     1  C   -0.760032
     2  H    0.188645
     3  H    0.208717
     4  H    0.208662
     5  H    0.154009
 Sum of Mulliken charges =   0.00000

 Dipole moment (field-independent basis, Debye):
    X=             -0.0157    Y=             -0.0656    Z=              0.0003  Tot=              0.0674
 Quadrupole moment (field-independent basis, Debye-Ang):
   XX=             -8.5995   YY=             -8.5226   ZZ=             -8.4543
   XY=             -0.1510   XZ=              0.0003   YZ=              0.0004

 Normal termination of Gaussian 16 at Fri Sep 22 17:14:45 2023.
