 Gaussian 16, Revision A.03,
 Gaussian 16:  ES64L-G16RevA.03 25-Dec-2016

 ----------
 # hf/3-21g
 ----------

 ------------------------
 tmpdir/M2_conf_137_3.gjf
 ------------------------
 Symbolic Z-matrix:
 Charge =  0 Multiplicity = 1

                         Standard orientation:
 ---------------------------------------------------------------------
 Center     Atomic      Atomic             Coordinates (Angstroms)
 Number     Number       Type             X           Y           Z
 ---------------------------------------------------------------------
      1          6           0       -1.469387    0.000015    0.000010
      2         17           0        0.830913   -0.000012   -0.000003
      3          1           0       -1.769755   -0.278188    0.992268
      4          1           0       -1.769437    0.998725   -0.255259
      5          1           0       -1.770000   -0.720428   -0.737022
 ---------------------------------------------------------------------

 SCF Done:  E(RHF) =  -496.655449801     A.U. after   10 cycles

 The electronic state is 1-A.
 Alpha  occ. eigenvalues -- -104.07746 -11.29220 -10.46473  -7.92799  -7.92526
 Alpha  occ. eigenvalues --   -7.92526  -1.04259  -0.96785  -0.64166  -0.64161
 Alpha  occ. eigenvalues --   -0.44677  -0.42300  -0.42300
 Alpha virt. eigenvalues --    0.05344   0.25684   0.30413   0.30416   0.73310
 Alpha virt. eigenvalues --    0.78974   0.78979   0.88073   0.93472   0.93481
 Alpha virt. eigenvalues --    1.01896   1.27894   1.28882   1.28892   1.81645

 Mulliken charges:
               1
     1  C   -0.495485
     2  Cl  -0.317942
     3  H    0.271158
     4  H    0.271151
     5  H    0.271117
 Sum of Mulliken charges =  -0.00000

 Dipole moment (field-independent basis, Debye):
    X=             -4.4702    Y=              0.0001    Z=              0.0001  Tot=              4.4702
 Quadrupole moment (field-independent basis, Debye-Ang):
   XX=            -15.7954   YY=            -20.3947   ZZ=            -20.3961
   XY=              0.0005   XZ=             -0.0001   YZ=             -0.0001

 Normal termination of Gaussian 16 at Fri Sep 22 17:17:32 2023.
