 Gaussian 16, Revision A.03,
 Gaussian 16:  ES64L-G16RevA.03 25-Dec-2016

 ----------
 # hf/3-21g
 ----------

 ------------------------
 tmpdir/M2_conf_270_9.gjf
 ------------------------
 Symbolic Z-matrix:
 Charge =  0 Multiplicity = 1

                         Standard orientation:
 ---------------------------------------------------------------------
 Center     Atomic      Atomic             Coordinates (Angstroms)
 Number     Number       Type             X           Y           Z
 ---------------------------------------------------------------------
      1          1           0        1.039498   -0.002417    1.048576
      2          6           0        1.205639    0.000026   -0.012088
      3         17           0       -0.686256    0.000036   -0.016129
      4          1           0        1.696552   -0.891711   -0.352682
      5          1           0        1.696475    0.893365   -0.349179
 ---------------------------------------------------------------------

 SCF Done:  E(RHF) =  -496.660790454     A.U. after   11 cycles

 The electronic state is 1-A.
 Alpha  occ. eigenvalues -- -104.09102 -11.24831 -10.48525  -7.94892  -7.94484
 Alpha  occ. eigenvalues --   -7.94475  -1.12112  -0.93133  -0.64183  -0.63119
 Alpha  occ. eigenvalues --   -0.50601  -0.44265  -0.42812
 Alpha virt. eigenvalues --    0.15095   0.27651   0.31475   0.31586   0.74100
 Alpha virt. eigenvalues --    0.79313   0.80829   0.85194   0.93093   0.96468
 Alpha virt. eigenvalues --    1.01550   1.29285   1.31197   1.32081   1.88047

 Mulliken charges:
               1
     1  H    0.285344
     2  C   -0.707404
     3  Cl  -0.110164
     4  H    0.266127
     5  H    0.266097
 Sum of Mulliken charges =   0.00000

 Dipole moment (field-independent basis, Debye):
    X=              2.7647    Y=             -0.0007    Z=              0.2618  Tot=              2.7770
 Quadrupole moment (field-independent basis, Debye-Ang):
   XX=            -18.5158   YY=            -20.1777   ZZ=            -20.5154
   XY=              0.0011   XZ=             -0.5979   YZ=             -0.0001

 Normal termination of Gaussian 16 at Fri Sep 22 17:20:59 2023.
