 Gaussian 16, Revision A.03,
 Gaussian 16:  ES64L-G16RevA.03 25-Dec-2016

 ----------
 # hf/3-21g
 ----------

 -----------------------
 tmpdir/M2_conf_41_8.gjf
 -----------------------
 Symbolic Z-matrix:
 Charge =  0 Multiplicity = 1

                         Standard orientation:
 ---------------------------------------------------------------------
 Center     Atomic      Atomic             Coordinates (Angstroms)
 Number     Number       Type             X           Y           Z
 ---------------------------------------------------------------------
      1          1           0       -1.425930   -0.044467    1.047581
      2          6           0       -1.202453    0.000055   -0.001558
      3         17           0        0.689443    0.000135   -0.003068
      4          1           0       -1.539859   -0.870756   -0.530731
      5          1           0       -1.540028    0.912602   -0.455343
 ---------------------------------------------------------------------

 SCF Done:  E(RHF) =  -496.688750406     A.U. after   11 cycles

 The electronic state is 1-A.
 Alpha  occ. eigenvalues -- -104.08779 -11.24999 -10.48169  -7.94543  -7.94139
 Alpha  occ. eigenvalues --   -7.94139  -1.11298  -0.93332  -0.63297  -0.63219
 Alpha  occ. eigenvalues --   -0.51295  -0.43775  -0.43669
 Alpha virt. eigenvalues --    0.16558   0.27334   0.31369   0.31397   0.73835
 Alpha virt. eigenvalues --    0.80449   0.80888   0.85531   0.93144   0.94178
 Alpha virt. eigenvalues --    0.99630   1.31151   1.31204   1.32245   1.91898

 Mulliken charges:
               1
     1  H    0.272581
     2  C   -0.702883
     3  Cl  -0.107038
     4  H    0.268694
     5  H    0.268646
 Sum of Mulliken charges =  -0.00000

 Dipole moment (field-independent basis, Debye):
    X=             -2.8641    Y=             -0.0019    Z=              0.0411  Tot=              2.8644
 Quadrupole moment (field-independent basis, Debye-Ang):
   XX=            -18.5678   YY=            -20.1824   ZZ=            -20.1880
   XY=             -0.0049   XZ=              0.1149   YZ=             -0.0001

 Normal termination of Gaussian 16 at Fri Sep 22 17:15:09 2023.
