 Gaussian 16, Revision A.03,
 Gaussian 16:  ES64L-G16RevA.03 25-Dec-2016

 ----------
 # hf/3-21g
 ----------

 ------------------------
 tmpdir/M2_conf_140_9.gjf
 ------------------------
 Symbolic Z-matrix:
 Charge =  0 Multiplicity = 1

                         Standard orientation:
 ---------------------------------------------------------------------
 Center     Atomic      Atomic             Coordinates (Angstroms)
 Number     Number       Type             X           Y           Z
 ---------------------------------------------------------------------
      1          1           0        0.935691   -0.001614    1.022242
      2          6           0        1.207274    0.000021   -0.016438
      3         17           0       -0.684623    0.000029   -0.018519
      4          1           0        1.729635   -0.892046   -0.305490
      5          1           0        1.729625    0.893033   -0.303292
 ---------------------------------------------------------------------

 SCF Done:  E(RHF) =  -496.644568120     A.U. after   11 cycles

 The electronic state is 1-A.
 Alpha  occ. eigenvalues -- -104.09318 -11.24676 -10.48776  -7.95139  -7.94727
 Alpha  occ. eigenvalues --   -7.94711  -1.12656  -0.93012  -0.64598  -0.63064
 Alpha  occ. eigenvalues --   -0.50444  -0.44529  -0.42275
 Alpha virt. eigenvalues --    0.14422   0.27927   0.31559   0.31677   0.74168
 Alpha virt. eigenvalues --    0.78975   0.80641   0.84846   0.93700   0.96981
 Alpha virt. eigenvalues --    1.02096   1.28404   1.31259   1.31808   1.86297

 Mulliken charges:
               1
     1  H    0.288457
     2  C   -0.709211
     3  Cl  -0.112168
     4  H    0.266477
     5  H    0.266445
 Sum of Mulliken charges =  -0.00000

 Dipole moment (field-independent basis, Debye):
    X=              2.6959    Y=             -0.0006    Z=              0.3262  Tot=              2.7156
 Quadrupole moment (field-independent basis, Debye-Ang):
   XX=            -18.5143   YY=            -20.1694   ZZ=            -20.6803
   XY=              0.0009   XZ=             -0.6795   YZ=             -0.0000

 Normal termination of Gaussian 16 at Fri Sep 22 17:17:36 2023.
