 Gaussian 16, Revision A.03,
 Gaussian 16:  ES64L-G16RevA.03 25-Dec-2016

 ----------
 # hf/3-21g
 ----------

 -----------------------
 tmpdir/M2_conf_78_9.gjf
 -----------------------
 Symbolic Z-matrix:
 Charge =  0 Multiplicity = 1

                         Standard orientation:
 ---------------------------------------------------------------------
 Center     Atomic      Atomic             Coordinates (Angstroms)
 Number     Number       Type             X           Y           Z
 ---------------------------------------------------------------------
      1          1           0        1.334352   -0.016424    1.061812
      2          6           0        1.202801    0.000062   -0.003571
      3         17           0       -0.689096    0.000096   -0.006594
      4          1           0        1.581866   -0.885225   -0.477671
      5          1           0        1.581613    0.899650   -0.450615
 ---------------------------------------------------------------------

 SCF Done:  E(RHF) =  -496.685940159     A.U. after   11 cycles

 The electronic state is 1-A.
 Alpha  occ. eigenvalues -- -104.08808 -11.24989 -10.48199  -7.94572  -7.94168
 Alpha  occ. eigenvalues --   -7.94167  -1.11371  -0.93312  -0.63410  -0.63197
 Alpha  occ. eigenvalues --   -0.51192  -0.43848  -0.43565
 Alpha virt. eigenvalues --    0.16383   0.27348   0.31372   0.31429   0.73872
 Alpha virt. eigenvalues --    0.80180   0.81028   0.85614   0.92648   0.94775
 Alpha virt. eigenvalues --    0.99956   1.30866   1.31183   1.32341   1.91471

 Mulliken charges:
               1
     1  H    0.275791
     2  C   -0.703713
     3  Cl  -0.107097
     4  H    0.267522
     5  H    0.267497
 Sum of Mulliken charges =  -0.00000

 Dipole moment (field-independent basis, Debye):
    X=              2.8552    Y=             -0.0015    Z=              0.0916  Tot=              2.8566
 Quadrupole moment (field-independent basis, Debye-Ang):
   XX=            -18.5586   YY=            -20.1831   ZZ=            -20.2237
   XY=              0.0033   XZ=             -0.2463   YZ=             -0.0001

 Normal termination of Gaussian 16 at Fri Sep 22 17:16:04 2023.
