 Gaussian 16, Revision A.03,
 Gaussian 16:  ES64L-G16RevA.03 25-Dec-2016

 ----------
 # hf/3-21g
 ----------

 ------------------------
 tmpdir/M2_conf_100_6.gjf
 ------------------------
 Symbolic Z-matrix:
 Charge =  0 Multiplicity = 1

                         Standard orientation:
 ---------------------------------------------------------------------
 Center     Atomic      Atomic             Coordinates (Angstroms)
 Number     Number       Type             X           Y           Z
 ---------------------------------------------------------------------
      1          1           0       -1.587505   -0.018508    1.003599
      2          6           0       -1.202480   -0.000013    0.001800
      3         17           0        0.689422   -0.000077    0.003458
      4          1           0       -1.458645    0.902485   -0.520205
      5          1           0       -1.459148   -0.882594   -0.552980
 ---------------------------------------------------------------------

 SCF Done:  E(RHF) =  -496.688572601     A.U. after   11 cycles

 The electronic state is 1-A.
 Alpha  occ. eigenvalues -- -104.08780 -11.24999 -10.48170  -7.94544  -7.94140
 Alpha  occ. eigenvalues --   -7.94140  -1.11302  -0.93331  -0.63280  -0.63242
 Alpha  occ. eigenvalues --   -0.51286  -0.43761  -0.43681
 Alpha virt. eigenvalues --    0.16543   0.27331   0.31363   0.31408   0.73836
 Alpha virt. eigenvalues --    0.80394   0.80951   0.85547   0.93067   0.94206
 Alpha virt. eigenvalues --    0.99692   1.31065   1.31259   1.32276   1.91879

 Mulliken charges:
               1
     1  H    0.267046
     2  C   -0.703056
     3  Cl  -0.106953
     4  H    0.271494
     5  H    0.271470
 Sum of Mulliken charges =  -0.00000

 Dipole moment (field-independent basis, Debye):
    X=             -2.8636    Y=              0.0009    Z=             -0.0445  Tot=              2.8640
 Quadrupole moment (field-independent basis, Debye-Ang):
   XX=            -18.5667   YY=            -20.1781   ZZ=            -20.1949
   XY=              0.0030   XZ=             -0.1297   YZ=             -0.0000

 Normal termination of Gaussian 16 at Fri Sep 22 17:16:37 2023.
