 Gaussian 16, Revision A.03,
 Gaussian 16:  ES64L-G16RevA.03 25-Dec-2016

 ----------
 # hf/3-21g
 ----------

 -----------------------
 tmpdir/M2_conf_73_9.gjf
 -----------------------
 Symbolic Z-matrix:
 Charge =  0 Multiplicity = 1

                         Standard orientation:
 ---------------------------------------------------------------------
 Center     Atomic      Atomic             Coordinates (Angstroms)
 Number     Number       Type             X           Y           Z
 ---------------------------------------------------------------------
      1          1           0        1.235185   -0.006855    1.067145
      2          6           0        1.203468    0.000042   -0.005964
      3         17           0       -0.688432    0.000061   -0.010165
      4          1           0        1.623769   -0.889738   -0.434723
      5          1           0        1.623573    0.895309   -0.423835
 ---------------------------------------------------------------------

 SCF Done:  E(RHF) =  -496.680416681     A.U. after   11 cycles

 The electronic state is 1-A.
 Alpha  occ. eigenvalues -- -104.08867 -11.24964 -10.48262  -7.94635  -7.94230
 Alpha  occ. eigenvalues --   -7.94227  -1.11522  -0.93273  -0.63603  -0.63175
 Alpha  occ. eigenvalues --   -0.51017  -0.43950  -0.43399
 Alpha virt. eigenvalues --    0.16064   0.27394   0.31391   0.31470   0.73937
 Alpha virt. eigenvalues --    0.79893   0.81053   0.85634   0.92436   0.95382
 Alpha virt. eigenvalues --    1.00448   1.30443   1.31171   1.32357   1.90646

 Mulliken charges:
               1
     1  H    0.279159
     2  C   -0.704881
     3  Cl  -0.107553
     4  H    0.266651
     5  H    0.266624
 Sum of Mulliken charges =  -0.00000

 Dipole moment (field-independent basis, Debye):
    X=              2.8369    Y=             -0.0010    Z=              0.1474  Tot=              2.8408
 Quadrupole moment (field-independent basis, Debye-Ang):
   XX=            -18.5440   YY=            -20.1832   ZZ=            -20.2919
   XY=              0.0020   XZ=             -0.3792   YZ=             -0.0001

 Normal termination of Gaussian 16 at Fri Sep 22 17:15:56 2023.
