 Gaussian 16, Revision A.03,
 Gaussian 16:  ES64L-G16RevA.03 25-Dec-2016

 ----------
 # hf/3-21g
 ----------

 ------------------------
 tmpdir/M2_conf_140_4.gjf
 ------------------------
 Symbolic Z-matrix:
 Charge =  0 Multiplicity = 1

                         Standard orientation:
 ---------------------------------------------------------------------
 Center     Atomic      Atomic             Coordinates (Angstroms)
 Number     Number       Type             X           Y           Z
 ---------------------------------------------------------------------
      1          1           0       -1.041069    0.115124   -0.333286
      2          6           0       -0.023757   -0.028179   -0.022274
      3          1           0        0.749267   -0.325168   -0.705531
      4          1           0        0.058117   -0.681657    0.825586
      5          1           0        0.376224    1.060774    0.346873
 ---------------------------------------------------------------------

 SCF Done:  E(RHF) =  -39.9627943147     A.U. after    9 cycles

 The electronic state is 1-A.
 Alpha  occ. eigenvalues --  -11.15753  -0.93841  -0.57538  -0.54259  -0.49604
 Alpha virt. eigenvalues --    0.28321   0.31725   0.35062   0.36413   0.90624
 Alpha virt. eigenvalues --    0.94373   0.97338   1.25301   1.31641   1.35749
 Alpha virt. eigenvalues --    1.38945   1.94586

 Mulliken charges:
               1
     1  H    0.211038
     2  C   -0.777484
     3  H    0.210983
     4  H    0.206060
     5  H    0.149403
 Sum of Mulliken charges =   0.00000

 Dipole moment (field-independent basis, Debye):
    X=              0.0303    Y=             -0.0665    Z=              0.0173  Tot=              0.0751
 Quadrupole moment (field-independent basis, Debye-Ang):
   XX=             -8.1004   YY=             -8.6365   ZZ=             -8.7235
   XY=             -0.1506   XZ=             -0.0392   YZ=             -0.1328

 Normal termination of Gaussian 16 at Fri Sep 22 17:17:36 2023.
