 Gaussian 16, Revision A.03,
 Gaussian 16:  ES64L-G16RevA.03 25-Dec-2016

 ----------
 # hf/3-21g
 ----------

 ------------------------
 tmpdir/M2_conf_127_2.gjf
 ------------------------
 Symbolic Z-matrix:
 Charge =  0 Multiplicity = 1

                         Standard orientation:
 ---------------------------------------------------------------------
 Center     Atomic      Atomic             Coordinates (Angstroms)
 Number     Number       Type             X           Y           Z
 ---------------------------------------------------------------------
      1          6           0        0.028255   -0.012202   -0.000014
      2          1           0        0.627546    0.925656   -0.006553
      3          1           0        0.174576   -0.586538    0.894931
      4          1           0        0.168444   -0.595766   -0.890196
      5          1           0       -1.140097    0.329861    0.001904
 ---------------------------------------------------------------------

 SCF Done:  E(RHF) =  -39.9662724540     A.U. after    9 cycles

 The electronic state is 1-A.
 Alpha  occ. eigenvalues --  -11.16186  -0.93364  -0.55703  -0.54799  -0.50236
 Alpha virt. eigenvalues --    0.28153   0.31913   0.34937   0.35689   0.91830
 Alpha virt. eigenvalues --    0.93563   0.97903   1.24835   1.30390   1.35186
 Alpha virt. eigenvalues --    1.36850   1.94190

 Mulliken charges:
               1
     1  C   -0.764699
     2  H    0.196087
     3  H    0.207850
     4  H    0.207801
     5  H    0.152961
 Sum of Mulliken charges =  -0.00000

 Dipole moment (field-independent basis, Debye):
    X=              0.0501    Y=             -0.0407    Z=              0.0001  Tot=              0.0646
 Quadrupole moment (field-independent basis, Debye-Ang):
   XX=             -8.6662   YY=             -8.4265   ZZ=             -8.4283
   XY=              0.0844   XZ=              0.0012   YZ=              0.0001

 Normal termination of Gaussian 16 at Fri Sep 22 17:17:17 2023.
