 Gaussian 16, Revision A.03,
 Gaussian 16:  ES64L-G16RevA.03 25-Dec-2016

 ----------
 # hf/3-21g
 ----------

 ------------------------
 tmpdir/M2_conf_287_9.gjf
 ------------------------
 Symbolic Z-matrix:
 Charge =  0 Multiplicity = 1

                         Standard orientation:
 ---------------------------------------------------------------------
 Center     Atomic      Atomic             Coordinates (Angstroms)
 Number     Number       Type             X           Y           Z
 ---------------------------------------------------------------------
      1          1           0        1.334918   -0.016529    1.061753
      2          6           0        1.202800    0.000062   -0.003558
      3         17           0       -0.689101    0.000096   -0.006573
      4          1           0        1.581621   -0.885175   -0.477949
      5          1           0        1.581367    0.899697   -0.450714
 ---------------------------------------------------------------------

 SCF Done:  E(RHF) =  -496.685964025     A.U. after   11 cycles

 The electronic state is 1-A.
 Alpha  occ. eigenvalues -- -104.08807 -11.24989 -10.48198  -7.94572  -7.94168
 Alpha  occ. eigenvalues --   -7.94167  -1.11371  -0.93312  -0.63409  -0.63197
 Alpha  occ. eigenvalues --   -0.51193  -0.43847  -0.43566
 Alpha virt. eigenvalues --    0.16384   0.27348   0.31372   0.31428   0.73871
 Alpha virt. eigenvalues --    0.80181   0.81027   0.85614   0.92650   0.94772
 Alpha virt. eigenvalues --    0.99954   1.30869   1.31183   1.32341   1.91474

 Mulliken charges:
               1
     1  H    0.275771
     2  C   -0.703704
     3  Cl  -0.107098
     4  H    0.267528
     5  H    0.267503
 Sum of Mulliken charges =   0.00000

 Dipole moment (field-independent basis, Debye):
    X=              2.8552    Y=             -0.0015    Z=              0.0913  Tot=              2.8567
 Quadrupole moment (field-independent basis, Debye-Ang):
   XX=            -18.5586   YY=            -20.1831   ZZ=            -20.2234
   XY=              0.0033   XZ=             -0.2455   YZ=             -0.0001

 Normal termination of Gaussian 16 at Fri Sep 22 17:21:29 2023.
