 Gaussian 16, Revision A.03,
 Gaussian 16:  ES64L-G16RevA.03 25-Dec-2016

 ----------
 # hf/3-21g
 ----------

 ------------------------
 tmpdir/M2_conf_192_0.gjf
 ------------------------
 Symbolic Z-matrix:
 Charge =  0 Multiplicity = 1

                         Standard orientation:
 ---------------------------------------------------------------------
 Center     Atomic      Atomic             Coordinates (Angstroms)
 Number     Number       Type             X           Y           Z
 ---------------------------------------------------------------------
      1          6           0       -0.029199   -0.009992   -0.000056
      2          1           0       -0.567227    0.958031   -0.003511
      3          1           0       -0.205059   -0.580966   -0.892068
      4          1           0       -0.210397   -0.577161    0.893304
      5          1           0        1.157874    0.260050    0.002609
 ---------------------------------------------------------------------

 SCF Done:  E(RHF) =  -39.9664840569     A.U. after    9 cycles

 The electronic state is 1-A.
 Alpha  occ. eigenvalues --  -11.16124  -0.93416  -0.55692  -0.54912  -0.50242
 Alpha virt. eigenvalues --    0.28179   0.31964   0.35030   0.35686   0.91849
 Alpha virt. eigenvalues --    0.93351   0.97849   1.24873   1.30723   1.35341
 Alpha virt. eigenvalues --    1.36856   1.94249

 Mulliken charges:
               1
     1  C   -0.765563
     2  H    0.197568
     3  H    0.207623
     4  H    0.207620
     5  H    0.152752
 Sum of Mulliken charges =  -0.00000

 Dipole moment (field-independent basis, Debye):
    X=             -0.0549    Y=             -0.0342    Z=             -0.0001  Tot=              0.0647
 Quadrupole moment (field-independent basis, Debye-Ang):
   XX=             -8.6715   YY=             -8.4155   ZZ=             -8.4230
   XY=             -0.0672   XZ=             -0.0012   YZ=             -0.0000

 Normal termination of Gaussian 16 at Fri Sep 22 17:19:00 2023.
