 Gaussian 16, Revision A.03,
 Gaussian 16:  ES64L-G16RevA.03 25-Dec-2016

 ----------
 # hf/3-21g
 ----------

 ------------------------
 tmpdir/M2_conf_159_5.gjf
 ------------------------
 Symbolic Z-matrix:
 Charge =  0 Multiplicity = 1

                         Standard orientation:
 ---------------------------------------------------------------------
 Center     Atomic      Atomic             Coordinates (Angstroms)
 Number     Number       Type             X           Y           Z
 ---------------------------------------------------------------------
      1          1           0        1.078628    0.008803   -0.276196
      2          6           0        0.032929   -0.029673   -0.036985
      3          1           0       -0.836998   -0.153784   -0.653781
      4          1           0       -0.185573   -0.740830    0.737045
      5          1           0       -0.253632    1.063851    0.414842
 ---------------------------------------------------------------------

 SCF Done:  E(RHF) =  -39.9525685795     A.U. after    9 cycles

 The electronic state is 1-A.
 Alpha  occ. eigenvalues --  -11.15795  -0.94028  -0.59177  -0.53270  -0.48519
 Alpha virt. eigenvalues --    0.28231   0.30702   0.34640   0.37006   0.89940
 Alpha virt. eigenvalues --    0.97171   0.97799   1.25292   1.30805   1.35122
 Alpha virt. eigenvalues --    1.41058   1.94351

 Mulliken charges:
               1
     1  H    0.219293
     2  C   -0.795432
     3  H    0.221413
     4  H    0.206550
     5  H    0.148176
 Sum of Mulliken charges =   0.00000

 Dipole moment (field-independent basis, Debye):
    X=             -0.0879    Y=             -0.0644    Z=              0.0497  Tot=              0.1197
 Quadrupole moment (field-independent basis, Debye-Ang):
   XX=             -7.7612   YY=             -8.6821   ZZ=             -9.0543
   XY=              0.0998   XZ=              0.0244   YZ=             -0.1627

 Normal termination of Gaussian 16 at Fri Sep 22 17:18:05 2023.
