 Gaussian 16, Revision A.03,
 Gaussian 16:  ES64L-G16RevA.03 25-Dec-2016

 ----------
 # hf/3-21g
 ----------

 ------------------------
 tmpdir/M2_conf_208_4.gjf
 ------------------------
 Symbolic Z-matrix:
 Charge =  0 Multiplicity = 1

                         Standard orientation:
 ---------------------------------------------------------------------
 Center     Atomic      Atomic             Coordinates (Angstroms)
 Number     Number       Type             X           Y           Z
 ---------------------------------------------------------------------
      1          1           0       -0.398565    0.949987   -0.353095
      2          6           0       -0.033704    0.000582   -0.010028
      3          1           0       -0.085071   -0.809130   -0.713129
      4          1           0       -0.470282   -0.293160    0.925770
      5          1           0        1.156140    0.148812    0.200623
 ---------------------------------------------------------------------

 SCF Done:  E(RHF) =  -39.9661824678     A.U. after    9 cycles

 The electronic state is 1-A.
 Alpha  occ. eigenvalues --  -11.15733  -0.93785  -0.56374  -0.55089  -0.50064
 Alpha virt. eigenvalues --    0.28330   0.32100   0.35443   0.35971   0.91379
 Alpha virt. eigenvalues --    0.92716   0.97490   1.25166   1.32183   1.36415
 Alpha virt. eigenvalues --    1.37680   1.94667

 Mulliken charges:
               1
     1  H    0.207791
     2  C   -0.771879
     3  H    0.207443
     4  H    0.206128
     5  H    0.150518
 Sum of Mulliken charges =  -0.00000

 Dipole moment (field-independent basis, Debye):
    X=             -0.0590    Y=             -0.0271    Z=              0.0024  Tot=              0.0650
 Quadrupole moment (field-independent basis, Debye-Ang):
   XX=             -8.6613   YY=             -8.2776   ZZ=             -8.5053
   XY=             -0.0686   XZ=             -0.0807   YZ=             -0.0129

 Normal termination of Gaussian 16 at Fri Sep 22 17:19:24 2023.
