 Gaussian 16, Revision A.03,
 Gaussian 16:  ES64L-G16RevA.03 25-Dec-2016

 ----------
 # hf/3-21g
 ----------

 ------------------------
 tmpdir/M2_conf_122_8.gjf
 ------------------------
 Symbolic Z-matrix:
 Charge =  0 Multiplicity = 1

                         Standard orientation:
 ---------------------------------------------------------------------
 Center     Atomic      Atomic             Coordinates (Angstroms)
 Number     Number       Type             X           Y           Z
 ---------------------------------------------------------------------
      1          1           0       -1.342729   -0.009206    1.061053
      2          6           0       -1.202764    0.000017   -0.003344
      3         17           0        0.689136    0.000060   -0.006282
      4          1           0       -1.577903   -0.888397   -0.474693
      5          1           0       -1.578095    0.896488   -0.459506
 ---------------------------------------------------------------------

 SCF Done:  E(RHF) =  -496.686288701     A.U. after   11 cycles

 The electronic state is 1-A.
 Alpha  occ. eigenvalues -- -104.08804 -11.24990 -10.48195  -7.94568  -7.94164
 Alpha  occ. eigenvalues --   -7.94163  -1.11362  -0.93314  -0.63400  -0.63197
 Alpha  occ. eigenvalues --   -0.51204  -0.43840  -0.43577
 Alpha virt. eigenvalues --    0.16404   0.27346   0.31372   0.31424   0.73867
 Alpha virt. eigenvalues --    0.80204   0.81021   0.85607   0.92685   0.94718
 Alpha virt. eigenvalues --    0.99920   1.30902   1.31183   1.32332   1.91522

 Mulliken charges:
               1
     1  H    0.275506
     2  C   -0.703613
     3  Cl  -0.107094
     4  H    0.267625
     5  H    0.267577
 Sum of Mulliken charges =   0.00000

 Dipole moment (field-independent basis, Debye):
    X=             -2.8563    Y=             -0.0009    Z=              0.0868  Tot=              2.8576
 Quadrupole moment (field-independent basis, Debye-Ang):
   XX=            -18.5599   YY=            -20.1835   ZZ=            -20.2188
   XY=             -0.0020   XZ=              0.2348   YZ=              0.0000

 Normal termination of Gaussian 16 at Fri Sep 22 17:17:09 2023.
