 Gaussian 16, Revision A.03,
 Gaussian 16:  ES64L-G16RevA.03 25-Dec-2016

 ----------
 # hf/3-21g
 ----------

 ------------------------
 tmpdir/M2_conf_166_8.gjf
 ------------------------
 Symbolic Z-matrix:
 Charge =  0 Multiplicity = 1

                         Standard orientation:
 ---------------------------------------------------------------------
 Center     Atomic      Atomic             Coordinates (Angstroms)
 Number     Number       Type             X           Y           Z
 ---------------------------------------------------------------------
      1          1           0       -1.071334   -0.001059    1.054338
      2          6           0       -1.205209   -0.000005   -0.010882
      3         17           0        0.686689    0.000022   -0.015281
      4          1           0       -1.685435   -0.892120   -0.365412
      5          1           0       -1.685696    0.892830   -0.363865
 ---------------------------------------------------------------------

 SCF Done:  E(RHF) =  -496.664885679     A.U. after   11 cycles

 The electronic state is 1-A.
 Alpha  occ. eigenvalues -- -104.09050 -11.24864 -10.48466  -7.94834  -7.94427
 Alpha  occ. eigenvalues --   -7.94419  -1.11983  -0.93163  -0.64074  -0.63129
 Alpha  occ. eigenvalues --   -0.50665  -0.44199  -0.42940
 Alpha virt. eigenvalues --    0.15281   0.27588   0.31457   0.31562   0.74074
 Alpha virt. eigenvalues --    0.79411   0.80883   0.85300   0.92917   0.96298
 Alpha virt. eigenvalues --    1.01375   1.29511   1.31184   1.32149   1.88541

 Mulliken charges:
               1
     1  H    0.284379
     2  C   -0.706944
     3  Cl  -0.109604
     4  H    0.266107
     5  H    0.266062
 Sum of Mulliken charges =  -0.00000

 Dipole moment (field-independent basis, Debye):
    X=             -2.7808    Y=             -0.0004    Z=              0.2425  Tot=              2.7913
 Quadrupole moment (field-independent basis, Debye-Ang):
   XX=            -18.5191   YY=            -20.1798   ZZ=            -20.4707
   XY=             -0.0007   XZ=              0.5677   YZ=              0.0000

 Normal termination of Gaussian 16 at Fri Sep 22 17:18:16 2023.
