 Gaussian 16, Revision A.03,
 Gaussian 16:  ES64L-G16RevA.03 25-Dec-2016

 ----------
 # hf/3-21g
 ----------

 ------------------------
 tmpdir/M2_conf_231_6.gjf
 ------------------------
 Symbolic Z-matrix:
 Charge =  0 Multiplicity = 1

                         Standard orientation:
 ---------------------------------------------------------------------
 Center     Atomic      Atomic             Coordinates (Angstroms)
 Number     Number       Type             X           Y           Z
 ---------------------------------------------------------------------
      1          1           0       -1.418688   -0.027774    1.049296
      2          6           0       -1.202469    0.000065   -0.001733
      3         17           0        0.689428    0.000077   -0.003354
      4          1           0       -1.543153    0.905420   -0.467434
      5          1           0       -1.543615   -0.879341   -0.514445
 ---------------------------------------------------------------------

 SCF Done:  E(RHF) =  -496.688605412     A.U. after   11 cycles

 The electronic state is 1-A.
 Alpha  occ. eigenvalues -- -104.08781 -11.24998 -10.48170  -7.94545  -7.94141
 Alpha  occ. eigenvalues --   -7.94140  -1.11302  -0.93331  -0.63302  -0.63218
 Alpha  occ. eigenvalues --   -0.51289  -0.43781  -0.43663
 Alpha virt. eigenvalues --    0.16549   0.27335   0.31370   0.31398   0.73837
 Alpha virt. eigenvalues --    0.80429   0.80901   0.85537   0.93087   0.94238
 Alpha virt. eigenvalues --    0.99650   1.31128   1.31197   1.32266   1.91877

 Mulliken charges:
               1
     1  H    0.272875
     2  C   -0.702940
     3  Cl  -0.107032
     4  H    0.268559
     5  H    0.268538
 Sum of Mulliken charges =  -0.00000

 Dipole moment (field-independent basis, Debye):
    X=             -2.8636    Y=             -0.0011    Z=              0.0453  Tot=              2.8640
 Quadrupole moment (field-independent basis, Debye-Ang):
   XX=            -18.5671   YY=            -20.1814   ZZ=            -20.1910
   XY=             -0.0028   XZ=              0.1250   YZ=             -0.0002

 Normal termination of Gaussian 16 at Fri Sep 22 17:19:59 2023.
