 Gaussian 16, Revision A.03,
 Gaussian 16:  ES64L-G16RevA.03 25-Dec-2016

 ----------
 # hf/3-21g
 ----------

 ------------------------
 tmpdir/M2_conf_249_3.gjf
 ------------------------
 Symbolic Z-matrix:
 Charge =  0 Multiplicity = 1

                         Standard orientation:
 ---------------------------------------------------------------------
 Center     Atomic      Atomic             Coordinates (Angstroms)
 Number     Number       Type             X           Y           Z
 ---------------------------------------------------------------------
      1          6           0       -2.358291    0.000007    0.000008
      2         17           0        1.301509   -0.000007   -0.000002
      3          1           0       -2.658660   -0.278196    0.992266
      4          1           0       -2.658348    0.998715   -0.255263
      5          1           0       -2.658896   -0.720438   -0.737023
 ---------------------------------------------------------------------

 SCF Done:  E(RHF) =  -496.508151731     A.U. after   10 cycles

 The electronic state is 1-A.
 Alpha  occ. eigenvalues -- -103.99544 -11.38264 -10.38294  -7.84614  -7.84429
 Alpha  occ. eigenvalues --   -7.84429  -1.06377  -0.93343  -0.71606  -0.71601
 Alpha  occ. eigenvalues --   -0.35269  -0.35269  -0.31793
 Alpha virt. eigenvalues --   -0.10534   0.20107   0.24739   0.24742   0.73632
 Alpha virt. eigenvalues --    0.78891   0.78904   0.83444   0.89772   0.89773
 Alpha virt. eigenvalues --    0.96559   1.10692   1.21591   1.21600   1.62643

 Mulliken charges:
               1
     1  C   -0.338888
     2  Cl  -0.593969
     3  H    0.310955
     4  H    0.310964
     5  H    0.310937
 Sum of Mulliken charges =  -0.00000

 Dipole moment (field-independent basis, Debye):
    X=            -10.8017    Y=              0.0001    Z=              0.0001  Tot=             10.8017
 Quadrupole moment (field-independent basis, Debye-Ang):
   XX=             -5.8452   YY=            -20.3846   ZZ=            -20.3863
   XY=              0.0002   XZ=              0.0000   YZ=             -0.0001

 Normal termination of Gaussian 16 at Fri Sep 22 17:20:27 2023.
