 Gaussian 16, Revision A.03,
 Gaussian 16:  ES64L-G16RevA.03 25-Dec-2016

 ----------
 # hf/3-21g
 ----------

 ------------------------
 tmpdir/M2_conf_138_5.gjf
 ------------------------
 Symbolic Z-matrix:
 Charge =  0 Multiplicity = 1

                         Standard orientation:
 ---------------------------------------------------------------------
 Center     Atomic      Atomic             Coordinates (Angstroms)
 Number     Number       Type             X           Y           Z
 ---------------------------------------------------------------------
      1          1           0        1.052203    0.057250   -0.322833
      2          6           0        0.024478   -0.029212   -0.025356
      3          1           0       -0.780606   -0.258458   -0.697596
      4          1           0       -0.108146   -0.696811    0.804904
      5          1           0       -0.310316    1.073291    0.367659
 ---------------------------------------------------------------------

 SCF Done:  E(RHF) =  -39.9612763945     A.U. after    9 cycles

 The electronic state is 1-A.
 Alpha  occ. eigenvalues --  -11.15760  -0.93868  -0.57872  -0.54033  -0.49433
 Alpha virt. eigenvalues --    0.28311   0.31569   0.34961   0.36536   0.90443
 Alpha virt. eigenvalues --    0.94949   0.97308   1.25328   1.31470   1.35590
 Alpha virt. eigenvalues --    1.39339   1.94549

 Mulliken charges:
               1
     1  H    0.212320
     2  C   -0.780100
     3  H    0.212527
     4  H    0.206126
     5  H    0.149127
 Sum of Mulliken charges =   0.00000

 Dipole moment (field-independent basis, Debye):
    X=             -0.0438    Y=             -0.0651    Z=              0.0231  Tot=              0.0818
 Quadrupole moment (field-independent basis, Debye-Ang):
   XX=             -8.0237   YY=             -8.6550   ZZ=             -8.7878
   XY=              0.1244   XZ=              0.0320   YZ=             -0.1427

 Normal termination of Gaussian 16 at Fri Sep 22 17:17:33 2023.
