 Gaussian 16, Revision A.03,
 Gaussian 16:  ES64L-G16RevA.03 25-Dec-2016

 ----------
 # hf/3-21g
 ----------

 ------------------------
 tmpdir/M2_conf_194_0.gjf
 ------------------------
 Symbolic Z-matrix:
 Charge =  0 Multiplicity = 1

                         Standard orientation:
 ---------------------------------------------------------------------
 Center     Atomic      Atomic             Coordinates (Angstroms)
 Number     Number       Type             X           Y           Z
 ---------------------------------------------------------------------
      1          6           0        0.019407   -0.023449    0.000056
      2          1           0        0.944437    0.647091    0.001762
      3          1           0       -0.061556   -0.614056    0.892946
      4          1           0       -0.056960   -0.615257   -0.892432
      5          1           0       -0.942364    0.722916   -0.002613
 ---------------------------------------------------------------------

 SCF Done:  E(RHF) =  -39.9645966701     A.U. after    9 cycles

 The electronic state is 1-A.
 Alpha  occ. eigenvalues --  -11.16529  -0.93091  -0.55754  -0.54200  -0.50189
 Alpha virt. eigenvalues --    0.27983   0.31589   0.34482   0.35685   0.91776
 Alpha virt. eigenvalues --    0.94556   0.98349   1.24551   1.28543   1.34544
 Alpha virt. eigenvalues --    1.36766   1.93860

 Mulliken charges:
               1
     1  C   -0.759565
     2  H    0.187969
     3  H    0.208746
     4  H    0.208744
     5  H    0.154106
 Sum of Mulliken charges =  -0.00000

 Dipole moment (field-independent basis, Debye):
    X=              0.0122    Y=             -0.0668    Z=              0.0001  Tot=              0.0679
 Quadrupole moment (field-independent basis, Debye-Ang):
   XX=             -8.5917   YY=             -8.5342   ZZ=             -8.4558
   XY=              0.1534   XZ=             -0.0011   YZ=              0.0005

 Normal termination of Gaussian 16 at Fri Sep 22 17:19:03 2023.
