 Gaussian 16, Revision A.03,
 Gaussian 16:  ES64L-G16RevA.03 25-Dec-2016

 ----------
 # hf/3-21g
 ----------

 ------------------------
 tmpdir/M2_conf_205_9.gjf
 ------------------------
 Symbolic Z-matrix:
 Charge =  0 Multiplicity = 1

                         Standard orientation:
 ---------------------------------------------------------------------
 Center     Atomic      Atomic             Coordinates (Angstroms)
 Number     Number       Type             X           Y           Z
 ---------------------------------------------------------------------
      1          1           0        1.004115   -0.002092    1.040946
      2          6           0        1.206158    0.000024   -0.013469
      3         17           0       -0.685739    0.000033   -0.017013
      4          1           0        1.708277   -0.891849   -0.336942
      5          1           0        1.708223    0.893229   -0.333971
 ---------------------------------------------------------------------

 SCF Done:  E(RHF) =  -496.655780221     A.U. after   11 cycles

 The electronic state is 1-A.
 Alpha  occ. eigenvalues -- -104.09166 -11.24787 -10.48599  -7.94966  -7.94556
 Alpha  occ. eigenvalues --   -7.94545  -1.12275  -0.93096  -0.64316  -0.63103
 Alpha  occ. eigenvalues --   -0.50537  -0.44345  -0.42652
 Alpha virt. eigenvalues --    0.14877   0.27731   0.31499   0.31614   0.74126
 Alpha virt. eigenvalues --    0.79202   0.80767   0.85073   0.93300   0.96648
 Alpha virt. eigenvalues --    1.01743   1.29014   1.31213   1.31996   1.87470

 Mulliken charges:
               1
     1  H    0.286413
     2  C   -0.707938
     3  Cl  -0.110843
     4  H    0.266199
     5  H    0.266169
 Sum of Mulliken charges =  -0.00000

 Dipole moment (field-independent basis, Debye):
    X=              2.7443    Y=             -0.0006    Z=              0.2833  Tot=              2.7589
 Quadrupole moment (field-independent basis, Debye-Ang):
   XX=            -18.5135   YY=            -20.1755   ZZ=            -20.5681
   XY=              0.0010   XZ=             -0.6290   YZ=             -0.0001

 Normal termination of Gaussian 16 at Fri Sep 22 17:19:20 2023.
