 Gaussian 16, Revision A.03,
 Gaussian 16:  ES64L-G16RevA.03 25-Dec-2016

 ----------
 # hf/3-21g
 ----------

 ------------------------
 tmpdir/M2_conf_298_5.gjf
 ------------------------
 Symbolic Z-matrix:
 Charge =  0 Multiplicity = 1

                         Standard orientation:
 ---------------------------------------------------------------------
 Center     Atomic      Atomic             Coordinates (Angstroms)
 Number     Number       Type             X           Y           Z
 ---------------------------------------------------------------------
      1          1           0        1.025419    0.193816   -0.338448
      2          6           0        0.024368   -0.026674   -0.019908
      3          1           0       -0.705975   -0.403266   -0.710855
      4          1           0       -0.001001   -0.663984    0.843690
      5          1           0       -0.464649    1.033477    0.325061
 ---------------------------------------------------------------------

 SCF Done:  E(RHF) =  -39.9637368428     A.U. after    9 cycles

 The electronic state is 1-A.
 Alpha  occ. eigenvalues --  -11.15748  -0.93825  -0.57297  -0.54424  -0.49717
 Alpha virt. eigenvalues --    0.28326   0.31824   0.35138   0.36322   0.90767
 Alpha virt. eigenvalues --    0.93986   0.97360   1.25279   1.31762   1.35869
 Alpha virt. eigenvalues --    1.38673   1.94615

 Mulliken charges:
               1
     1  H    0.210224
     2  C   -0.775902
     3  H    0.210018
     4  H    0.206045
     5  H    0.149615
 Sum of Mulliken charges =   0.00000

 Dipole moment (field-independent basis, Debye):
    X=             -0.0181    Y=             -0.0676    Z=              0.0138  Tot=              0.0713
 Quadrupole moment (field-independent basis, Debye-Ang):
   XX=             -8.1700   YY=             -8.6104   ZZ=             -8.6761
   XY=              0.1824   XZ=              0.0475   YZ=             -0.1211

 Normal termination of Gaussian 16 at Fri Sep 22 17:21:46 2023.
