 Gaussian 16, Revision A.03,
 Gaussian 16:  ES64L-G16RevA.03 25-Dec-2016

 ----------
 # hf/3-21g
 ----------

 -----------------------
 tmpdir/M2_conf_84_2.gjf
 -----------------------
 Symbolic Z-matrix:
 Charge =  0 Multiplicity = 1

                         Standard orientation:
 ---------------------------------------------------------------------
 Center     Atomic      Atomic             Coordinates (Angstroms)
 Number     Number       Type             X           Y           Z
 ---------------------------------------------------------------------
      1          6           0        0.028236   -0.012242   -0.000014
      2          1           0        0.628631    0.925028   -0.006537
      3          1           0        0.173910   -0.586756    0.894923
      4          1           0        0.167775   -0.595949   -0.890204
      5          1           0       -1.139732    0.331130    0.001904
 ---------------------------------------------------------------------

 SCF Done:  E(RHF) =  -39.9662683263     A.U. after    9 cycles

 The electronic state is 1-A.
 Alpha  occ. eigenvalues --  -11.16187  -0.93363  -0.55703  -0.54797  -0.50236
 Alpha virt. eigenvalues --    0.28153   0.31912   0.34935   0.35689   0.91830
 Alpha virt. eigenvalues --    0.93567   0.97904   1.24834   1.30383   1.35183
 Alpha virt. eigenvalues --    1.36850   1.94189

 Mulliken charges:
               1
     1  C   -0.764683
     2  H    0.196060
     3  H    0.207854
     4  H    0.207804
     5  H    0.152965
 Sum of Mulliken charges =   0.00000

 Dipole moment (field-independent basis, Debye):
    X=              0.0500    Y=             -0.0409    Z=              0.0001  Tot=              0.0646
 Quadrupole moment (field-independent basis, Debye-Ang):
   XX=             -8.6661   YY=             -8.4267   ZZ=             -8.4284
   XY=              0.0847   XZ=              0.0012   YZ=              0.0001

 Normal termination of Gaussian 16 at Fri Sep 22 17:16:13 2023.
