 Gaussian 16, Revision A.03,
 Gaussian 16:  ES64L-G16RevA.03 25-Dec-2016

 ----------
 # hf/3-21g
 ----------

 -----------------------
 tmpdir/M2_conf_53_5.gjf
 -----------------------
 Symbolic Z-matrix:
 Charge =  0 Multiplicity = 1

                         Standard orientation:
 ---------------------------------------------------------------------
 Center     Atomic      Atomic             Coordinates (Angstroms)
 Number     Number       Type             X           Y           Z
 ---------------------------------------------------------------------
      1          1           0       -0.336162   -0.323872    0.976060
      2          6           0       -0.031280    0.001399   -0.000379
      3          1           0       -0.359289   -0.671432   -0.770003
      4          1           0       -0.302441    1.021429   -0.196901
      5          1           0        1.185572   -0.034521   -0.006884
 ---------------------------------------------------------------------

 SCF Done:  E(RHF) =  -39.9669752095     A.U. after    9 cycles

 The electronic state is 1-A.
 Alpha  occ. eigenvalues --  -11.15725  -0.93777  -0.55703  -0.55549  -0.50291
 Alpha virt. eigenvalues --    0.28316   0.32242   0.35653   0.35714   0.91828
 Alpha virt. eigenvalues --    0.91990   0.97658   1.25056   1.32480   1.36859
 Alpha virt. eigenvalues --    1.37006   1.94643

 Mulliken charges:
               1
     1  H    0.206350
     2  C   -0.770641
     3  H    0.206351
     4  H    0.206476
     5  H    0.151464
 Sum of Mulliken charges =  -0.00000

 Dipole moment (field-independent basis, Debye):
    X=             -0.0721    Y=              0.0005    Z=              0.0029  Tot=              0.0721
 Quadrupole moment (field-independent basis, Debye-Ang):
   XX=             -8.6518   YY=             -8.3799   ZZ=             -8.4055
   XY=              0.0143   XZ=              0.0033   YZ=             -0.0001

 Normal termination of Gaussian 16 at Fri Sep 22 17:15:27 2023.
