 Gaussian 16, Revision A.03,
 Gaussian 16:  ES64L-G16RevA.03 25-Dec-2016

 ----------
 # hf/3-21g
 ----------

 ------------------------
 tmpdir/M2_conf_282_8.gjf
 ------------------------
 Symbolic Z-matrix:
 Charge =  0 Multiplicity = 1

                         Standard orientation:
 ---------------------------------------------------------------------
 Center     Atomic      Atomic             Coordinates (Angstroms)
 Number     Number       Type             X           Y           Z
 ---------------------------------------------------------------------
      1          1           0        0.469144    0.000029    0.714960
      2          6           0        1.219792    0.000019   -0.052597
      3         17           0       -0.671793   -0.000010   -0.018321
      4          1           0        1.816116    0.892489   -0.043975
      5          1           0        1.816469   -0.892461   -0.043956
 ---------------------------------------------------------------------

 SCF Done:  E(RHF) =  -496.480085319     A.U. after   12 cycles

 The electronic state is 1-A.
 Alpha  occ. eigenvalues -- -104.12585 -11.21329 -10.52685  -7.99062  -7.98514
 Alpha  occ. eigenvalues --   -7.98445  -1.21039  -0.91344  -0.67920  -0.61708
 Alpha  occ. eigenvalues --   -0.52666  -0.47827  -0.35725
 Alpha virt. eigenvalues --    0.10729   0.31699   0.33112   0.34479   0.73049
 Alpha virt. eigenvalues --    0.76382   0.78219   0.81757   0.91126   0.98889
 Alpha virt. eigenvalues --    1.04570   1.19913   1.32574   1.33070   1.81173

 Mulliken charges:
               1
     1  H    0.283016
     2  C   -0.772621
     3  Cl  -0.052535
     4  H    0.271087
     5  H    0.271052
 Sum of Mulliken charges =  -0.00000

 Dipole moment (field-independent basis, Debye):
    X=              1.4504    Y=              0.0001    Z=              0.8028  Tot=              1.6578
 Quadrupole moment (field-independent basis, Debye-Ang):
   XX=            -19.0373   YY=            -19.9178   ZZ=            -21.7901
   XY=             -0.0003   XZ=             -0.2008   YZ=              0.0000

 Normal termination of Gaussian 16 at Fri Sep 22 17:21:17 2023.
