 Gaussian 16, Revision A.03,
 Gaussian 16:  ES64L-G16RevA.03 25-Dec-2016

 ----------
 # hf/3-21g
 ----------

 -----------------------
 tmpdir/M2_conf_21_7.gjf
 -----------------------
 Symbolic Z-matrix:
 Charge =  0 Multiplicity = 1

                         Standard orientation:
 ---------------------------------------------------------------------
 Center     Atomic      Atomic             Coordinates (Angstroms)
 Number     Number       Type             X           Y           Z
 ---------------------------------------------------------------------
      1          1           0       -0.939378    0.444052   -0.344605
      2          6           0       -0.028670   -0.020566   -0.016951
      3          1           0        0.554265   -0.591316   -0.714843
      4          1           0       -0.165384   -0.614692    0.866506
      5          1           0        0.722516    0.885351    0.294649
 ---------------------------------------------------------------------

 SCF Done:  E(RHF) =  -39.9646932098     A.U. after    9 cycles

 The electronic state is 1-A.
 Alpha  occ. eigenvalues --  -11.15743  -0.93809  -0.57004  -0.54632  -0.49839
 Alpha virt. eigenvalues --    0.28330   0.31926   0.35236   0.36210   0.90940
 Alpha virt. eigenvalues --    0.93562   0.97395   1.25246   1.31896   1.36041
 Alpha virt. eigenvalues --    1.38346   1.94637

 Mulliken charges:
               1
     1  H    0.209298
     2  C   -0.774305
     3  H    0.209025
     4  H    0.206098
     5  H    0.149883
 Sum of Mulliken charges =  -0.00000

 Dipole moment (field-independent basis, Debye):
    X=             -0.0075    Y=             -0.0667    Z=              0.0098  Tot=              0.0679
 Quadrupole moment (field-independent basis, Debye-Ang):
   XX=             -8.3304   YY=             -8.5002   ZZ=             -8.6214
   XY=             -0.2457   XZ=             -0.0711   YZ=             -0.0951

 Normal termination of Gaussian 16 at Fri Sep 22 17:14:39 2023.
