 Gaussian 16, Revision A.03,
 Gaussian 16:  ES64L-G16RevA.03 25-Dec-2016

 ----------
 # hf/3-21g
 ----------

 -----------------------
 tmpdir/M2_conf_10_5.gjf
 -----------------------
 Symbolic Z-matrix:
 Charge =  0 Multiplicity = 1

                         Standard orientation:
 ---------------------------------------------------------------------
 Center     Atomic      Atomic             Coordinates (Angstroms)
 Number     Number       Type             X           Y           Z
 ---------------------------------------------------------------------
      1          1           0        0.994814    0.306411   -0.341969
      2          6           0        0.026231   -0.024141   -0.018289
      3          1           0       -0.643554   -0.493876   -0.713521
      4          1           0        0.075045   -0.645011    0.856209
      5          1           0       -0.583689    0.977323    0.309015
 ---------------------------------------------------------------------

 SCF Done:  E(RHF) =  -39.9642973744     A.U. after    9 cycles

 The electronic state is 1-A.
 Alpha  occ. eigenvalues --  -11.15745  -0.93815  -0.57135  -0.54538  -0.49787
 Alpha virt. eigenvalues --    0.28329   0.31884   0.35190   0.36260   0.90867
 Alpha virt. eigenvalues --    0.93738   0.97379   1.25261   1.31842   1.35957
 Alpha virt. eigenvalues --    1.38492   1.94629

 Mulliken charges:
               1
     1  H    0.209719
     2  C   -0.774965
     3  H    0.209445
     4  H    0.206039
     5  H    0.149762
 Sum of Mulliken charges =   0.00000

 Dipole moment (field-independent basis, Debye):
    X=             -0.0057    Y=             -0.0680    Z=              0.0114  Tot=              0.0692
 Quadrupole moment (field-independent basis, Debye-Ang):
   XX=             -8.2432   YY=             -8.5658   ZZ=             -8.6450
   XY=              0.2182   XZ=              0.0587   YZ=             -0.1092

 Normal termination of Gaussian 16 at Fri Sep 22 17:14:22 2023.
