 Gaussian 16, Revision A.03,
 Gaussian 16:  ES64L-G16RevA.03 25-Dec-2016

 ----------
 # hf/3-21g
 ----------

 ------------------------
 tmpdir/M2_conf_245_6.gjf
 ------------------------
 Symbolic Z-matrix:
 Charge =  0 Multiplicity = 1

                         Standard orientation:
 ---------------------------------------------------------------------
 Center     Atomic      Atomic             Coordinates (Angstroms)
 Number     Number       Type             X           Y           Z
 ---------------------------------------------------------------------
      1          1           0       -0.994288   -0.001344    1.038382
      2          6           0       -1.206311    0.000030   -0.013869
      3         17           0        0.685587    0.000015   -0.017243
      4          1           0       -1.711257    0.893148   -0.330067
      5          1           0       -1.711569   -0.892231   -0.331977
 ---------------------------------------------------------------------

 SCF Done:  E(RHF) =  -496.654293611     A.U. after   11 cycles

 The electronic state is 1-A.
 Alpha  occ. eigenvalues -- -104.09186 -11.24774 -10.48622  -7.94988  -7.94578
 Alpha  occ. eigenvalues --   -7.94566  -1.12325  -0.93085  -0.64355  -0.63098
 Alpha  occ. eigenvalues --   -0.50521  -0.44369  -0.42604
 Alpha virt. eigenvalues --    0.14813   0.27758   0.31507   0.31620   0.74134
 Alpha virt. eigenvalues --    0.79172   0.80748   0.85038   0.93353   0.96706
 Alpha virt. eigenvalues --    1.01794   1.28924   1.31212   1.31988   1.87306

 Mulliken charges:
               1
     1  H    0.286759
     2  C   -0.708100
     3  Cl  -0.111059
     4  H    0.266205
     5  H    0.266195
 Sum of Mulliken charges =  -0.00000

 Dipole moment (field-independent basis, Debye):
    X=             -2.7383    Y=             -0.0003    Z=              0.2895  Tot=              2.7536
 Quadrupole moment (field-independent basis, Debye-Ang):
   XX=            -18.5132   YY=            -20.1740   ZZ=            -20.5839
   XY=             -0.0005   XZ=              0.6366   YZ=             -0.0001

 Normal termination of Gaussian 16 at Fri Sep 22 17:20:21 2023.
