 Gaussian 16, Revision A.03,
 Gaussian 16:  ES64L-G16RevA.03 25-Dec-2016

 ----------
 # hf/3-21g
 ----------

 -----------------------
 tmpdir/M2_conf_93_2.gjf
 -----------------------
 Symbolic Z-matrix:
 Charge =  0 Multiplicity = 1

                         Standard orientation:
 ---------------------------------------------------------------------
 Center     Atomic      Atomic             Coordinates (Angstroms)
 Number     Number       Type             X           Y           Z
 ---------------------------------------------------------------------
      1          6           0        0.030673   -0.005386   -0.000014
      2          1           0        0.452214    1.003843   -0.012650
      3          1           0        0.274231   -0.540697    0.897940
      4          1           0        0.268628   -0.561345   -0.887093
      5          1           0       -1.179114    0.130515    0.001885
 ---------------------------------------------------------------------

 SCF Done:  E(RHF) =  -39.9668479880     A.U. after    9 cycles

 The electronic state is 1-A.
 Alpha  occ. eigenvalues --  -11.15962  -0.93557  -0.55671  -0.55203  -0.50256
 Alpha virt. eigenvalues --    0.28241   0.32083   0.35284   0.35689   0.91871
 Alpha virt. eigenvalues --    0.92793   0.97739   1.24961   1.31511   1.35859
 Alpha virt. eigenvalues --    1.36897   1.94409

 Mulliken charges:
               1
     1  C   -0.767737
     2  H    0.201200
     3  H    0.207197
     4  H    0.207149
     5  H    0.152191
 Sum of Mulliken charges =  -0.00000

 Dipole moment (field-independent basis, Debye):
    X=              0.0633    Y=             -0.0197    Z=              0.0001  Tot=              0.0663
 Quadrupole moment (field-independent basis, Debye-Ang):
   XX=             -8.6713   YY=             -8.3996   ZZ=             -8.4100
   XY=              0.0346   XZ=              0.0012   YZ=              0.0003

 Normal termination of Gaussian 16 at Fri Sep 22 17:16:26 2023.
