 Gaussian 16, Revision A.03,
 Gaussian 16:  ES64L-G16RevA.03 25-Dec-2016

 ----------
 # hf/3-21g
 ----------

 ------------------------
 tmpdir/M2_conf_124_1.gjf
 ------------------------
 Symbolic Z-matrix:
 Charge =  0 Multiplicity = 1

                         Standard orientation:
 ---------------------------------------------------------------------
 Center     Atomic      Atomic             Coordinates (Angstroms)
 Number     Number       Type             X           Y           Z
 ---------------------------------------------------------------------
      1          6           0       -0.027418   -0.013845    0.000059
      2          1           0       -0.670730    0.899786   -0.003294
      3          1           0       -0.144335   -0.595270    0.894741
      4          1           0       -0.144635   -0.602339   -0.890189
      5          1           0        1.124206    0.380889   -0.001611
 ---------------------------------------------------------------------

 SCF Done:  E(RHF) =  -39.9660803448     A.U. after    9 cycles

 The electronic state is 1-A.
 Alpha  occ. eigenvalues --  -11.16236  -0.93322  -0.55707  -0.54713  -0.50230
 Alpha virt. eigenvalues --    0.28131   0.31868   0.34866   0.35687   0.91816
 Alpha virt. eigenvalues --    0.93733   0.97951   1.24802   1.30114   1.35073
 Alpha virt. eigenvalues --    1.36836   1.94141

 Mulliken charges:
               1
     1  C   -0.763974
     2  H    0.194901
     3  H    0.207996
     4  H    0.207941
     5  H    0.153135
 Sum of Mulliken charges =   0.00000

 Dipole moment (field-independent basis, Debye):
    X=             -0.0461    Y=             -0.0452    Z=              0.0003  Tot=              0.0646
 Quadrupole moment (field-independent basis, Debye-Ang):
   XX=             -8.6620   YY=             -8.4350   ZZ=             -8.4331
   XY=             -0.0955   XZ=              0.0004   YZ=              0.0003

 Normal termination of Gaussian 16 at Fri Sep 22 17:17:12 2023.
