 Gaussian 16, Revision A.03,
 Gaussian 16:  ES64L-G16RevA.03 25-Dec-2016

 ----------
 # hf/3-21g
 ----------

 ------------------------
 tmpdir/M2_conf_254_2.gjf
 ------------------------
 Symbolic Z-matrix:
 Charge =  0 Multiplicity = 1

                         Standard orientation:
 ---------------------------------------------------------------------
 Center     Atomic      Atomic             Coordinates (Angstroms)
 Number     Number       Type             X           Y           Z
 ---------------------------------------------------------------------
      1          6           0        0.032231    0.000014    0.009185
      2          1           0        0.193175   -0.004680    1.017207
      3          1           0        0.396732   -0.889301   -0.468786
      4          1           0        0.392302    0.895834   -0.460364
      5          1           0       -1.175594   -0.001938   -0.143169
 ---------------------------------------------------------------------

 SCF Done:  E(RHF) =  -39.9642782677     A.U. after    9 cycles

 The electronic state is 1-A.
 Alpha  occ. eigenvalues --  -11.15109  -0.94426  -0.56792  -0.55563  -0.50286
 Alpha virt. eigenvalues --    0.28467   0.32495   0.35686   0.36849   0.89521
 Alpha virt. eigenvalues --    0.92041   0.97548   1.25282   1.33740   1.37053
 Alpha virt. eigenvalues --    1.41493   1.95384

 Mulliken charges:
               1
     1  C   -0.777127
     2  H    0.219239
     3  H    0.204434
     4  H    0.204388
     5  H    0.149066
 Sum of Mulliken charges =  -0.00000

 Dipole moment (field-independent basis, Debye):
    X=              0.0803    Y=             -0.0001    Z=              0.0389  Tot=              0.0892
 Quadrupole moment (field-independent basis, Debye-Ang):
   XX=             -8.6016   YY=             -8.3375   ZZ=             -8.3821
   XY=             -0.0011   XZ=             -0.0355   YZ=             -0.0005

 Normal termination of Gaussian 16 at Fri Sep 22 17:20:34 2023.
