 Gaussian 16, Revision A.03,
 Gaussian 16:  ES64L-G16RevA.03 25-Dec-2016

 ----------
 # hf/3-21g
 ----------

 -----------------------
 tmpdir/M2_conf_16_4.gjf
 -----------------------
 Symbolic Z-matrix:
 Charge =  0 Multiplicity = 1

                         Standard orientation:
 ---------------------------------------------------------------------
 Center     Atomic      Atomic             Coordinates (Angstroms)
 Number     Number       Type             X           Y           Z
 ---------------------------------------------------------------------
      1          1           0       -1.055306    0.047640   -0.318714
      2          6           0       -0.025236   -0.029303   -0.026782
      3          1           0        0.790007   -0.239707   -0.692908
      4          1           0        0.119166   -0.704898    0.794999
      5          1           0        0.297551    1.072781    0.377312
 ---------------------------------------------------------------------

 SCF Done:  E(RHF) =  -39.9604843344     A.U. after    9 cycles

 The electronic state is 1-A.
 Alpha  occ. eigenvalues --  -11.15764  -0.93882  -0.58025  -0.53937  -0.49344
 Alpha virt. eigenvalues --    0.28305   0.31488   0.34918   0.36593   0.90366
 Alpha virt. eigenvalues --    0.95230   0.97300   1.25335   1.31389   1.35526
 Alpha virt. eigenvalues --    1.39522   1.94524

 Mulliken charges:
               1
     1  H    0.212965
     2  C   -0.781456
     3  H    0.213332
     4  H    0.206154
     5  H    0.149005
 Sum of Mulliken charges =   0.00000

 Dipole moment (field-independent basis, Debye):
    X=              0.0489    Y=             -0.0649    Z=              0.0256  Tot=              0.0852
 Quadrupole moment (field-independent basis, Debye-Ang):
   XX=             -7.9926   YY=             -8.6580   ZZ=             -8.8190
   XY=             -0.1190   XZ=             -0.0307   YZ=             -0.1467

 Normal termination of Gaussian 16 at Fri Sep 22 17:14:31 2023.
