 Gaussian 16, Revision A.03,
 Gaussian 16:  ES64L-G16RevA.03 25-Dec-2016

 ----------
 # hf/3-21g
 ----------

 -----------------------
 tmpdir/M2_conf_16_2.gjf
 -----------------------
 Symbolic Z-matrix:
 Charge =  0 Multiplicity = 1

                         Standard orientation:
 ---------------------------------------------------------------------
 Center     Atomic      Atomic             Coordinates (Angstroms)
 Number     Number       Type             X           Y           Z
 ---------------------------------------------------------------------
      1          6           0        0.016991   -0.025218   -0.000015
      2          1           0        0.996859    0.575205   -0.003474
      3          1           0       -0.104282   -0.607714    0.893400
      4          1           0       -0.110259   -0.609374   -0.891750
      5          1           0       -0.884265    0.793190    0.001914
 ---------------------------------------------------------------------

 SCF Done:  E(RHF) =  -39.9640932299     A.U. after    9 cycles

 The electronic state is 1-A.
 Alpha  occ. eigenvalues --  -11.16604  -0.93036  -0.55768  -0.54070  -0.50174
 Alpha virt. eigenvalues --    0.27937   0.31507   0.34396   0.35688   0.91755
 Alpha virt. eigenvalues --    0.94736   0.98493   1.24462   1.28145   1.34450
 Alpha virt. eigenvalues --    1.36756   1.93789

 Mulliken charges:
               1
     1  C   -0.758365
     2  H    0.186083
     3  H    0.208993
     4  H    0.208943
     5  H    0.154346
 Sum of Mulliken charges =  -0.00000

 Dipole moment (field-independent basis, Debye):
    X=              0.0021    Y=             -0.0699    Z=              0.0001  Tot=              0.0700
 Quadrupole moment (field-independent basis, Debye-Ang):
   XX=             -8.5699   YY=             -8.5627   ZZ=             -8.4621
   XY=              0.1585   XZ=              0.0011   YZ=             -0.0005

 Normal termination of Gaussian 16 at Fri Sep 22 17:14:31 2023.
