 Gaussian 16, Revision A.03,
 Gaussian 16:  ES64L-G16RevA.03 25-Dec-2016

 ----------
 # hf/3-21g
 ----------

 -----------------------
 tmpdir/M2_conf_69_0.gjf
 -----------------------
 Symbolic Z-matrix:
 Charge =  0 Multiplicity = 1

                         Standard orientation:
 ---------------------------------------------------------------------
 Center     Atomic      Atomic             Coordinates (Angstroms)
 Number     Number       Type             X           Y           Z
 ---------------------------------------------------------------------
      1          6           0       -0.029063   -0.010333   -0.000056
      2          1           0       -0.576226    0.953592   -0.003421
      3          1           0       -0.199796   -0.582791   -0.892113
      4          1           0       -0.205132   -0.579184    0.893259
      5          1           0        1.155532    0.270381    0.002609
 ---------------------------------------------------------------------

 SCF Done:  E(RHF) =  -39.9664521687     A.U. after    9 cycles

 The electronic state is 1-A.
 Alpha  occ. eigenvalues --  -11.16134  -0.93407  -0.55694  -0.54893  -0.50241
 Alpha virt. eigenvalues --    0.28175   0.31956   0.35015   0.35686   0.91847
 Alpha virt. eigenvalues --    0.93386   0.97857   1.24867   1.30669   1.35313
 Alpha virt. eigenvalues --    1.36854   1.94239

 Mulliken charges:
               1
     1  C   -0.765418
     2  H    0.197327
     3  H    0.207653
     4  H    0.207650
     5  H    0.152788
 Sum of Mulliken charges =   0.00000

 Dipole moment (field-independent basis, Debye):
    X=             -0.0542    Y=             -0.0352    Z=             -0.0001  Tot=              0.0647
 Quadrupole moment (field-independent basis, Debye-Ang):
   XX=             -8.6710   YY=             -8.4170   ZZ=             -8.4238
   XY=             -0.0697   XZ=             -0.0012   YZ=             -0.0000

 Normal termination of Gaussian 16 at Fri Sep 22 17:15:50 2023.
