 Gaussian 16, Revision A.03,
 Gaussian 16:  ES64L-G16RevA.03 25-Dec-2016

 ----------
 # hf/3-21g
 ----------

 ------------------------
 tmpdir/M2_conf_235_0.gjf
 ------------------------
 Symbolic Z-matrix:
 Charge =  0 Multiplicity = 1

                         Standard orientation:
 ---------------------------------------------------------------------
 Center     Atomic      Atomic             Coordinates (Angstroms)
 Number     Number       Type             X           Y           Z
 ---------------------------------------------------------------------
      1          6           0       -0.032242    0.000055    0.011276
      2          1           0       -0.171171   -0.001617    1.007433
      3          1           0       -0.401422    0.894638   -0.453538
      4          1           0       -0.406328   -0.890736   -0.456865
      5          1           0        1.172375   -0.002618   -0.164684
 ---------------------------------------------------------------------

 SCF Done:  E(RHF) =  -39.9626039788     A.U. after    9 cycles

 The electronic state is 1-A.
 Alpha  occ. eigenvalues --  -11.14938  -0.94631  -0.57121  -0.55542  -0.50288
 Alpha virt. eigenvalues --    0.28499   0.32546   0.35682   0.37193   0.88835
 Alpha virt. eigenvalues --    0.92086   0.97551   1.25331   1.33931   1.37071
 Alpha virt. eigenvalues --    1.43089   1.95634

 Mulliken charges:
               1
     1  C   -0.778590
     2  H    0.222652
     3  H    0.203773
     4  H    0.203767
     5  H    0.148397
 Sum of Mulliken charges =   0.00000

 Dipole moment (field-independent basis, Debye):
    X=             -0.0820    Y=              0.0002    Z=              0.0483  Tot=              0.0952
 Quadrupole moment (field-independent basis, Debye-Ang):
   XX=             -8.5849   YY=             -8.3221   ZZ=             -8.3804
   XY=              0.0012   XZ=              0.0407   YZ=             -0.0004

 Normal termination of Gaussian 16 at Fri Sep 22 17:20:05 2023.
