 Gaussian 16, Revision A.03,
 Gaussian 16:  ES64L-G16RevA.03 25-Dec-2016

 ----------
 # hf/3-21g
 ----------

 ------------------------
 tmpdir/M2_conf_300_6.gjf
 ------------------------
 Symbolic Z-matrix:
 Charge =  0 Multiplicity = 1

                         Standard orientation:
 ---------------------------------------------------------------------
 Center     Atomic      Atomic             Coordinates (Angstroms)
 Number     Number       Type             X           Y           Z
 ---------------------------------------------------------------------
      1          1           0       -1.519775   -0.182313    1.009423
      2          6           0       -1.202363   -0.000044    0.000357
      3         17           0        0.689537   -0.000136    0.000680
      4          1           0       -1.493842    0.970935   -0.352986
      5          1           0       -1.494330   -0.786051   -0.670133
 ---------------------------------------------------------------------

 SCF Done:  E(RHF) =  -496.689446890     A.U. after   11 cycles

 The electronic state is 1-A.
 Alpha  occ. eigenvalues -- -104.08773 -11.25001 -10.48162  -7.94537  -7.94133
 Alpha  occ. eigenvalues --   -7.94133  -1.11281  -0.93337  -0.63251  -0.63240
 Alpha  occ. eigenvalues --   -0.51322  -0.43736  -0.43717
 Alpha virt. eigenvalues --    0.16604   0.27332   0.31373   0.31384   0.73825
 Alpha virt. eigenvalues --    0.80627   0.80736   0.85500   0.93549   0.93774
 Alpha virt. eigenvalues --    0.99531   1.31221   1.31232   1.32198   1.92003

 Mulliken charges:
               1
     1  H    0.269323
     2  C   -0.702627
     3  Cl  -0.107053
     4  H    0.270190
     5  H    0.270167
 Sum of Mulliken charges =  -0.00000

 Dipole moment (field-independent basis, Debye):
    X=             -2.8662    Y=              0.0017    Z=             -0.0088  Tot=              2.8662
 Quadrupole moment (field-independent basis, Debye-Ang):
   XX=            -18.5701   YY=            -20.1795   ZZ=            -20.1818
   XY=              0.0052   XZ=             -0.0256   YZ=              0.0000

 Normal termination of Gaussian 16 at Fri Sep 22 17:21:49 2023.
