 Gaussian 16, Revision A.03,
 Gaussian 16:  ES64L-G16RevA.03 25-Dec-2016

 ----------
 # hf/3-21g
 ----------

 -----------------------
 tmpdir/M2_conf_44_3.gjf
 -----------------------
 Symbolic Z-matrix:
 Charge =  0 Multiplicity = 1

                         Standard orientation:
 ---------------------------------------------------------------------
 Center     Atomic      Atomic             Coordinates (Angstroms)
 Number     Number       Type             X           Y           Z
 ---------------------------------------------------------------------
      1          6           0       -1.226026    0.000019    0.000011
      2         17           0        0.702074   -0.000014   -0.000003
      3          1           0       -1.526393   -0.278183    0.992269
      4          1           0       -1.526070    0.998731   -0.255257
      5          1           0       -1.526643   -0.720421   -0.737021
 ---------------------------------------------------------------------

 SCF Done:  E(RHF) =  -496.689066988     A.U. after   10 cycles

 The electronic state is 1-A.
 Alpha  occ. eigenvalues -- -104.08775 -11.25394 -10.48070  -7.94438  -7.94051
 Alpha  occ. eigenvalues --   -7.94051  -1.10410  -0.93704  -0.63192  -0.63187
 Alpha  occ. eigenvalues --   -0.50695  -0.43696  -0.43695
 Alpha virt. eigenvalues --    0.15372   0.27186   0.31342   0.31346   0.73745
 Alpha virt. eigenvalues --    0.80513   0.80517   0.85499   0.93645   0.93656
 Alpha virt. eigenvalues --    1.00491   1.31066   1.31075   1.31766   1.90827

 Mulliken charges:
               1
     1  C   -0.679897
     2  Cl  -0.129895
     3  H    0.269955
     4  H    0.269932
     5  H    0.269904
 Sum of Mulliken charges =   0.00000

 Dipole moment (field-independent basis, Debye):
    X=             -2.9917    Y=              0.0001    Z=              0.0001  Tot=              2.9917
 Quadrupole moment (field-independent basis, Debye-Ang):
   XX=            -18.3423   YY=            -20.2109   ZZ=            -20.2122
   XY=              0.0007   XZ=             -0.0001   YZ=             -0.0001

 Normal termination of Gaussian 16 at Fri Sep 22 17:15:13 2023.
