 Gaussian 16, Revision A.03,
 Gaussian 16:  ES64L-G16RevA.03 25-Dec-2016

 ----------
 # hf/3-21g
 ----------

 -----------------------
 tmpdir/M2_conf_47_8.gjf
 -----------------------
 Symbolic Z-matrix:
 Charge =  0 Multiplicity = 1

                         Standard orientation:
 ---------------------------------------------------------------------
 Center     Atomic      Atomic             Coordinates (Angstroms)
 Number     Number       Type             X           Y           Z
 ---------------------------------------------------------------------
      1          1           0        1.525084   -0.834949   -0.593577
      2          6           0        1.202374   -0.000403   -0.000274
      3         17           0       -0.689532   -0.000739   -0.000530
      4          1           0        1.491289   -0.092285    1.029417
      5          1           0        1.491427    0.942209   -0.425186
 ---------------------------------------------------------------------

 SCF Done:  E(RHF) =  -496.689420666     A.U. after   11 cycles

 The electronic state is 1-A.
 Alpha  occ. eigenvalues -- -104.08773 -11.25001 -10.48162  -7.94537  -7.94133
 Alpha  occ. eigenvalues --   -7.94133  -1.11281  -0.93336  -0.63252  -0.63241
 Alpha  occ. eigenvalues --   -0.51321  -0.43739  -0.43714
 Alpha virt. eigenvalues --    0.16602   0.27332   0.31373   0.31384   0.73826
 Alpha virt. eigenvalues --    0.80612   0.80751   0.85501   0.93500   0.93822
 Alpha virt. eigenvalues --    0.99535   1.31208   1.31237   1.32203   1.91999

 Mulliken charges:
               1
     1  H    0.269105
     2  C   -0.702636
     3  Cl  -0.107062
     4  H    0.270320
     5  H    0.270272
 Sum of Mulliken charges =  -0.00000

 Dipole moment (field-independent basis, Debye):
    X=              2.8662    Y=              0.0097    Z=              0.0071  Tot=              2.8662
 Quadrupole moment (field-independent basis, Debye-Ang):
   XX=            -18.5701   YY=            -20.1806   ZZ=            -20.1810
   XY=             -0.0276   XZ=             -0.0195   YZ=             -0.0003

 Normal termination of Gaussian 16 at Fri Sep 22 17:15:17 2023.
