 Gaussian 16, Revision A.03,
 Gaussian 16:  ES64L-G16RevA.03 25-Dec-2016

 ----------
 # hf/3-21g
 ----------

 ------------------------
 tmpdir/M2_conf_198_7.gjf
 ------------------------
 Symbolic Z-matrix:
 Charge =  0 Multiplicity = 1

                         Standard orientation:
 ---------------------------------------------------------------------
 Center     Atomic      Atomic             Coordinates (Angstroms)
 Number     Number       Type             X           Y           Z
 ---------------------------------------------------------------------
      1          1           0        0.521333   -0.104571    0.913363
      2          6           0        0.004660    0.026706   -0.018534
      3          1           0        0.812763   -0.229727   -0.677187
      4          1           0       -0.480383    0.981713   -0.088310
      5          1           0       -0.881671   -0.807649   -0.036660
 ---------------------------------------------------------------------

 SCF Done:  E(RHF) =  -39.9606082583     A.U. after    9 cycles

 The electronic state is 1-A.
 Alpha  occ. eigenvalues --  -11.15728  -0.93953  -0.57898  -0.52538  -0.50764
 Alpha virt. eigenvalues --    0.28120   0.32308   0.34526   0.36430   0.90106
 Alpha virt. eigenvalues --    0.94048   0.98909   1.24657   1.32387   1.34639
 Alpha virt. eigenvalues --    1.39814   1.93683

 Mulliken charges:
               1
     1  H    0.203408
     2  C   -0.777431
     3  H    0.207986
     4  H    0.209987
     5  H    0.156050
 Sum of Mulliken charges =  -0.00000

 Dipole moment (field-independent basis, Debye):
    X=              0.1318    Y=              0.0298    Z=              0.0946  Tot=              0.1650
 Quadrupole moment (field-independent basis, Debye-Ang):
   XX=             -8.0979   YY=             -8.4410   ZZ=             -8.9053
   XY=             -0.2379   XZ=             -0.0244   YZ=             -0.0145

 Normal termination of Gaussian 16 at Fri Sep 22 17:19:09 2023.
