 Gaussian 16, Revision A.03,
 Gaussian 16:  ES64L-G16RevA.03 25-Dec-2016

 ----------
 # hf/3-21g
 ----------

 ------------------------
 tmpdir/M2_conf_171_6.gjf
 ------------------------
 Symbolic Z-matrix:
 Charge =  0 Multiplicity = 1

                         Standard orientation:
 ---------------------------------------------------------------------
 Center     Atomic      Atomic             Coordinates (Angstroms)
 Number     Number       Type             X           Y           Z
 ---------------------------------------------------------------------
      1          1           0       -1.134618   -0.002297    1.062303
      2          6           0       -1.204441    0.000034   -0.008821
      3         17           0        0.687456    0.000020   -0.013435
      4          1           0       -1.662559    0.893568   -0.388736
      5          1           0       -1.662928   -0.891809   -0.392247
 ---------------------------------------------------------------------

 SCF Done:  E(RHF) =  -496.671916088     A.U. after   11 cycles

 The electronic state is 1-A.
 Alpha  occ. eigenvalues -- -104.08964 -11.24914 -10.48370  -7.94740  -7.94334
 Alpha  occ. eigenvalues --   -7.94328  -1.11769  -0.93213  -0.63869  -0.63150
 Alpha  occ. eigenvalues --   -0.50801  -0.44088  -0.43152
 Alpha virt. eigenvalues --    0.15619   0.27493   0.31425   0.31521   0.74020
 Alpha virt. eigenvalues --    0.79603   0.80970   0.85478   0.92621   0.95968
 Alpha virt. eigenvalues --    1.01012   1.29898   1.31167   1.32279   1.89454

 Mulliken charges:
               1
     1  H    0.282457
     2  C   -0.706147
     3  Cl  -0.108623
     4  H    0.266163
     5  H    0.266149
 Sum of Mulliken charges =  -0.00000

 Dipole moment (field-independent basis, Debye):
    X=             -2.8072    Y=             -0.0004    Z=              0.2055  Tot=              2.8147
 Quadrupole moment (field-independent basis, Debye-Ang):
   XX=            -18.5279   YY=            -20.1809   ZZ=            -20.3928
   XY=             -0.0007   XZ=              0.4998   YZ=             -0.0001

 Normal termination of Gaussian 16 at Fri Sep 22 17:18:24 2023.
