 Gaussian 16, Revision A.03,
 Gaussian 16:  ES64L-G16RevA.03 25-Dec-2016

 ----------
 # hf/3-21g
 ----------

 ------------------------
 tmpdir/M2_conf_163_5.gjf
 ------------------------
 Symbolic Z-matrix:
 Charge =  0 Multiplicity = 1

                         Standard orientation:
 ---------------------------------------------------------------------
 Center     Atomic      Atomic             Coordinates (Angstroms)
 Number     Number       Type             X           Y           Z
 ---------------------------------------------------------------------
      1          1           0       -0.356593   -0.306047    0.971796
      2          6           0       -0.029728    0.005919   -0.001869
      3          1           0       -0.441882   -0.631191   -0.761371
      4          1           0       -0.200703    1.051197   -0.177289
      5          1           0        1.177546   -0.149474   -0.021923
 ---------------------------------------------------------------------

 SCF Done:  E(RHF) =  -39.9669670235     A.U. after    9 cycles

 The electronic state is 1-A.
 Alpha  occ. eigenvalues --  -11.15723  -0.93780  -0.55920  -0.55258  -0.50357
 Alpha virt. eigenvalues --    0.28307   0.32274   0.35542   0.35805   0.91565
 Alpha virt. eigenvalues --    0.92212   0.97732   1.25016   1.32560   1.36584
 Alpha virt. eigenvalues --    1.37236   1.94614

 Mulliken charges:
               1
     1  H    0.205962
     2  C   -0.770639
     3  H    0.206188
     4  H    0.206659
     5  H    0.151830
 Sum of Mulliken charges =  -0.00000

 Dipole moment (field-independent basis, Debye):
    X=             -0.0763    Y=              0.0026    Z=              0.0117  Tot=              0.0773
 Quadrupole moment (field-independent basis, Debye-Ang):
   XX=             -8.6261   YY=             -8.3553   ZZ=             -8.4543
   XY=              0.0608   XZ=              0.0113   YZ=             -0.0008

 Normal termination of Gaussian 16 at Fri Sep 22 17:18:11 2023.
