 Gaussian 16, Revision A.03,
 Gaussian 16:  ES64L-G16RevA.03 25-Dec-2016

 ----------
 # hf/3-21g
 ----------

 ------------------------
 tmpdir/M2_conf_199_8.gjf
 ------------------------
 Symbolic Z-matrix:
 Charge =  0 Multiplicity = 1

                         Standard orientation:
 ---------------------------------------------------------------------
 Center     Atomic      Atomic             Coordinates (Angstroms)
 Number     Number       Type             X           Y           Z
 ---------------------------------------------------------------------
      1          1           0       -0.643284   -0.000118    0.874412
      2          6           0       -1.213946   -0.000015   -0.034962
      3         17           0        0.677902    0.000012   -0.021083
      4          1           0       -1.798522   -0.892470   -0.153174
      5          1           0       -1.798859    0.892480   -0.153055
 ---------------------------------------------------------------------

 SCF Done:  E(RHF) =  -496.565744966     A.U. after   12 cycles

 The electronic state is 1-A.
 Alpha  occ. eigenvalues -- -104.10607 -11.23414 -10.50347  -7.96700  -7.96250
 Alpha  occ. eigenvalues --   -7.96199  -1.16000  -0.92304  -0.66284  -0.62569
 Alpha  occ. eigenvalues --   -0.51029  -0.46000  -0.39174
 Alpha virt. eigenvalues --    0.12105   0.29722   0.32227   0.32304   0.73969
 Alpha virt. eigenvalues --    0.77700   0.80070   0.84513   0.93466   0.98197
 Alpha virt. eigenvalues --    1.03409   1.23085   1.31134   1.31890   1.81656

 Mulliken charges:
               1
     1  H    0.295201
     2  C   -0.728190
     3  Cl  -0.105567
     4  H    0.269297
     5  H    0.269258
 Sum of Mulliken charges =  -0.00000

 Dipole moment (field-independent basis, Debye):
    X=             -2.2281    Y=             -0.0002    Z=              0.5533  Tot=              2.2957
 Quadrupole moment (field-independent basis, Debye-Ang):
   XX=            -18.6894   YY=            -20.0880   ZZ=            -21.3031
   XY=             -0.0003   XZ=              0.6568   YZ=              0.0000

 Normal termination of Gaussian 16 at Fri Sep 22 17:19:11 2023.
