 Gaussian 16, Revision A.03,
 Gaussian 16:  ES64L-G16RevA.03 25-Dec-2016

 ----------
 # hf/3-21g
 ----------

 ------------------------
 tmpdir/M2_conf_174_3.gjf
 ------------------------
 Symbolic Z-matrix:
 Charge =  0 Multiplicity = 1

                         Standard orientation:
 ---------------------------------------------------------------------
 Center     Atomic      Atomic             Coordinates (Angstroms)
 Number     Number       Type             X           Y           Z
 ---------------------------------------------------------------------
      1          6           0       -1.637883    0.000013    0.000009
      2         17           0        0.920117   -0.000011   -0.000002
      3          1           0       -1.938252   -0.278190    0.992267
      4          1           0       -1.937935    0.998723   -0.255260
      5          1           0       -1.938493   -0.720431   -0.737022
 ---------------------------------------------------------------------

 SCF Done:  E(RHF) =  -496.620851074     A.U. after   10 cycles

 The electronic state is 1-A.
 Alpha  occ. eigenvalues -- -104.06263 -11.31592 -10.44886  -7.91202  -7.90965
 Alpha  occ. eigenvalues --   -7.90965  -1.02378  -0.97893  -0.65669  -0.65664
 Alpha  occ. eigenvalues --   -0.41153  -0.40842  -0.40842
 Alpha virt. eigenvalues --    0.00621   0.24517   0.29345   0.29348   0.73127
 Alpha virt. eigenvalues --    0.78667   0.78673   0.90170   0.92613   0.92621
 Alpha virt. eigenvalues --    0.97793   1.25135   1.27182   1.27192   1.77602

 Mulliken charges:
               1
     1  C   -0.421379
     2  Cl  -0.407869
     3  H    0.276427
     4  H    0.276427
     5  H    0.276394
 Sum of Mulliken charges =   0.00000

 Dipole moment (field-independent basis, Debye):
    X=             -5.6412    Y=              0.0001    Z=              0.0001  Tot=              5.6412
 Quadrupole moment (field-independent basis, Debye-Ang):
   XX=            -13.9345   YY=            -20.4250   ZZ=            -20.4264
   XY=              0.0004   XZ=             -0.0001   YZ=             -0.0001

 Normal termination of Gaussian 16 at Fri Sep 22 17:18:29 2023.
