 Gaussian 16, Revision A.03,
 Gaussian 16:  ES64L-G16RevA.03 25-Dec-2016

 ----------
 # hf/3-21g
 ----------

 -----------------------
 tmpdir/M2_conf_99_7.gjf
 -----------------------
 Symbolic Z-matrix:
 Charge =  0 Multiplicity = 1

                         Standard orientation:
 ---------------------------------------------------------------------
 Center     Atomic      Atomic             Coordinates (Angstroms)
 Number     Number       Type             X           Y           Z
 ---------------------------------------------------------------------
      1          1           0       -0.720131    0.744943   -0.347748
      2          6           0       -0.033273   -0.010026   -0.014785
      3          1           0        0.282183   -0.758855   -0.716463
      4          1           0       -0.361248   -0.496005    0.884343
      5          1           0        0.998835    0.570074    0.268579
 ---------------------------------------------------------------------

 SCF Done:  E(RHF) =  -39.9652653777     A.U. after    9 cycles

 The electronic state is 1-A.
 Alpha  occ. eigenvalues --  -11.15739  -0.93799  -0.56799  -0.54779  -0.49918
 Alpha virt. eigenvalues --    0.28331   0.31989   0.35304   0.36132   0.91075
 Alpha virt. eigenvalues --    0.93274   0.97422   1.25221   1.31992   1.36160
 Alpha virt. eigenvalues --    1.38124   1.94651

 Mulliken charges:
               1
     1  H    0.208742
     2  C   -0.773365
     3  H    0.208429
     4  H    0.206112
     5  H    0.150081
 Sum of Mulliken charges =  -0.00000

 Dipole moment (field-independent basis, Debye):
    X=             -0.0352    Y=             -0.0556    Z=              0.0072  Tot=              0.0662
 Quadrupole moment (field-independent basis, Debye-Ang):
   XX=             -8.5312   YY=             -8.3351   ZZ=             -8.5829
   XY=             -0.2210   XZ=             -0.0923   YZ=             -0.0574

 Normal termination of Gaussian 16 at Fri Sep 22 17:16:35 2023.
