 Gaussian 16, Revision A.03,
 Gaussian 16:  ES64L-G16RevA.03 25-Dec-2016

 ----------
 # hf/3-21g
 ----------

 ------------------------
 tmpdir/M2_conf_117_1.gjf
 ------------------------
 Symbolic Z-matrix:
 Charge =  0 Multiplicity = 1

                         Standard orientation:
 ---------------------------------------------------------------------
 Center     Atomic      Atomic             Coordinates (Angstroms)
 Number     Number       Type             X           Y           Z
 ---------------------------------------------------------------------
      1          6           0       -0.018282   -0.024330    0.000059
      2          1           0       -0.970120    0.612986   -0.002028
      3          1           0        0.082096   -0.609797    0.894114
      4          1           0        0.082941   -0.614830   -0.890823
      5          1           0        0.914778    0.757623   -0.001616
 ---------------------------------------------------------------------

 SCF Done:  E(RHF) =  -39.9643751823     A.U. after    9 cycles

 The electronic state is 1-A.
 Alpha  occ. eigenvalues --  -11.16561  -0.93067  -0.55758  -0.54148  -0.50181
 Alpha virt. eigenvalues --    0.27964   0.31551   0.34447   0.35686   0.91758
 Alpha virt. eigenvalues --    0.94644   0.98408   1.24515   1.28362   1.34512
 Alpha virt. eigenvalues --    1.36763   1.93830

 Mulliken charges:
               1
     1  C   -0.759050
     2  H    0.187130
     3  H    0.208882
     4  H    0.208826
     5  H    0.154211
 Sum of Mulliken charges =   0.00000

 Dipole moment (field-independent basis, Debye):
    X=             -0.0076    Y=             -0.0684    Z=              0.0003  Tot=              0.0688
 Quadrupole moment (field-independent basis, Debye-Ang):
   XX=             -8.5818   YY=             -8.5462   ZZ=             -8.4593
   XY=             -0.1565   XZ=              0.0003   YZ=              0.0004

 Normal termination of Gaussian 16 at Fri Sep 22 17:17:02 2023.
