 Gaussian 16, Revision A.03,
 Gaussian 16:  ES64L-G16RevA.03 25-Dec-2016

 ----------
 # hf/3-21g
 ----------

 ------------------------
 tmpdir/M2_conf_117_7.gjf
 ------------------------
 Symbolic Z-matrix:
 Charge =  0 Multiplicity = 1

                         Standard orientation:
 ---------------------------------------------------------------------
 Center     Atomic      Atomic             Coordinates (Angstroms)
 Number     Number       Type             X           Y           Z
 ---------------------------------------------------------------------
      1          1           0       -0.798330    0.661772   -0.346912
      2          6           0       -0.032235   -0.013389   -0.015440
      3          1           0        0.372141   -0.719164   -0.716133
      4          1           0       -0.307184   -0.539486    0.878875
      5          1           0        0.926784    0.677214    0.276809
 ---------------------------------------------------------------------

 SCF Done:  E(RHF) =  -39.9651041753     A.U. after    9 cycles

 The electronic state is 1-A.
 Alpha  occ. eigenvalues --  -11.15740  -0.93802  -0.56860  -0.54735  -0.49895
 Alpha virt. eigenvalues --    0.28331   0.31971   0.35283   0.36155   0.91034
 Alpha virt. eigenvalues --    0.93358   0.97414   1.25229   1.31964   1.36124
 Alpha virt. eigenvalues --    1.38189   1.94647

 Mulliken charges:
               1
     1  H    0.208902
     2  C   -0.773629
     3  H    0.208599
     4  H    0.206106
     5  H    0.150022
 Sum of Mulliken charges =  -0.00000

 Dipole moment (field-independent basis, Debye):
    X=             -0.0273    Y=             -0.0602    Z=              0.0079  Tot=              0.0666
 Quadrupole moment (field-independent basis, Debye-Ang):
   XX=             -8.4741   YY=             -8.3816   ZZ=             -8.5943
   XY=             -0.2428   XZ=             -0.0877   YZ=             -0.0695

 Normal termination of Gaussian 16 at Fri Sep 22 17:17:02 2023.
