 Gaussian 16, Revision A.03,
 Gaussian 16:  ES64L-G16RevA.03 25-Dec-2016

 ----------
 # hf/3-21g
 ----------

 -----------------------
 tmpdir/M2_conf_77_9.gjf
 -----------------------
 Symbolic Z-matrix:
 Charge =  0 Multiplicity = 1

                         Standard orientation:
 ---------------------------------------------------------------------
 Center     Atomic      Atomic             Coordinates (Angstroms)
 Number     Number       Type             X           Y           Z
 ---------------------------------------------------------------------
      1          1           0        1.310273   -0.012747    1.064023
      2          6           0        1.202935    0.000056   -0.004122
      3         17           0       -0.688961    0.000084   -0.007488
      4          1           0        1.592348   -0.886985   -0.466412
      5          1           0        1.592109    0.897974   -0.445587
 ---------------------------------------------------------------------

 SCF Done:  E(RHF) =  -496.684843290     A.U. after   11 cycles

 The electronic state is 1-A.
 Alpha  occ. eigenvalues -- -104.08819 -11.24984 -10.48211  -7.94584  -7.94180
 Alpha  occ. eigenvalues --   -7.94179  -1.11401  -0.93304  -0.63450  -0.63192
 Alpha  occ. eigenvalues --   -0.51155  -0.43870  -0.43531
 Alpha virt. eigenvalues --    0.16318   0.27356   0.31375   0.31438   0.73886
 Alpha virt. eigenvalues --    0.80110   0.81045   0.85631   0.92560   0.94926
 Alpha virt. eigenvalues --    1.00066   1.30773   1.31179   1.32355   1.91304

 Mulliken charges:
               1
     1  H    0.276622
     2  C   -0.703982
     3  Cl  -0.107161
     4  H    0.267273
     5  H    0.267248
 Sum of Mulliken charges =  -0.00000

 Dipole moment (field-independent basis, Debye):
    X=              2.8516    Y=             -0.0013    Z=              0.1050  Tot=              2.8535
 Quadrupole moment (field-independent basis, Debye-Ang):
   XX=            -18.5554   YY=            -20.1832   ZZ=            -20.2374
   XY=              0.0029   XZ=             -0.2796   YZ=             -0.0001

 Normal termination of Gaussian 16 at Fri Sep 22 17:16:02 2023.
