 Gaussian 16, Revision A.03,
 Gaussian 16:  ES64L-G16RevA.03 25-Dec-2016

 ----------
 # hf/3-21g
 ----------

 ------------------------
 tmpdir/M2_conf_218_0.gjf
 ------------------------
 Symbolic Z-matrix:
 Charge =  0 Multiplicity = 1

                         Standard orientation:
 ---------------------------------------------------------------------
 Center     Atomic      Atomic             Coordinates (Angstroms)
 Number     Number       Type             X           Y           Z
 ---------------------------------------------------------------------
      1          6           0       -0.032101    0.000056    0.005672
      2          1           0       -0.235917   -0.003760    1.029270
      3          1           0       -0.373563    0.895705   -0.477899
      4          1           0       -0.378599   -0.889657   -0.485200
      5          1           0        1.180687   -0.002623   -0.100202
 ---------------------------------------------------------------------

 SCF Done:  E(RHF) =  -39.9660111467     A.U. after    9 cycles

 The electronic state is 1-A.
 Alpha  occ. eigenvalues --  -11.15378  -0.94128  -0.56285  -0.55592  -0.50282
 Alpha virt. eigenvalues --    0.28410   0.32397   0.35684   0.36329   0.90570
 Alpha virt. eigenvalues --    0.91994   0.97566   1.25196   1.33322   1.37000
 Alpha virt. eigenvalues --    1.39268   1.95039

 Mulliken charges:
               1
     1  C   -0.774530
     2  H    0.213841
     3  H    0.205304
     4  H    0.205299
     5  H    0.150085
 Sum of Mulliken charges =  -0.00000

 Dipole moment (field-independent basis, Debye):
    X=             -0.0770    Y=              0.0001    Z=              0.0237  Tot=              0.0806
 Quadrupole moment (field-independent basis, Debye-Ang):
   XX=             -8.6265   YY=             -8.3606   ZZ=             -8.3858
   XY=              0.0012   XZ=              0.0254   YZ=             -0.0004

 Normal termination of Gaussian 16 at Fri Sep 22 17:19:40 2023.
