 Gaussian 16, Revision A.03,
 Gaussian 16:  ES64L-G16RevA.03 25-Dec-2016

 ----------
 # hf/3-21g
 ----------

 ------------------------
 tmpdir/M2_conf_115_0.gjf
 ------------------------
 Symbolic Z-matrix:
 Charge =  0 Multiplicity = 1

                         Standard orientation:
 ---------------------------------------------------------------------
 Center     Atomic      Atomic             Coordinates (Angstroms)
 Number     Number       Type             X           Y           Z
 ---------------------------------------------------------------------
      1          6           0        0.024785   -0.017906    0.000056
      2          1           0        0.785030    0.814051    0.002253
      3          1           0        0.064474   -0.613084    0.892700
      4          1           0        0.069590   -0.612570   -0.892677
      5          1           0       -1.067805    0.519041   -0.002612
 ---------------------------------------------------------------------

 SCF Done:  E(RHF) =  -39.9655903453     A.U. after    9 cycles

 The electronic state is 1-A.
 Alpha  occ. eigenvalues --  -11.16350  -0.93229  -0.55726  -0.54510  -0.50217
 Alpha virt. eigenvalues --    0.28078   0.31768   0.34707   0.35686   0.91808
 Alpha virt. eigenvalues --    0.94070   0.98080   1.24718   1.29507   1.34834
 Alpha virt. eigenvalues --    1.36807   1.94031

 Mulliken charges:
               1
     1  C   -0.762312
     2  H    0.192273
     3  H    0.208262
     4  H    0.208260
     5  H    0.153517
 Sum of Mulliken charges =   0.00000

 Dipole moment (field-independent basis, Debye):
    X=              0.0345    Y=             -0.0552    Z=              0.0001  Tot=              0.0651
 Quadrupole moment (field-independent basis, Debye-Ang):
   XX=             -8.6402   YY=             -8.4686   ZZ=             -8.4414
   XY=              0.1243   XZ=             -0.0012   YZ=              0.0003

 Normal termination of Gaussian 16 at Fri Sep 22 17:16:59 2023.
