 Gaussian 16, Revision A.03,
 Gaussian 16:  ES64L-G16RevA.03 25-Dec-2016

 ----------
 # hf/3-21g
 ----------

 ------------------------
 tmpdir/M2_conf_247_9.gjf
 ------------------------
 Symbolic Z-matrix:
 Charge =  0 Multiplicity = 1

                         Standard orientation:
 ---------------------------------------------------------------------
 Center     Atomic      Atomic             Coordinates (Angstroms)
 Number     Number       Type             X           Y           Z
 ---------------------------------------------------------------------
      1          1           0        1.153667   -0.004155    1.064158
      2          6           0        1.204229    0.000034   -0.008243
      3         17           0       -0.687663    0.000047   -0.012849
      4          1           0        1.655691   -0.890956   -0.401326
      5          1           0        1.655544    0.894113   -0.394951
 ---------------------------------------------------------------------

 SCF Done:  E(RHF) =  -496.673768077     A.U. after   11 cycles

 The electronic state is 1-A.
 Alpha  occ. eigenvalues -- -104.08942 -11.24926 -10.48346  -7.94716  -7.94310
 Alpha  occ. eigenvalues --   -7.94306  -1.11713  -0.93226  -0.63813  -0.63156
 Alpha  occ. eigenvalues --   -0.50843  -0.44058  -0.43206
 Alpha virt. eigenvalues --    0.15712   0.27468   0.31417   0.31512   0.74004
 Alpha virt. eigenvalues --    0.79657   0.80993   0.85523   0.92563   0.95853
 Alpha virt. eigenvalues --    1.00903   1.30019   1.31171   1.32287   1.89704

 Mulliken charges:
               1
     1  H    0.281804
     2  C   -0.705903
     3  Cl  -0.108354
     4  H    0.266240
     5  H    0.266212
 Sum of Mulliken charges =   0.00000

 Dipole moment (field-independent basis, Debye):
    X=              2.8137    Y=             -0.0008    Z=              0.1942  Tot=              2.8204
 Quadrupole moment (field-independent basis, Debye-Ang):
   XX=            -18.5308   YY=            -20.1820   ZZ=            -20.3709
   XY=              0.0015   XZ=             -0.4786   YZ=             -0.0001

 Normal termination of Gaussian 16 at Fri Sep 22 17:20:24 2023.
