 Gaussian 16, Revision A.03,
 Gaussian 16:  ES64L-G16RevA.03 25-Dec-2016

 ----------
 # hf/3-21g
 ----------

 -----------------------
 tmpdir/M2_conf_44_6.gjf
 -----------------------
 Symbolic Z-matrix:
 Charge =  0 Multiplicity = 1

                         Standard orientation:
 ---------------------------------------------------------------------
 Center     Atomic      Atomic             Coordinates (Angstroms)
 Number     Number       Type             X           Y           Z
 ---------------------------------------------------------------------
      1          1           0       -1.527912   -0.132553    1.014751
      2          6           0       -1.202367   -0.000049    0.000527
      3         17           0        0.689530   -0.000145    0.001014
      4          1           0       -1.489706    0.952838   -0.402033
      5          1           0       -1.490195   -0.817525   -0.633111
 ---------------------------------------------------------------------

 SCF Done:  E(RHF) =  -496.689403606     A.U. after   11 cycles

 The electronic state is 1-A.
 Alpha  occ. eigenvalues -- -104.08773 -11.25001 -10.48162  -7.94537  -7.94133
 Alpha  occ. eigenvalues --   -7.94133  -1.11282  -0.93337  -0.63254  -0.63238
 Alpha  occ. eigenvalues --   -0.51321  -0.43740  -0.43712
 Alpha virt. eigenvalues --    0.16601   0.27332   0.31372   0.31386   0.73826
 Alpha virt. eigenvalues --    0.80600   0.80762   0.85502   0.93492   0.93830
 Alpha virt. eigenvalues --    0.99539   1.31212   1.31234   1.32202   1.91997

 Mulliken charges:
               1
     1  H    0.269042
     2  C   -0.702648
     3  Cl  -0.107048
     4  H    0.270338
     5  H    0.270315
 Sum of Mulliken charges =  -0.00000

 Dipole moment (field-independent basis, Debye):
    X=             -2.8661    Y=              0.0018    Z=             -0.0132  Tot=              2.8661
 Quadrupole moment (field-independent basis, Debye-Ang):
   XX=            -18.5699   YY=            -20.1794   ZZ=            -20.1826
   XY=              0.0056   XZ=             -0.0381   YZ=              0.0000

 Normal termination of Gaussian 16 at Fri Sep 22 17:15:13 2023.
