 Gaussian 16, Revision A.03,
 Gaussian 16:  ES64L-G16RevA.03 25-Dec-2016

 ----------
 # hf/3-21g
 ----------

 -----------------------
 tmpdir/M2_conf_25_6.gjf
 -----------------------
 Symbolic Z-matrix:
 Charge =  0 Multiplicity = 1

                         Standard orientation:
 ---------------------------------------------------------------------
 Center     Atomic      Atomic             Coordinates (Angstroms)
 Number     Number       Type             X           Y           Z
 ---------------------------------------------------------------------
      1          1           0       -1.287465   -0.005600    1.065412
      2          6           0       -1.203079    0.000041   -0.004650
      3         17           0        0.688815    0.000033   -0.008318
      4          1           0       -1.601748    0.895074   -0.443503
      5          1           0       -1.602171   -0.890283   -0.452597
 ---------------------------------------------------------------------

 SCF Done:  E(RHF) =  -496.683664217     A.U. after   11 cycles

 The electronic state is 1-A.
 Alpha  occ. eigenvalues -- -104.08831 -11.24979 -10.48224  -7.94597  -7.94193
 Alpha  occ. eigenvalues --   -7.94191  -1.11433  -0.93296  -0.63494  -0.63186
 Alpha  occ. eigenvalues --   -0.51116  -0.43892  -0.43495
 Alpha virt. eigenvalues --    0.16248   0.27366   0.31380   0.31445   0.73900
 Alpha virt. eigenvalues --    0.80046   0.81054   0.85641   0.92489   0.95075
 Alpha virt. eigenvalues --    1.00176   1.30669   1.31169   1.32380   1.91128

 Mulliken charges:
               1
     1  H    0.277450
     2  C   -0.704256
     3  Cl  -0.107258
     4  H    0.267041
     5  H    0.267022
 Sum of Mulliken charges =  -0.00000

 Dipole moment (field-independent basis, Debye):
    X=             -2.8478    Y=             -0.0006    Z=              0.1180  Tot=              2.8503
 Quadrupole moment (field-independent basis, Debye-Ang):
   XX=            -18.5523   YY=            -20.1826   ZZ=            -20.2526
   XY=             -0.0012   XZ=              0.3101   YZ=             -0.0001

 Normal termination of Gaussian 16 at Fri Sep 22 17:14:45 2023.
