 Gaussian 16, Revision A.03,
 Gaussian 16:  ES64L-G16RevA.03 25-Dec-2016

 ----------
 # hf/3-21g
 ----------

 -----------------------
 tmpdir/M2_conf_97_5.gjf
 -----------------------
 Symbolic Z-matrix:
 Charge =  0 Multiplicity = 1

                         Standard orientation:
 ---------------------------------------------------------------------
 Center     Atomic      Atomic             Coordinates (Angstroms)
 Number     Number       Type             X           Y           Z
 ---------------------------------------------------------------------
      1          1           0       -0.372744   -0.290113    0.968915
      2          6           0       -0.028465    0.008702   -0.002872
      3          1           0       -0.491700   -0.601015   -0.755379
      4          1           0       -0.130666    1.064554   -0.168225
      5          1           0        1.165901   -0.225637   -0.028077
 ---------------------------------------------------------------------

 SCF Done:  E(RHF) =  -39.9668910148     A.U. after    9 cycles

 The electronic state is 1-A.
 Alpha  occ. eigenvalues --  -11.15722  -0.93783  -0.56054  -0.55078  -0.50395
 Alpha virt. eigenvalues --    0.28300   0.32290   0.35473   0.35859   0.91414
 Alpha virt. eigenvalues --    0.92349   0.97782   1.24992   1.32603   1.36418
 Alpha virt. eigenvalues --    1.37385   1.94591

 Mulliken charges:
               1
     1  H    0.205745
     2  C   -0.770737
     3  H    0.206139
     4  H    0.206789
     5  H    0.152065
 Sum of Mulliken charges =   0.00000

 Dipole moment (field-independent basis, Debye):
    X=             -0.0791    Y=              0.0046    Z=              0.0170  Tot=              0.0810
 Quadrupole moment (field-independent basis, Debye-Ang):
   XX=             -8.6027   YY=             -8.3478   ZZ=             -8.4845
   XY=              0.0906   XZ=              0.0147   YZ=             -0.0018

 Normal termination of Gaussian 16 at Fri Sep 22 17:16:32 2023.
