 Gaussian 16, Revision A.03,
 Gaussian 16:  ES64L-G16RevA.03 25-Dec-2016

 ----------
 # hf/3-21g
 ----------

 ------------------------
 tmpdir/M2_conf_191_8.gjf
 ------------------------
 Symbolic Z-matrix:
 Charge =  0 Multiplicity = 1

                         Standard orientation:
 ---------------------------------------------------------------------
 Center     Atomic      Atomic             Coordinates (Angstroms)
 Number     Number       Type             X           Y           Z
 ---------------------------------------------------------------------
      1          1           0       -0.717726   -0.000179    0.923947
      2          6           0       -1.211922   -0.000014   -0.029147
      3         17           0        0.679958    0.000013   -0.021141
      4          1           0       -1.784849   -0.892452   -0.194935
      5          1           0       -1.785177    0.892498   -0.194738
 ---------------------------------------------------------------------

 SCF Done:  E(RHF) =  -496.591762851     A.U. after   12 cycles

 The electronic state is 1-A.
 Alpha  occ. eigenvalues -- -104.10134 -11.23917 -10.49765  -7.96120  -7.95686
 Alpha  occ. eigenvalues --   -7.95646  -1.14763  -0.92561  -0.65765  -0.62773
 Alpha  occ. eigenvalues --   -0.50670  -0.45481  -0.40249
 Alpha virt. eigenvalues --    0.12733   0.29069   0.31977   0.32018   0.74112
 Alpha virt. eigenvalues --    0.78095   0.80251   0.84488   0.94106   0.97912
 Alpha virt. eigenvalues --    1.03065   1.25004   1.31161   1.31625   1.82600

 Mulliken charges:
               1
     1  H    0.294338
     2  C   -0.719519
     3  Cl  -0.111571
     4  H    0.268397
     5  H    0.268356
 Sum of Mulliken charges =  -0.00000

 Dipole moment (field-independent basis, Debye):
    X=             -2.4087    Y=             -0.0002    Z=              0.4837  Tot=              2.4568
 Quadrupole moment (field-independent basis, Debye-Ang):
   XX=            -18.6058   YY=            -20.1230   ZZ=            -21.1235
   XY=             -0.0003   XZ=              0.7160   YZ=              0.0000

 Normal termination of Gaussian 16 at Fri Sep 22 17:18:59 2023.
