 Gaussian 16, Revision A.03,
 Gaussian 16:  ES64L-G16RevA.03 25-Dec-2016

 ----------
 # hf/3-21g
 ----------

 -----------------------
 tmpdir/M2_conf_95_5.gjf
 -----------------------
 Symbolic Z-matrix:
 Charge =  0 Multiplicity = 1

                         Standard orientation:
 ---------------------------------------------------------------------
 Center     Atomic      Atomic             Coordinates (Angstroms)
 Number     Number       Type             X           Y           Z
 ---------------------------------------------------------------------
      1          1           0        0.971979    0.369824   -0.343204
      2          6           0        0.027388   -0.022547   -0.017660
      3          1           0       -0.604637   -0.540014   -0.714356
      4          1           0        0.116827   -0.632637    0.861204
      5          1           0       -0.648495    0.938109    0.302313
 ---------------------------------------------------------------------

 SCF Done:  E(RHF) =  -39.9644960549     A.U. after    9 cycles

 The electronic state is 1-A.
 Alpha  occ. eigenvalues --  -11.15744  -0.93812  -0.57073  -0.54582  -0.49813
 Alpha virt. eigenvalues --    0.28329   0.31905   0.35211   0.36237   0.90906
 Alpha virt. eigenvalues --    0.93647   0.97386   1.25254   1.31871   1.35991
 Alpha virt. eigenvalues --    1.38424   1.94634

 Mulliken charges:
               1
     1  H    0.209536
     2  C   -0.774634
     3  H    0.209239
     4  H    0.206039
     5  H    0.149820
 Sum of Mulliken charges =   0.00000

 Dipole moment (field-independent basis, Debye):
    X=              0.0004    Y=             -0.0676    Z=              0.0106  Tot=              0.0685
 Quadrupole moment (field-independent basis, Debye-Ang):
   XX=             -8.2826   YY=             -8.5372   ZZ=             -8.6332
   XY=              0.2333   XZ=              0.0646   YZ=             -0.1028

 Normal termination of Gaussian 16 at Fri Sep 22 17:16:29 2023.
