 Gaussian 16, Revision A.03,
 Gaussian 16:  ES64L-G16RevA.03 25-Dec-2016

 ----------
 # hf/3-21g
 ----------

 ------------------------
 tmpdir/M2_conf_218_6.gjf
 ------------------------
 Symbolic Z-matrix:
 Charge =  0 Multiplicity = 1

                         Standard orientation:
 ---------------------------------------------------------------------
 Center     Atomic      Atomic             Coordinates (Angstroms)
 Number     Number       Type             X           Y           Z
 ---------------------------------------------------------------------
      1          1           0       -0.917016   -0.001054    1.015992
      2          6           0       -1.207607    0.000028   -0.017325
      3         17           0        0.684290    0.000013   -0.018876
      4          1           0       -1.735000    0.893024   -0.294862
      5          1           0       -1.735278   -0.892356   -0.296291
 ---------------------------------------------------------------------

 SCF Done:  E(RHF) =  -496.641121107     A.U. after   11 cycles

 The electronic state is 1-A.
 Alpha  occ. eigenvalues -- -104.09365 -11.24638 -10.48832  -7.95195  -7.94781
 Alpha  occ. eigenvalues --   -7.94764  -1.12778  -0.92984  -0.64682  -0.63049
 Alpha  occ. eigenvalues --   -0.50428  -0.44586  -0.42155
 Alpha virt. eigenvalues --    0.14290   0.27994   0.31579   0.31694   0.74177
 Alpha virt. eigenvalues --    0.78912   0.80604   0.84787   0.93797   0.97078
 Alpha virt. eigenvalues --    1.02186   1.28205   1.31269   1.31765   1.85969

 Mulliken charges:
               1
     1  H    0.289059
     2  C   -0.709639
     3  Cl  -0.112529
     4  H    0.266559
     5  H    0.266550
 Sum of Mulliken charges =  -0.00000

 Dipole moment (field-independent basis, Debye):
    X=             -2.6803    Y=             -0.0003    Z=              0.3384  Tot=              2.7016
 Quadrupole moment (field-independent basis, Debye-Ang):
   XX=            -18.5163   YY=            -20.1666   ZZ=            -20.7137
   XY=             -0.0004   XZ=              0.6902   YZ=             -0.0001

 Normal termination of Gaussian 16 at Fri Sep 22 17:19:39 2023.
