 Gaussian 16, Revision A.03,
 Gaussian 16:  ES64L-G16RevA.03 25-Dec-2016

 ----------
 # hf/3-21g
 ----------

 ------------------------
 tmpdir/M2_conf_127_3.gjf
 ------------------------
 Symbolic Z-matrix:
 Charge =  0 Multiplicity = 1

                         Standard orientation:
 ---------------------------------------------------------------------
 Center     Atomic      Atomic             Coordinates (Angstroms)
 Number     Number       Type             X           Y           Z
 ---------------------------------------------------------------------
      1          6           0       -1.415053    0.000016    0.000010
      2         17           0        0.802147   -0.000012   -0.000003
      3          1           0       -1.715421   -0.278187    0.992268
      4          1           0       -1.715102    0.998727   -0.255259
      5          1           0       -1.715666   -0.720426   -0.737021
 ---------------------------------------------------------------------

 SCF Done:  E(RHF) =  -496.665768695     A.U. after   10 cycles

 The electronic state is 1-A.
 Alpha  occ. eigenvalues -- -104.08120 -11.28403 -10.46921  -7.93253  -7.92962
 Alpha  occ. eigenvalues --   -7.92962  -1.05265  -0.96207  -0.63774  -0.63769
 Alpha  occ. eigenvalues --   -0.45936  -0.42724  -0.42724
 Alpha virt. eigenvalues --    0.07197   0.26039   0.30698   0.30702   0.73367
 Alpha virt. eigenvalues --    0.79226   0.79231   0.87166   0.93597   0.93607
 Alpha virt. eigenvalues --    1.02874   1.28709   1.29422   1.29432   1.83179

 Mulliken charges:
               1
     1  C   -0.528232
     2  Cl  -0.282769
     3  H    0.270351
     4  H    0.270342
     5  H    0.270308
 Sum of Mulliken charges =   0.00000

 Dipole moment (field-independent basis, Debye):
    X=             -4.1142    Y=              0.0001    Z=              0.0001  Tot=              4.1142
 Quadrupole moment (field-independent basis, Debye-Ang):
   XX=            -16.3854   YY=            -20.3718   ZZ=            -20.3732
   XY=              0.0005   XZ=             -0.0001   YZ=             -0.0001

 Normal termination of Gaussian 16 at Fri Sep 22 17:17:17 2023.
