 Gaussian 16, Revision A.03,
 Gaussian 16:  ES64L-G16RevA.03 25-Dec-2016

 ----------
 # hf/3-21g
 ----------

 ------------------------
 tmpdir/M2_conf_123_3.gjf
 ------------------------
 Symbolic Z-matrix:
 Charge =  0 Multiplicity = 1

                         Standard orientation:
 ---------------------------------------------------------------------
 Center     Atomic      Atomic             Coordinates (Angstroms)
 Number     Number       Type             X           Y           Z
 ---------------------------------------------------------------------
      1          6           0       -1.387722    0.000016    0.000010
      2         17           0        0.787678   -0.000012   -0.000003
      3          1           0       -1.688090   -0.278186    0.992268
      4          1           0       -1.687770    0.998727   -0.255259
      5          1           0       -1.688336   -0.720426   -0.737021
 ---------------------------------------------------------------------

 SCF Done:  E(RHF) =  -496.670584537     A.U. after   10 cycles

 The electronic state is 1-A.
 Alpha  occ. eigenvalues -- -104.08282 -11.27984 -10.47129  -7.93465  -7.93164
 Alpha  occ. eigenvalues --   -7.93164  -1.05842  -0.95890  -0.63605  -0.63600
 Alpha  occ. eigenvalues --   -0.46590  -0.42921  -0.42921
 Alpha virt. eigenvalues --    0.08204   0.26212   0.30827   0.30831   0.73400
 Alpha virt. eigenvalues --    0.79380   0.79385   0.86751   0.93633   0.93642
 Alpha virt. eigenvalues --    1.03146   1.29119   1.29687   1.29697   1.84048

 Mulliken charges:
               1
     1  C   -0.546531
     2  Cl  -0.263733
     3  H    0.270106
     4  H    0.270095
     5  H    0.270062
 Sum of Mulliken charges =  -0.00000

 Dipole moment (field-independent basis, Debye):
    X=             -3.9401    Y=              0.0001    Z=              0.0001  Tot=              3.9401
 Quadrupole moment (field-independent basis, Debye-Ang):
   XX=            -16.6790   YY=            -20.3570   ZZ=            -20.3584
   XY=              0.0005   XZ=             -0.0001   YZ=             -0.0001

 Normal termination of Gaussian 16 at Fri Sep 22 17:17:11 2023.
