 Gaussian 16, Revision A.03,
 Gaussian 16:  ES64L-G16RevA.03 25-Dec-2016

 ----------
 # hf/3-21g
 ----------

 ------------------------
 tmpdir/M2_conf_106_7.gjf
 ------------------------
 Symbolic Z-matrix:
 Charge =  0 Multiplicity = 1

                         Standard orientation:
 ---------------------------------------------------------------------
 Center     Atomic      Atomic             Coordinates (Angstroms)
 Number     Number       Type             X           Y           Z
 ---------------------------------------------------------------------
      1          1           0        0.379866   -0.283221    0.967427
      2          6           0        0.027699    0.010136   -0.003416
      3          1           0        0.517271   -0.582876   -0.752592
      4          1           0        0.094656    1.069668   -0.161795
      5          1           0       -1.157986   -0.264387   -0.032542
 ---------------------------------------------------------------------

 SCF Done:  E(RHF) =  -39.9668313134     A.U. after    9 cycles

 The electronic state is 1-A.
 Alpha  occ. eigenvalues --  -11.15721  -0.93785  -0.56128  -0.54979  -0.50416
 Alpha virt. eigenvalues --    0.28296   0.32299   0.35433   0.35890   0.91345
 Alpha virt. eigenvalues --    0.92411   0.97811   1.24979   1.32629   1.36320
 Alpha virt. eigenvalues --    1.37472   1.94577

 Mulliken charges:
               1
     1  H    0.205577
     2  C   -0.770816
     3  H    0.206124
     4  H    0.206917
     5  H    0.152198
 Sum of Mulliken charges =   0.00000

 Dipole moment (field-independent basis, Debye):
    X=              0.0806    Y=              0.0057    Z=              0.0199  Tot=              0.0832
 Quadrupole moment (field-independent basis, Debye-Ang):
   XX=             -8.5882   YY=             -8.3459   ZZ=             -8.5004
   XY=             -0.1051   XZ=             -0.0172   YZ=             -0.0025

 Normal termination of Gaussian 16 at Fri Sep 22 17:16:46 2023.
