 Gaussian 16, Revision A.03,
 Gaussian 16:  ES64L-G16RevA.03 25-Dec-2016

 ----------
 # hf/3-21g
 ----------

 -----------------------
 tmpdir/M2_conf_32_1.gjf
 -----------------------
 Symbolic Z-matrix:
 Charge =  0 Multiplicity = 1

                         Standard orientation:
 ---------------------------------------------------------------------
 Center     Atomic      Atomic             Coordinates (Angstroms)
 Number     Number       Type             X           Y           Z
 ---------------------------------------------------------------------
      1          6           0       -0.032243   -0.000060    0.013502
      2          1           0       -0.150990   -0.001679    0.995649
      3          1           0       -0.411166   -0.892268   -0.447544
      4          1           0       -0.413417    0.892673   -0.445126
      5          1           0        1.169027    0.001635   -0.183993
 ---------------------------------------------------------------------

 SCF Done:  E(RHF) =  -39.9602118604     A.U. after    9 cycles

 The electronic state is 1-A.
 Alpha  occ. eigenvalues --  -11.14747  -0.94872  -0.57492  -0.55521  -0.50289
 Alpha virt. eigenvalues --    0.28531   0.32598   0.35682   0.37578   0.88089
 Alpha virt. eigenvalues --    0.92115   0.97560   1.25383   1.34131   1.37103
 Alpha virt. eigenvalues --    1.44951   1.95946

 Mulliken charges:
               1
     1  C   -0.780082
     2  H    0.226265
     3  H    0.203120
     4  H    0.203065
     5  H    0.147632
 Sum of Mulliken charges =   0.00000

 Dipole moment (field-independent basis, Debye):
    X=             -0.0838    Y=             -0.0003    Z=              0.0576  Tot=              0.1017
 Quadrupole moment (field-independent basis, Debye-Ang):
   XX=             -8.5662   YY=             -8.3056   ZZ=             -8.3769
   XY=             -0.0005   XZ=              0.0457   YZ=             -0.0001

 Normal termination of Gaussian 16 at Fri Sep 22 17:14:55 2023.
