 Gaussian 16, Revision A.03,
 Gaussian 16:  ES64L-G16RevA.03 25-Dec-2016

 ----------
 # hf/3-21g
 ----------

 -----------------------
 tmpdir/M2_conf_54_7.gjf
 -----------------------
 Symbolic Z-matrix:
 Charge =  0 Multiplicity = 1

                         Standard orientation:
 ---------------------------------------------------------------------
 Center     Atomic      Atomic             Coordinates (Angstroms)
 Number     Number       Type             X           Y           Z
 ---------------------------------------------------------------------
      1          1           0        0.394746   -0.266902    0.964641
      2          6           0        0.026336    0.012361   -0.004329
      3          1           0        0.556462   -0.552819   -0.747395
      4          1           0        0.032438    1.075038   -0.155504
      5          1           0       -1.141661   -0.329481   -0.035769
 ---------------------------------------------------------------------

 SCF Done:  E(RHF) =  -39.9666999854     A.U. after    9 cycles

 The electronic state is 1-A.
 Alpha  occ. eigenvalues --  -11.15721  -0.93790  -0.56242  -0.54824  -0.50446
 Alpha virt. eigenvalues --    0.28289   0.32309   0.35374   0.35934   0.91226
 Alpha virt. eigenvalues --    0.92529   0.97859   1.24958   1.32659   1.36182
 Alpha virt. eigenvalues --    1.37604   1.94550

 Mulliken charges:
               1
     1  H    0.205410
     2  C   -0.770986
     3  H    0.206124
     4  H    0.207044
     5  H    0.152408
 Sum of Mulliken charges =  -0.00000

 Dipole moment (field-independent basis, Debye):
    X=              0.0830    Y=              0.0079    Z=              0.0244  Tot=              0.0869
 Quadrupole moment (field-independent basis, Debye-Ang):
   XX=             -8.5613   YY=             -8.3466   ZZ=             -8.5263
   XY=             -0.1290   XZ=             -0.0191   YZ=             -0.0037

 Normal termination of Gaussian 16 at Fri Sep 22 17:15:28 2023.
