 Gaussian 16, Revision A.03,
 Gaussian 16:  ES64L-G16RevA.03 25-Dec-2016

 ----------
 # hf/3-21g
 ----------

 ------------------------
 tmpdir/M2_conf_151_4.gjf
 ------------------------
 Symbolic Z-matrix:
 Charge =  0 Multiplicity = 1

                         Standard orientation:
 ---------------------------------------------------------------------
 Center     Atomic      Atomic             Coordinates (Angstroms)
 Number     Number       Type             X           Y           Z
 ---------------------------------------------------------------------
      1          1           0       -0.423928    0.939734   -0.352815
      2          6           0       -0.033866    0.000003   -0.010843
      3          1           0       -0.050036   -0.810845   -0.714319
      4          1           0       -0.471354   -0.312286    0.918503
      5          1           0        1.148517    0.183377    0.213691
 ---------------------------------------------------------------------

 SCF Done:  E(RHF) =  -39.9660599410     A.U. after    9 cycles

 The electronic state is 1-A.
 Alpha  occ. eigenvalues --  -11.15734  -0.93787  -0.56443  -0.55039  -0.50042
 Alpha virt. eigenvalues --    0.28331   0.32084   0.35420   0.35997   0.91330
 Alpha virt. eigenvalues --    0.92799   0.97478   1.25175   1.32155   1.36371
 Alpha virt. eigenvalues --    1.37751   1.94666

 Mulliken charges:
               1
     1  H    0.207937
     2  C   -0.772075
     3  H    0.207581
     4  H    0.206111
     5  H    0.150446
 Sum of Mulliken charges =   0.00000

 Dipole moment (field-independent basis, Debye):
    X=             -0.0572    Y=             -0.0306    Z=              0.0030  Tot=              0.0649
 Quadrupole moment (field-independent basis, Debye-Ang):
   XX=             -8.6562   YY=             -8.2713   ZZ=             -8.5175
   XY=             -0.0836   XZ=             -0.0853   YZ=             -0.0164

 Normal termination of Gaussian 16 at Fri Sep 22 17:17:54 2023.
