 Gaussian 16, Revision A.03,
 Gaussian 16:  ES64L-G16RevA.03 25-Dec-2016

 ----------
 # hf/3-21g
 ----------

 ------------------------
 tmpdir/M2_conf_152_7.gjf
 ------------------------
 Symbolic Z-matrix:
 Charge =  0 Multiplicity = 1

                         Standard orientation:
 ---------------------------------------------------------------------
 Center     Atomic      Atomic             Coordinates (Angstroms)
 Number     Number       Type             X           Y           Z
 ---------------------------------------------------------------------
      1          1           0       -0.354837    0.967176   -0.349494
      2          6           0       -0.033343    0.001433   -0.008029
      3          1           0       -0.157262   -0.800629   -0.710849
      4          1           0       -0.456613   -0.259797    0.943168
      5          1           0        1.168770    0.084654    0.165348
 ---------------------------------------------------------------------

 SCF Done:  E(RHF) =  -39.9664242060     A.U. after    9 cycles

 The electronic state is 1-A.
 Alpha  occ. eigenvalues --  -11.15731  -0.93781  -0.56219  -0.55204  -0.50111
 Alpha virt. eigenvalues --    0.28329   0.32133   0.35497   0.35910   0.91480
 Alpha virt. eigenvalues --    0.92544   0.97516   1.25147   1.32242   1.36528
 Alpha virt. eigenvalues --    1.37517   1.94669

 Mulliken charges:
               1
     1  H    0.207428
     2  C   -0.771503
     3  H    0.207157
     4  H    0.206233
     5  H    0.150685
 Sum of Mulliken charges =  -0.00000

 Dipole moment (field-independent basis, Debye):
    X=             -0.0623    Y=             -0.0200    Z=              0.0016  Tot=              0.0655
 Quadrupole moment (field-independent basis, Debye-Ang):
   XX=             -8.6683   YY=             -8.2958   ZZ=             -8.4785
   XY=             -0.0400   XZ=             -0.0674   YZ=             -0.0067

 Normal termination of Gaussian 16 at Fri Sep 22 17:17:55 2023.
