 Gaussian 16, Revision A.03,
 Gaussian 16:  ES64L-G16RevA.03 25-Dec-2016

 ----------
 # hf/3-21g
 ----------

 ------------------------
 tmpdir/M2_conf_291_5.gjf
 ------------------------
 Symbolic Z-matrix:
 Charge =  0 Multiplicity = 1

                         Standard orientation:
 ---------------------------------------------------------------------
 Center     Atomic      Atomic             Coordinates (Angstroms)
 Number     Number       Type             X           Y           Z
 ---------------------------------------------------------------------
      1          1           0       -0.493049   -0.135357    0.932286
      2          6           0       -0.011322    0.024477   -0.013536
      3          1           0       -0.769778   -0.299542   -0.700837
      4          1           0        0.386303    1.017093   -0.109543
      5          1           0        0.944454   -0.729058   -0.040689
 ---------------------------------------------------------------------

 SCF Done:  E(RHF) =  -39.9635688231     A.U. after    9 cycles

 The electronic state is 1-A.
 Alpha  occ. eigenvalues --  -11.15722  -0.93874  -0.57329  -0.53337  -0.50676
 Alpha virt. eigenvalues --    0.28194   0.32334   0.34818   0.36291   0.90364
 Alpha virt. eigenvalues --    0.93594   0.98467   1.24763   1.32647   1.35056
 Alpha virt. eigenvalues --    1.39002   1.94093

 Mulliken charges:
               1
     1  H    0.204177
     2  C   -0.774593
     3  H    0.207061
     4  H    0.208691
     5  H    0.154665
 Sum of Mulliken charges =  -0.00000

 Dipole moment (field-independent basis, Debye):
    X=             -0.1115    Y=              0.0258    Z=              0.0689  Tot=              0.1336
 Quadrupole moment (field-independent basis, Debye-Ang):
   XX=             -8.2432   YY=             -8.4205   ZZ=             -8.7735
   XY=              0.2321   XZ=              0.0240   YZ=             -0.0130

 Normal termination of Gaussian 16 at Fri Sep 22 17:21:35 2023.
