 Gaussian 16, Revision A.03,
 Gaussian 16:  ES64L-G16RevA.03 25-Dec-2016

 ----------
 # hf/3-21g
 ----------

 ------------------------
 tmpdir/M2_conf_131_2.gjf
 ------------------------
 Symbolic Z-matrix:
 Charge =  0 Multiplicity = 1

                         Standard orientation:
 ---------------------------------------------------------------------
 Center     Atomic      Atomic             Coordinates (Angstroms)
 Number     Number       Type             X           Y           Z
 ---------------------------------------------------------------------
      1          6           0        0.027919   -0.012888   -0.000014
      2          1           0        0.646187    0.914615   -0.006287
      3          1           0        0.163033   -0.590168    0.894799
      4          1           0        0.156860   -0.598835   -0.890330
      5          1           0       -1.133596    0.351716    0.001905
 ---------------------------------------------------------------------

 SCF Done:  E(RHF) =  -39.9662007564     A.U. after    9 cycles

 The electronic state is 1-A.
 Alpha  occ. eigenvalues --  -11.16205  -0.93348  -0.55706  -0.54764  -0.50234
 Alpha virt. eigenvalues --    0.28145   0.31896   0.34908   0.35689   0.91826
 Alpha virt. eigenvalues --    0.93627   0.97922   1.24822   1.30284   1.35139
 Alpha virt. eigenvalues --    1.36846   1.94171

 Mulliken charges:
               1
     1  C   -0.764419
     2  H    0.195627
     3  H    0.207907
     4  H    0.207857
     5  H    0.153028
 Sum of Mulliken charges =   0.00000

 Dipole moment (field-independent basis, Debye):
    X=              0.0485    Y=             -0.0426    Z=              0.0001  Tot=              0.0646
 Quadrupole moment (field-independent basis, Debye-Ang):
   XX=             -8.6641   YY=             -8.4305   ZZ=             -8.4300
   XY=              0.0895   XZ=              0.0012   YZ=              0.0000

 Normal termination of Gaussian 16 at Fri Sep 22 17:17:23 2023.
