 Gaussian 16, Revision A.03,
 Gaussian 16:  ES64L-G16RevA.03 25-Dec-2016

 ----------
 # hf/3-21g
 ----------

 -----------------------
 tmpdir/M2_conf_32_6.gjf
 -----------------------
 Symbolic Z-matrix:
 Charge =  0 Multiplicity = 1

                         Standard orientation:
 ---------------------------------------------------------------------
 Center     Atomic      Atomic             Coordinates (Angstroms)
 Number     Number       Type             X           Y           Z
 ---------------------------------------------------------------------
      1          1           0       -1.602696   -0.013007    0.998067
      2          6           0       -1.202523   -0.000007    0.002136
      3         17           0        0.689372   -0.000066    0.004081
      4          1           0       -1.450492    0.899705   -0.528564
      5          1           0       -1.450997   -0.885526   -0.551693
 ---------------------------------------------------------------------

 SCF Done:  E(RHF) =  -496.688213225     A.U. after   11 cycles

 The electronic state is 1-A.
 Alpha  occ. eigenvalues -- -104.08783 -11.24998 -10.48173  -7.94547  -7.94143
 Alpha  occ. eigenvalues --   -7.94143  -1.11310  -0.93328  -0.63287  -0.63247
 Alpha  occ. eigenvalues --   -0.51271  -0.43764  -0.43674
 Alpha virt. eigenvalues --    0.16517   0.27331   0.31362   0.31415   0.73841
 Alpha virt. eigenvalues --    0.80340   0.81001   0.85567   0.92956   0.94290
 Alpha virt. eigenvalues --    0.99761   1.31010   1.31266   1.32306   1.91829

 Mulliken charges:
               1
     1  H    0.266557
     2  C   -0.703252
     3  Cl  -0.106897
     4  H    0.271808
     5  H    0.271784
 Sum of Mulliken charges =  -0.00000

 Dipole moment (field-independent basis, Debye):
    X=             -2.8625    Y=              0.0008    Z=             -0.0524  Tot=              2.8630
 Quadrupole moment (field-independent basis, Debye-Ang):
   XX=            -18.5654   YY=            -20.1778   ZZ=            -20.2000
   XY=              0.0026   XZ=             -0.1531   YZ=             -0.0001

 Normal termination of Gaussian 16 at Fri Sep 22 17:14:55 2023.
