 Gaussian 16, Revision A.03,
 Gaussian 16:  ES64L-G16RevA.03 25-Dec-2016

 ----------
 # hf/3-21g
 ----------

 ------------------------
 tmpdir/M2_conf_230_6.gjf
 ------------------------
 Symbolic Z-matrix:
 Charge =  0 Multiplicity = 1

                         Standard orientation:
 ---------------------------------------------------------------------
 Center     Atomic      Atomic             Coordinates (Angstroms)
 Number     Number       Type             X           Y           Z
 ---------------------------------------------------------------------
      1          1           0       -1.409995   -0.023519    1.050973
      2          6           0       -1.202495    0.000062   -0.001916
      3         17           0        0.689404    0.000071   -0.003695
      4          1           0       -1.547224    0.903442   -0.468476
      5          1           0       -1.547684   -0.881497   -0.508185
 ---------------------------------------------------------------------

 SCF Done:  E(RHF) =  -496.688414051     A.U. after   11 cycles

 The electronic state is 1-A.
 Alpha  occ. eigenvalues -- -104.08782 -11.24998 -10.48172  -7.94547  -7.94143
 Alpha  occ. eigenvalues --   -7.94142  -1.11307  -0.93329  -0.63311  -0.63215
 Alpha  occ. eigenvalues --   -0.51282  -0.43787  -0.43654
 Alpha virt. eigenvalues --    0.16536   0.27336   0.31369   0.31401   0.73839
 Alpha virt. eigenvalues --    0.80403   0.80919   0.85545   0.93032   0.94295
 Alpha virt. eigenvalues --    0.99675   1.31105   1.31195   1.32277   1.91848

 Mulliken charges:
               1
     1  H    0.273182
     2  C   -0.703002
     3  Cl  -0.107034
     4  H    0.268437
     5  H    0.268416
 Sum of Mulliken charges =  -0.00000

 Dipole moment (field-independent basis, Debye):
    X=             -2.8630    Y=             -0.0011    Z=              0.0501  Tot=              2.8635
 Quadrupole moment (field-independent basis, Debye-Ang):
   XX=            -18.5665   YY=            -20.1816   ZZ=            -20.1933
   XY=             -0.0026   XZ=              0.1377   YZ=             -0.0002

 Normal termination of Gaussian 16 at Fri Sep 22 17:19:58 2023.
