 Gaussian 16, Revision A.03,
 Gaussian 16:  ES64L-G16RevA.03 25-Dec-2016

 ----------
 # hf/3-21g
 ----------

 -----------------------
 tmpdir/M2_conf_79_4.gjf
 -----------------------
 Symbolic Z-matrix:
 Charge =  0 Multiplicity = 1

                         Standard orientation:
 ---------------------------------------------------------------------
 Center     Atomic      Atomic             Coordinates (Angstroms)
 Number     Number       Type             X           Y           Z
 ---------------------------------------------------------------------
      1          1           0       -0.598483    0.843175   -0.350666
      2          6           0       -0.034036   -0.005391   -0.013733
      3          1           0        0.150882   -0.795947   -0.716188
      4          1           0       -0.426077   -0.425314    0.893225
      5          1           0        1.077896    0.410431    0.256027
 ---------------------------------------------------------------------

 SCF Done:  E(RHF) =  -39.9655258176     A.U. after    9 cycles

 The electronic state is 1-A.
 Alpha  occ. eigenvalues --  -11.15738  -0.93795  -0.56696  -0.54854  -0.49955
 Alpha virt. eigenvalues --    0.28331   0.32020   0.35335   0.36094   0.91154
 Alpha virt. eigenvalues --    0.93123   0.97439   1.25208   1.32045   1.36212
 Alpha virt. eigenvalues --    1.38017   1.94656

 Mulliken charges:
               1
     1  H    0.208525
     2  C   -0.772934
     3  H    0.208161
     4  H    0.206063
     5  H    0.150185
 Sum of Mulliken charges =  -0.00000

 Dipole moment (field-independent basis, Debye):
    X=             -0.0452    Y=             -0.0471    Z=              0.0056  Tot=              0.0655
 Quadrupole moment (field-independent basis, Debye-Ang):
   XX=             -8.5968   YY=             -8.2874   ZZ=             -8.5636
   XY=             -0.1730   XZ=             -0.0954   YZ=             -0.0403

 Normal termination of Gaussian 16 at Fri Sep 22 17:16:05 2023.
