 Gaussian 16, Revision A.03,
 Gaussian 16:  ES64L-G16RevA.03 25-Dec-2016

 ----------
 # hf/3-21g
 ----------

 ------------------------
 tmpdir/M2_conf_147_7.gjf
 ------------------------
 Symbolic Z-matrix:
 Charge =  0 Multiplicity = 1

                         Standard orientation:
 ---------------------------------------------------------------------
 Center     Atomic      Atomic             Coordinates (Angstroms)
 Number     Number       Type             X           Y           Z
 ---------------------------------------------------------------------
      1          1           0       -1.075014    0.009297   -0.283994
      2          6           0       -0.031357   -0.029775   -0.035255
      3          1           0        0.831055   -0.162139   -0.660826
      4          1           0        0.178581   -0.735254    0.746026
      5          1           0        0.253520    1.066748    0.410326
 ---------------------------------------------------------------------

 SCF Done:  E(RHF) =  -39.9541476703     A.U. after    9 cycles

 The electronic state is 1-A.
 Alpha  occ. eigenvalues --  -11.15789  -0.93999  -0.58980  -0.53374  -0.48679
 Alpha virt. eigenvalues --    0.28247   0.30853   0.34685   0.36936   0.89985
 Alpha virt. eigenvalues --    0.97082   0.97438   1.25317   1.30887   1.35189
 Alpha virt. eigenvalues --    1.40779   1.94377

 Mulliken charges:
               1
     1  H    0.217999
     2  C   -0.792622
     3  H    0.219777
     4  H    0.206538
     5  H    0.148308
 Sum of Mulliken charges =   0.00000

 Dipole moment (field-independent basis, Debye):
    X=              0.0813    Y=             -0.0642    Z=              0.0453  Tot=              0.1131
 Quadrupole moment (field-independent basis, Debye-Ang):
   XX=             -7.7997   YY=             -8.6783   ZZ=             -9.0140
   XY=             -0.0998   XZ=             -0.0245   YZ=             -0.1610

 Normal termination of Gaussian 16 at Fri Sep 22 17:17:47 2023.
