 Gaussian 16, Revision A.03,
 Gaussian 16:  ES64L-G16RevA.03 25-Dec-2016

 ----------
 # hf/3-21g
 ----------

 ------------------------
 tmpdir/M2_conf_180_3.gjf
 ------------------------
 Symbolic Z-matrix:
 Charge =  0 Multiplicity = 1

                         Standard orientation:
 ---------------------------------------------------------------------
 Center     Atomic      Atomic             Coordinates (Angstroms)
 Number     Number       Type             X           Y           Z
 ---------------------------------------------------------------------
      1          6           0       -1.706799    0.000012    0.000009
      2         17           0        0.956601   -0.000010   -0.000002
      3          1           0       -2.007167   -0.278191    0.992267
      4          1           0       -2.006852    0.998722   -0.255261
      5          1           0       -2.007408   -0.720432   -0.737022
 ---------------------------------------------------------------------

 SCF Done:  E(RHF) =  -496.606817168     A.U. after   10 cycles

 The electronic state is 1-A.
 Alpha  occ. eigenvalues -- -104.05577 -11.32484 -10.44194  -7.90509  -7.90281
 Alpha  occ. eigenvalues --   -7.90281  -1.02249  -0.97867  -0.66340  -0.66335
 Alpha  occ. eigenvalues --   -0.40230  -0.40230  -0.39884
 Alpha virt. eigenvalues --   -0.00966   0.24026   0.28860   0.28864   0.73009
 Alpha virt. eigenvalues --    0.78720   0.78727   0.89803   0.92106   0.92113
 Alpha virt. eigenvalues --    0.97080   1.23861   1.26504   1.26514   1.75910

 Mulliken charges:
               1
     1  C   -0.400985
     2  Cl  -0.437724
     3  H    0.279580
     4  H    0.279581
     5  H    0.279548
 Sum of Mulliken charges =   0.00000

 Dipole moment (field-independent basis, Debye):
    X=             -6.1404    Y=              0.0001    Z=              0.0001  Tot=              6.1404
 Quadrupole moment (field-independent basis, Debye-Ang):
   XX=            -13.1670   YY=            -20.4262   ZZ=            -20.4277
   XY=              0.0003   XZ=             -0.0000   YZ=             -0.0001

 Normal termination of Gaussian 16 at Fri Sep 22 17:18:38 2023.
