 Gaussian 16, Revision A.03,
 Gaussian 16:  ES64L-G16RevA.03 25-Dec-2016

 ----------
 # hf/3-21g
 ----------

 ------------------------
 tmpdir/M2_conf_196_8.gjf
 ------------------------
 Symbolic Z-matrix:
 Charge =  0 Multiplicity = 1

                         Standard orientation:
 ---------------------------------------------------------------------
 Center     Atomic      Atomic             Coordinates (Angstroms)
 Number     Number       Type             X           Y           Z
 ---------------------------------------------------------------------
      1          1           0        0.595301    0.000087    0.837215
      2          6           0        1.215388    0.000016   -0.039203
      3         17           0       -0.676422   -0.000011   -0.020725
      4          1           0        1.805601    0.892477   -0.124873
      5          1           0        1.805944   -0.892473   -0.124792
 ---------------------------------------------------------------------

 SCF Done:  E(RHF) =  -496.546092118     A.U. after   12 cycles

 The electronic state is 1-A.
 Alpha  occ. eigenvalues -- -104.11003 -11.22985 -10.50828  -7.97183  -7.96716
 Alpha  occ. eigenvalues --   -7.96658  -1.17026  -0.92095  -0.66666  -0.62392
 Alpha  occ. eigenvalues --   -0.51361  -0.46409  -0.38357
 Alpha virt. eigenvalues --    0.11700   0.30226   0.32405   0.32633   0.73820
 Alpha virt. eigenvalues --    0.77402   0.79880   0.84446   0.92715   0.98377
 Alpha virt. eigenvalues --    1.03667   1.21772   1.31264   1.32123   1.81236

 Mulliken charges:
               1
     1  H    0.294709
     2  C   -0.736402
     3  Cl  -0.098044
     4  H    0.269888
     5  H    0.269850
 Sum of Mulliken charges =  -0.00000

 Dipole moment (field-independent basis, Debye):
    X=              2.0736    Y=              0.0001    Z=              0.6064  Tot=              2.1604
 Quadrupole moment (field-independent basis, Debye-Ang):
   XX=            -18.7634   YY=            -20.0561   ZZ=            -21.4265
   XY=             -0.0003   XZ=             -0.5860   YZ=             -0.0000

 Normal termination of Gaussian 16 at Fri Sep 22 17:19:06 2023.
