 Gaussian 16, Revision A.03,
 Gaussian 16:  ES64L-G16RevA.03 25-Dec-2016

 ----------
 # hf/3-21g
 ----------

 ------------------------
 tmpdir/M2_conf_108_0.gjf
 ------------------------
 Symbolic Z-matrix:
 Charge =  0 Multiplicity = 1

                         Standard orientation:
 ---------------------------------------------------------------------
 Center     Atomic      Atomic             Coordinates (Angstroms)
 Number     Number       Type             X           Y           Z
 ---------------------------------------------------------------------
      1          6           0       -0.001295   -0.031120    0.000057
      2          1           0        1.209400    0.190988    0.000813
      3          1           0       -0.328271   -0.528727    0.893420
      4          1           0       -0.326102   -0.532531   -0.891958
      5          1           0       -0.547258    1.056993   -0.002616
 ---------------------------------------------------------------------

 SCF Done:  E(RHF) =  -39.9551796934     A.U. after    9 cycles

 The electronic state is 1-A.
 Alpha  occ. eigenvalues --  -11.17522  -0.92446  -0.55930  -0.52700  -0.49802
 Alpha virt. eigenvalues --    0.27049   0.30403   0.33687   0.35679   0.91614
 Alpha virt. eigenvalues --    0.95772   1.01261   1.21750   1.25479   1.33571
 Alpha virt. eigenvalues --    1.36515   1.92837

 Mulliken charges:
               1
     1  C   -0.741385
     2  H    0.162065
     3  H    0.211092
     4  H    0.211092
     5  H    0.157136
 Sum of Mulliken charges =  -0.00000

 Dipole moment (field-independent basis, Debye):
    X=             -0.0941    Y=             -0.0713    Z=              0.0001  Tot=              0.1180
 Quadrupole moment (field-independent basis, Debye-Ang):
   XX=             -8.4821   YY=             -8.7356   ZZ=             -8.5337
   XY=              0.1323   XZ=             -0.0008   YZ=              0.0010

 Normal termination of Gaussian 16 at Fri Sep 22 17:16:49 2023.
