 Gaussian 16, Revision A.03,
 Gaussian 16:  ES64L-G16RevA.03 25-Dec-2016

 ----------
 # hf/3-21g
 ----------

 -----------------------
 tmpdir/M2_conf_11_4.gjf
 -----------------------
 Symbolic Z-matrix:
 Charge =  0 Multiplicity = 1

                         Standard orientation:
 ---------------------------------------------------------------------
 Center     Atomic      Atomic             Coordinates (Angstroms)
 Number     Number       Type             X           Y           Z
 ---------------------------------------------------------------------
      1          1           0        0.388602   -0.270690    0.966627
      2          6           0        0.027054    0.011177   -0.003951
      3          1           0        0.534461   -0.573365   -0.747910
      4          1           0        0.065512    1.072051   -0.164174
      5          1           0       -1.150897   -0.295061   -0.030839
 ---------------------------------------------------------------------

 SCF Done:  E(RHF) =  -39.9667694512     A.U. after    9 cycles

 The electronic state is 1-A.
 Alpha  occ. eigenvalues --  -11.15721  -0.93787  -0.56182  -0.54904  -0.50431
 Alpha virt. eigenvalues --    0.28293   0.32304   0.35407   0.35909   0.91276
 Alpha virt. eigenvalues --    0.92481   0.97834   1.24968   1.32640   1.36262
 Alpha virt. eigenvalues --    1.37531   1.94564

 Mulliken charges:
               1
     1  H    0.205547
     2  C   -0.770896
     3  H    0.206124
     4  H    0.206923
     5  H    0.152301
 Sum of Mulliken charges =   0.00000

 Dipole moment (field-independent basis, Debye):
    X=              0.0819    Y=              0.0065    Z=              0.0221  Tot=              0.0851
 Quadrupole moment (field-independent basis, Debye-Ang):
   XX=             -8.5760   YY=             -8.3448   ZZ=             -8.5136
   XY=             -0.1166   XZ=             -0.0166   YZ=             -0.0028

 Normal termination of Gaussian 16 at Fri Sep 22 17:14:24 2023.
