 Gaussian 16, Revision A.03,
 Gaussian 16:  ES64L-G16RevA.03 25-Dec-2016

 ----------
 # hf/3-21g
 ----------

 -----------------------
 tmpdir/M2_conf_32_9.gjf
 -----------------------
 Symbolic Z-matrix:
 Charge =  0 Multiplicity = 1

                         Standard orientation:
 ---------------------------------------------------------------------
 Center     Atomic      Atomic             Coordinates (Angstroms)
 Number     Number       Type             X           Y           Z
 ---------------------------------------------------------------------
      1          1           0        1.660927   -0.013027    0.974323
      2          6           0        1.202781   -0.000031    0.003473
      3         17           0       -0.689115   -0.000098    0.006461
      4          1           0        1.418889   -0.885026   -0.564223
      5          1           0        1.418459    0.899900   -0.540780
 ---------------------------------------------------------------------

 SCF Done:  E(RHF) =  -496.686262735     A.U. after   11 cycles

 The electronic state is 1-A.
 Alpha  occ. eigenvalues -- -104.08800 -11.24993 -10.48190  -7.94564  -7.94159
 Alpha  occ. eigenvalues --   -7.94159  -1.11356  -0.93313  -0.63320  -0.63282
 Alpha  occ. eigenvalues --   -0.51189  -0.43765  -0.43648
 Alpha virt. eigenvalues --    0.16377   0.27327   0.31362   0.31448   0.73863
 Alpha virt. eigenvalues --    0.80135   0.81193   0.85670   0.92517   0.94561
 Alpha virt. eigenvalues --    1.00156   1.30736   1.31301   1.32459   1.91571

 Mulliken charges:
               1
     1  H    0.264760
     2  C   -0.704382
     3  Cl  -0.106562
     4  H    0.273102
     5  H    0.273082
 Sum of Mulliken charges =   0.00000

 Dipole moment (field-independent basis, Debye):
    X=              2.8569    Y=              0.0011    Z=             -0.0822  Tot=              2.8580
 Quadrupole moment (field-independent basis, Debye-Ang):
   XX=            -18.5575   YY=            -20.1771   ZZ=            -20.2267
   XY=             -0.0040   XZ=              0.2424   YZ=              0.0000

 Normal termination of Gaussian 16 at Fri Sep 22 17:14:55 2023.
