 Gaussian 16, Revision A.03,
 Gaussian 16:  ES64L-G16RevA.03 25-Dec-2016

 ----------
 # hf/3-21g
 ----------

 ------------------------
 tmpdir/M2_conf_240_2.gjf
 ------------------------
 Symbolic Z-matrix:
 Charge =  0 Multiplicity = 1

                         Standard orientation:
 ---------------------------------------------------------------------
 Center     Atomic      Atomic             Coordinates (Angstroms)
 Number     Number       Type             X           Y           Z
 ---------------------------------------------------------------------
      1          6           0        0.030658   -0.005447   -0.000014
      2          1           0        0.453686    1.003377   -0.012527
      3          1           0        0.273456   -0.541204    0.897880
      4          1           0        0.267847   -0.561634   -0.887155
      5          1           0       -1.178938    0.132143    0.001885
 ---------------------------------------------------------------------

 SCF Done:  E(RHF) =  -39.9668443044     A.U. after    9 cycles

 The electronic state is 1-A.
 Alpha  occ. eigenvalues --  -11.15964  -0.93555  -0.55671  -0.55198  -0.50255
 Alpha virt. eigenvalues --    0.28240   0.32082   0.35280   0.35689   0.91871
 Alpha virt. eigenvalues --    0.92801   0.97741   1.24960   1.31500   1.35850
 Alpha virt. eigenvalues --    1.36897   1.94406

 Mulliken charges:
               1
     1  C   -0.767706
     2  H    0.201147
     3  H    0.207204
     4  H    0.207156
     5  H    0.152199
 Sum of Mulliken charges =   0.00000

 Dipole moment (field-independent basis, Debye):
    X=              0.0632    Y=             -0.0199    Z=              0.0001  Tot=              0.0663
 Quadrupole moment (field-independent basis, Debye-Ang):
   XX=             -8.6714   YY=             -8.3997   ZZ=             -8.4102
   XY=              0.0350   XZ=              0.0012   YZ=              0.0003

 Normal termination of Gaussian 16 at Fri Sep 22 17:20:13 2023.
