 Gaussian 16, Revision A.03,
 Gaussian 16:  ES64L-G16RevA.03 25-Dec-2016

 ----------
 # hf/3-21g
 ----------

 ------------------------
 tmpdir/M2_conf_232_3.gjf
 ------------------------
 Symbolic Z-matrix:
 Charge =  0 Multiplicity = 1

                         Standard orientation:
 ---------------------------------------------------------------------
 Center     Atomic      Atomic             Coordinates (Angstroms)
 Number     Number       Type             X           Y           Z
 ---------------------------------------------------------------------
      1          6           0       -2.120291    0.000009    0.000008
      2         17           0        1.175509   -0.000008   -0.000002
      3          1           0       -2.420660   -0.278195    0.992266
      4          1           0       -2.420347    0.998717   -0.255262
      5          1           0       -2.420897   -0.720436   -0.737023
 ---------------------------------------------------------------------

 SCF Done:  E(RHF) =  -496.536721394     A.U. after   11 cycles

 The electronic state is 1-A.
 Alpha  occ. eigenvalues -- -104.01534 -11.36710 -10.40233  -7.86552  -7.86354
 Alpha  occ. eigenvalues --   -7.86354  -1.04875  -0.94986  -0.70041  -0.70036
 Alpha  occ. eigenvalues --   -0.36868  -0.36868  -0.34087
 Alpha virt. eigenvalues --   -0.07905   0.21311   0.26028   0.26031   0.72383
 Alpha virt. eigenvalues --    0.79392   0.79404   0.84016   0.89598   0.89600
 Alpha virt. eigenvalues --    0.98254   1.14877   1.23026   1.23035   1.65947

 Mulliken charges:
               1
     1  C   -0.347017
     2  Cl  -0.557225
     3  H    0.301419
     4  H    0.301426
     5  H    0.301397
 Sum of Mulliken charges =  -0.00000

 Dipole moment (field-independent basis, Debye):
    X=             -9.1618    Y=              0.0001    Z=              0.0001  Tot=              9.1618
 Quadrupole moment (field-independent basis, Debye-Ang):
   XX=             -8.5534   YY=            -20.3987   ZZ=            -20.4003
   XY=              0.0002   XZ=              0.0000   YZ=             -0.0001

 Normal termination of Gaussian 16 at Fri Sep 22 17:20:01 2023.
