 Gaussian 16, Revision A.03,
 Gaussian 16:  ES64L-G16RevA.03 25-Dec-2016

 ----------
 # hf/3-21g
 ----------

 ------------------------
 tmpdir/M2_conf_170_6.gjf
 ------------------------
 Symbolic Z-matrix:
 Charge =  0 Multiplicity = 1

                         Standard orientation:
 ---------------------------------------------------------------------
 Center     Atomic      Atomic             Coordinates (Angstroms)
 Number     Number       Type             X           Y           Z
 ---------------------------------------------------------------------
      1          1           0       -1.117451   -0.002131    1.060485
      2          6           0       -1.204639    0.000033   -0.009366
      3         17           0        0.687260    0.000019   -0.013952
      4          1           0       -1.668891    0.893494   -0.381937
      5          1           0       -1.669253   -0.891883   -0.385168
 ---------------------------------------------------------------------

 SCF Done:  E(RHF) =  -496.670143601     A.U. after   11 cycles

 The electronic state is 1-A.
 Alpha  occ. eigenvalues -- -104.08985 -11.24902 -10.48393  -7.94763  -7.94357
 Alpha  occ. eigenvalues --   -7.94350  -1.11822  -0.93200  -0.63922  -0.63145
 Alpha  occ. eigenvalues --   -0.50764  -0.44116  -0.43099
 Alpha virt. eigenvalues --    0.15531   0.27517   0.31433   0.31531   0.74035
 Alpha virt. eigenvalues --    0.79552   0.80948   0.85434   0.92690   0.96062
 Alpha virt. eigenvalues --    1.01110   1.29795   1.31170   1.32252   1.89218

 Mulliken charges:
               1
     1  H    0.282996
     2  C   -0.706363
     3  Cl  -0.108869
     4  H    0.266126
     5  H    0.266111
 Sum of Mulliken charges =  -0.00000

 Dipole moment (field-independent basis, Debye):
    X=             -2.8007    Y=             -0.0004    Z=              0.2155  Tot=              2.8090
 Quadrupole moment (field-independent basis, Debye-Ang):
   XX=            -18.5253   YY=            -20.1804   ZZ=            -20.4130
   XY=             -0.0007   XZ=              0.5188   YZ=             -0.0001

 Normal termination of Gaussian 16 at Fri Sep 22 17:18:22 2023.
