 Gaussian 16, Revision A.03,
 Gaussian 16:  ES64L-G16RevA.03 25-Dec-2016

 ----------
 # hf/3-21g
 ----------

 ------------------------
 tmpdir/M2_conf_138_3.gjf
 ------------------------
 Symbolic Z-matrix:
 Charge =  0 Multiplicity = 1

                         Standard orientation:
 ---------------------------------------------------------------------
 Center     Atomic      Atomic             Coordinates (Angstroms)
 Number     Number       Type             X           Y           Z
 ---------------------------------------------------------------------
      1          6           0       -1.473441    0.000015    0.000010
      2         17           0        0.833059   -0.000012   -0.000003
      3          1           0       -1.773809   -0.278188    0.992268
      4          1           0       -1.773491    0.998725   -0.255259
      5          1           0       -1.774053   -0.720428   -0.737022
 ---------------------------------------------------------------------

 SCF Done:  E(RHF) =  -496.654649859     A.U. after   10 cycles

 The electronic state is 1-A.
 Alpha  occ. eigenvalues -- -104.07715 -11.29280 -10.46438  -7.92763  -7.92491
 Alpha  occ. eigenvalues --   -7.92491  -1.04191  -0.96825  -0.64197  -0.64193
 Alpha  occ. eigenvalues --   -0.44586  -0.42267  -0.42267
 Alpha virt. eigenvalues --    0.05213   0.25657   0.30390   0.30394   0.73306
 Alpha virt. eigenvalues --    0.78958   0.78963   0.88142   0.93460   0.93469
 Alpha virt. eigenvalues --    1.01805   1.27832   1.28842   1.28851   1.81539

 Mulliken charges:
               1
     1  C   -0.493230
     2  Cl  -0.320432
     3  H    0.271236
     4  H    0.271230
     5  H    0.271196
 Sum of Mulliken charges =   0.00000

 Dipole moment (field-independent basis, Debye):
    X=             -4.4972    Y=              0.0001    Z=              0.0001  Tot=              4.4972
 Quadrupole moment (field-independent basis, Debye-Ang):
   XX=            -15.7511   YY=            -20.3961   ZZ=            -20.3975
   XY=              0.0005   XZ=             -0.0001   YZ=             -0.0001

 Normal termination of Gaussian 16 at Fri Sep 22 17:17:33 2023.
