 Gaussian 16, Revision A.03,
 Gaussian 16:  ES64L-G16RevA.03 25-Dec-2016

 ----------
 # hf/3-21g
 ----------

 ------------------------
 tmpdir/M2_conf_281_8.gjf
 ------------------------
 Symbolic Z-matrix:
 Charge =  0 Multiplicity = 1

                         Standard orientation:
 ---------------------------------------------------------------------
 Center     Atomic      Atomic             Coordinates (Angstroms)
 Number     Number       Type             X           Y           Z
 ---------------------------------------------------------------------
      1          1           0        0.511294    0.000045    0.760296
      2          6           0        1.218211    0.000018   -0.047718
      3         17           0       -0.673476   -0.000010   -0.019389
      4          1           0        1.814096    0.892486   -0.072205
      5          1           0        1.814446   -0.892464   -0.072171
 ---------------------------------------------------------------------

 SCF Done:  E(RHF) =  -496.504889541     A.U. after   12 cycles

 The electronic state is 1-A.
 Alpha  occ. eigenvalues -- -104.11947 -11.21978 -10.51949  -7.98315  -7.97802
 Alpha  occ. eigenvalues --   -7.97734  -1.19434  -0.91629  -0.67452  -0.61973
 Alpha  occ. eigenvalues --   -0.52155  -0.47294  -0.36679
 Alpha virt. eigenvalues --    0.11027   0.31207   0.32830   0.33644   0.73394
 Alpha virt. eigenvalues --    0.76771   0.79160   0.83269   0.91281   0.98707
 Alpha virt. eigenvalues --    1.04223   1.20071   1.31932   1.32691   1.80997

 Mulliken charges:
               1
     1  H    0.289480
     2  C   -0.757757
     3  Cl  -0.073287
     4  H    0.270800
     5  H    0.270764
 Sum of Mulliken charges =  -0.00000

 Dipole moment (field-independent basis, Debye):
    X=              1.7012    Y=              0.0001    Z=              0.7249  Tot=              1.8492
 Quadrupole moment (field-independent basis, Debye-Ang):
   XX=            -18.9344   YY=            -19.9748   ZZ=            -21.6604
   XY=             -0.0003   XZ=             -0.3709   YZ=              0.0000

 Normal termination of Gaussian 16 at Fri Sep 22 17:21:16 2023.
