 Gaussian 16, Revision A.03,
 Gaussian 16:  ES64L-G16RevA.03 25-Dec-2016

 ----------
 # hf/3-21g
 ----------

 -----------------------
 tmpdir/M2_conf_78_4.gjf
 -----------------------
 Symbolic Z-matrix:
 Charge =  0 Multiplicity = 1

                         Standard orientation:
 ---------------------------------------------------------------------
 Center     Atomic      Atomic             Coordinates (Angstroms)
 Number     Number       Type             X           Y           Z
 ---------------------------------------------------------------------
      1          1           0       -0.739887    0.724692   -0.349012
      2          6           0       -0.033026   -0.010845   -0.015065
      3          1           0        0.307610   -0.749304   -0.715972
      4          1           0       -0.350713   -0.507967    0.881901
      5          1           0        0.981148    0.597651    0.273475
 ---------------------------------------------------------------------

 SCF Done:  E(RHF) =  -39.9652212919     A.U. after    9 cycles

 The electronic state is 1-A.
 Alpha  occ. eigenvalues --  -11.15740  -0.93800  -0.56819  -0.54765  -0.49911
 Alpha virt. eigenvalues --    0.28331   0.31985   0.35294   0.36141   0.91072
 Alpha virt. eigenvalues --    0.93288   0.97421   1.25223   1.31989   1.36138
 Alpha virt. eigenvalues --    1.38147   1.94649

 Mulliken charges:
               1
     1  H    0.208835
     2  C   -0.773429
     3  H    0.208483
     4  H    0.206048
     5  H    0.150063
 Sum of Mulliken charges =  -0.00000

 Dipole moment (field-independent basis, Debye):
    X=             -0.0332    Y=             -0.0568    Z=              0.0071  Tot=              0.0662
 Quadrupole moment (field-independent basis, Debye-Ang):
   XX=             -8.5157   YY=             -8.3474   ZZ=             -8.5864
   XY=             -0.2278   XZ=             -0.0920   YZ=             -0.0610

 Normal termination of Gaussian 16 at Fri Sep 22 17:16:04 2023.
