 Gaussian 16, Revision A.03,
 Gaussian 16:  ES64L-G16RevA.03 25-Dec-2016

 ----------
 # hf/3-21g
 ----------

 ------------------------
 tmpdir/M2_conf_113_8.gjf
 ------------------------
 Symbolic Z-matrix:
 Charge =  0 Multiplicity = 1

                         Standard orientation:
 ---------------------------------------------------------------------
 Center     Atomic      Atomic             Coordinates (Angstroms)
 Number     Number       Type             X           Y           Z
 ---------------------------------------------------------------------
      1          1           0       -1.509499    0.977699   -0.320509
      2          6           0       -1.202362    0.000159   -0.000042
      3         17           0        0.689537    0.000261   -0.000090
      4          1           0       -1.499160   -0.213381    1.009161
      5          1           0       -1.499303   -0.769712   -0.686877
 ---------------------------------------------------------------------

 SCF Done:  E(RHF) =  -496.689477782     A.U. after   10 cycles

 The electronic state is 1-A.
 Alpha  occ. eigenvalues -- -104.08772 -11.25001 -10.48161  -7.94536  -7.94132
 Alpha  occ. eigenvalues --   -7.94132  -1.11280  -0.93337  -0.63247  -0.63244
 Alpha  occ. eigenvalues --   -0.51323  -0.43731  -0.43722
 Alpha virt. eigenvalues --    0.16606   0.27332   0.31376   0.31380   0.73825
 Alpha virt. eigenvalues --    0.80662   0.80703   0.85498   0.93609   0.93715
 Alpha virt. eigenvalues --    0.99526   1.31223   1.31233   1.32197   1.92008

 Mulliken charges:
               1
     1  H    0.269643
     2  C   -0.702614
     3  Cl  -0.107062
     4  H    0.270040
     5  H    0.269992
 Sum of Mulliken charges =  -0.00000

 Dipole moment (field-independent basis, Debye):
    X=             -2.8663    Y=             -0.0036    Z=              0.0013  Tot=              2.8663
 Quadrupole moment (field-independent basis, Debye-Ang):
   XX=            -18.5704   YY=            -20.1798   ZZ=            -20.1810
   XY=             -0.0096   XZ=              0.0031   YZ=             -0.0000

 Normal termination of Gaussian 16 at Fri Sep 22 17:16:56 2023.
