 Gaussian 16, Revision A.03,
 Gaussian 16:  ES64L-G16RevA.03 25-Dec-2016

 ----------
 # hf/3-21g
 ----------

 ------------------------
 tmpdir/M2_conf_131_8.gjf
 ------------------------
 Symbolic Z-matrix:
 Charge =  0 Multiplicity = 1

                         Standard orientation:
 ---------------------------------------------------------------------
 Center     Atomic      Atomic             Coordinates (Angstroms)
 Number     Number       Type             X           Y           Z
 ---------------------------------------------------------------------
      1          1           0       -1.375321   -0.014858    1.056883
      2          6           0       -1.202616    0.000025   -0.002630
      3         17           0        0.689281    0.000076   -0.005041
      4          1           0       -1.563289   -0.885680   -0.490094
      5          1           0       -1.563472    0.899098   -0.465306
 ---------------------------------------------------------------------

 SCF Done:  E(RHF) =  -496.687462234     A.U. after   11 cycles

 The electronic state is 1-A.
 Alpha  occ. eigenvalues -- -104.08792 -11.24995 -10.48182  -7.94556  -7.94152
 Alpha  occ. eigenvalues --   -7.94151  -1.11331  -0.93323  -0.63353  -0.63205
 Alpha  occ. eigenvalues --   -0.51246  -0.43813  -0.43617
 Alpha virt. eigenvalues --    0.16476   0.27339   0.31370   0.31413   0.73852
 Alpha virt. eigenvalues --    0.80299   0.80981   0.85577   0.92843   0.94509
 Alpha virt. eigenvalues --    0.99790   1.31014   1.31190   1.32302   1.91701

 Mulliken charges:
               1
     1  H    0.274366
     2  C   -0.703290
     3  Cl  -0.107050
     4  H    0.268011
     5  H    0.267963
 Sum of Mulliken charges =   0.00000

 Dipole moment (field-independent basis, Debye):
    X=             -2.8600    Y=             -0.0011    Z=              0.0688  Tot=              2.8609
 Quadrupole moment (field-independent basis, Debye-Ang):
   XX=            -18.5635   YY=            -20.1831   ZZ=            -20.2041
   XY=             -0.0026   XZ=              0.1885   YZ=             -0.0000

 Normal termination of Gaussian 16 at Fri Sep 22 17:17:23 2023.
