 Gaussian 16, Revision A.03,
 Gaussian 16:  ES64L-G16RevA.03 25-Dec-2016

 ----------
 # hf/3-21g
 ----------

 ------------------------
 tmpdir/M2_conf_112_8.gjf
 ------------------------
 Symbolic Z-matrix:
 Charge =  0 Multiplicity = 1

                         Standard orientation:
 ---------------------------------------------------------------------
 Center     Atomic      Atomic             Coordinates (Angstroms)
 Number     Number       Type             X           Y           Z
 ---------------------------------------------------------------------
      1          1           0       -1.543108   -0.219821    0.994969
      2          6           0       -1.202386   -0.000196    0.000842
      3         17           0        0.689510   -0.000351    0.001606
      4          1           0       -1.482054   -0.758013   -0.706037
      5          1           0       -1.482186    0.984977   -0.321286
 ---------------------------------------------------------------------

 SCF Done:  E(RHF) =  -496.689278184     A.U. after   11 cycles

 The electronic state is 1-A.
 Alpha  occ. eigenvalues -- -104.08774 -11.25001 -10.48163  -7.94538  -7.94134
 Alpha  occ. eigenvalues --   -7.94134  -1.11285  -0.93335  -0.63259  -0.63239
 Alpha  occ. eigenvalues --   -0.51315  -0.43747  -0.43704
 Alpha virt. eigenvalues --    0.16592   0.27332   0.31370   0.31389   0.73828
 Alpha virt. eigenvalues --    0.80552   0.80808   0.85509   0.93373   0.93942
 Alpha virt. eigenvalues --    0.99560   1.31177   1.31244   1.32219   1.91979

 Mulliken charges:
               1
     1  H    0.268489
     2  C   -0.702709
     3  Cl  -0.107042
     4  H    0.270655
     5  H    0.270607
 Sum of Mulliken charges =  -0.00000

 Dipole moment (field-independent basis, Debye):
    X=             -2.8657    Y=              0.0045    Z=             -0.0211  Tot=              2.8658
 Quadrupole moment (field-independent basis, Debye-Ang):
   XX=            -18.5697   YY=            -20.1802   ZZ=            -20.1833
   XY=              0.0133   XZ=             -0.0598   YZ=              0.0004

 Normal termination of Gaussian 16 at Fri Sep 22 17:16:55 2023.
