 Gaussian 16, Revision A.03,
 Gaussian 16:  ES64L-G16RevA.03 25-Dec-2016

 ----------
 # hf/3-21g
 ----------

 -----------------------
 tmpdir/M2_conf_56_3.gjf
 -----------------------
 Symbolic Z-matrix:
 Charge =  0 Multiplicity = 1

                         Standard orientation:
 ---------------------------------------------------------------------
 Center     Atomic      Atomic             Coordinates (Angstroms)
 Number     Number       Type             X           Y           Z
 ---------------------------------------------------------------------
      1          6           0       -1.336722    0.000017    0.000010
      2         17           0        0.760678   -0.000013   -0.000003
      3          1           0       -1.637090   -0.278185    0.992268
      4          1           0       -1.636769    0.998728   -0.255258
      5          1           0       -1.637337   -0.720424   -0.737021
 ---------------------------------------------------------------------

 SCF Done:  E(RHF) =  -496.678601139     A.U. after   10 cycles

 The electronic state is 1-A.
 Alpha  occ. eigenvalues -- -104.08529 -11.27186 -10.47483  -7.93827  -7.93503
 Alpha  occ. eigenvalues --   -7.93503  -1.07056  -0.95258  -0.63353  -0.63348
 Alpha  occ. eigenvalues --   -0.47843  -0.43249  -0.43249
 Alpha virt. eigenvalues --    0.10232   0.26526   0.31038   0.31041   0.73478
 Alpha virt. eigenvalues --    0.79707   0.79712   0.86104   0.93658   0.93668
 Alpha virt. eigenvalues --    1.03138   1.29900   1.30164   1.30174   1.85884

 Mulliken charges:
               1
     1  C   -0.584032
     2  Cl  -0.225589
     3  H    0.269894
     4  H    0.269880
     5  H    0.269848
 Sum of Mulliken charges =  -0.00000

 Dipole moment (field-independent basis, Debye):
    X=             -3.6252    Y=              0.0001    Z=              0.0001  Tot=              3.6252
 Quadrupole moment (field-independent basis, Debye-Ang):
   XX=            -17.2193   YY=            -20.3224   ZZ=            -20.3237
   XY=              0.0006   XZ=             -0.0001   YZ=             -0.0001

 Normal termination of Gaussian 16 at Fri Sep 22 17:15:31 2023.
