 Gaussian 16, Revision A.03,
 Gaussian 16:  ES64L-G16RevA.03 25-Dec-2016

 ----------
 # hf/3-21g
 ----------

 ------------------------
 tmpdir/M2_conf_211_1.gjf
 ------------------------
 Symbolic Z-matrix:
 Charge =  0 Multiplicity = 1

                         Standard orientation:
 ---------------------------------------------------------------------
 Center     Atomic      Atomic             Coordinates (Angstroms)
 Number     Number       Type             X           Y           Z
 ---------------------------------------------------------------------
      1          6           0       -0.031963   -0.000061    0.003371
      2          1           0       -0.269469   -0.009094    1.033713
      3          1           0       -0.360205   -0.888544   -0.501639
      4          1           0       -0.362024    0.896336   -0.486668
      5          1           0        1.183476    0.001669   -0.065636
 ---------------------------------------------------------------------

 SCF Done:  E(RHF) =  -39.9666128480     A.U. after    9 cycles

 The electronic state is 1-A.
 Alpha  occ. eigenvalues --  -11.15536  -0.93963  -0.55991  -0.55611  -0.50277
 Alpha virt. eigenvalues --    0.28371   0.32328   0.35686   0.36030   0.91197
 Alpha virt. eigenvalues --    0.91950   0.97589   1.25142   1.32995   1.36977
 Alpha virt. eigenvalues --    1.38108   1.94856

 Mulliken charges:
               1
     1  C   -0.772857
     2  H    0.210493
     3  H    0.205875
     4  H    0.205820
     5  H    0.150668
 Sum of Mulliken charges =   0.00000

 Dipole moment (field-independent basis, Debye):
    X=             -0.0745    Y=             -0.0003    Z=              0.0136  Tot=              0.0758
 Quadrupole moment (field-independent basis, Debye-Ang):
   XX=             -8.6408   YY=             -8.3749   ZZ=             -8.3869
   XY=             -0.0005   XZ=              0.0175   YZ=             -0.0001

 Normal termination of Gaussian 16 at Fri Sep 22 17:19:29 2023.
