 Gaussian 16, Revision A.03,
 Gaussian 16:  ES64L-G16RevA.03 25-Dec-2016

 ----------
 # hf/3-21g
 ----------

 -----------------------
 tmpdir/M2_conf_89_7.gjf
 -----------------------
 Symbolic Z-matrix:
 Charge =  0 Multiplicity = 1

                         Standard orientation:
 ---------------------------------------------------------------------
 Center     Atomic      Atomic             Coordinates (Angstroms)
 Number     Number       Type             X           Y           Z
 ---------------------------------------------------------------------
      1          1           0        0.401485   -0.259137    0.963301
      2          6           0        0.025661    0.013334   -0.004756
      3          1           0        0.573533   -0.538429   -0.745031
      4          1           0        0.004067    1.076256   -0.152755
      5          1           0       -1.133053   -0.358691   -0.036981
 ---------------------------------------------------------------------

 SCF Done:  E(RHF) =  -39.9666265855     A.U. after    9 cycles

 The electronic state is 1-A.
 Alpha  occ. eigenvalues --  -11.15720  -0.93792  -0.56295  -0.54753  -0.50460
 Alpha virt. eigenvalues --    0.28286   0.32314   0.35347   0.35954   0.91173
 Alpha virt. eigenvalues --    0.92582   0.97882   1.24949   1.32672   1.36119
 Alpha virt. eigenvalues --    1.37666   1.94537

 Mulliken charges:
               1
     1  H    0.205337
     2  C   -0.771080
     3  H    0.206131
     4  H    0.207106
     5  H    0.152507
 Sum of Mulliken charges =  -0.00000

 Dipole moment (field-independent basis, Debye):
    X=              0.0842    Y=              0.0089    Z=              0.0265  Tot=              0.0887
 Quadrupole moment (field-independent basis, Debye-Ang):
   XX=             -8.5477   YY=             -8.3481   ZZ=             -8.5383
   XY=             -0.1393   XZ=             -0.0198   YZ=             -0.0043

 Normal termination of Gaussian 16 at Fri Sep 22 17:16:20 2023.
