 Gaussian 16, Revision A.03,
 Gaussian 16:  ES64L-G16RevA.03 25-Dec-2016

 ----------
 # hf/3-21g
 ----------

 -----------------------
 tmpdir/M2_conf_80_3.gjf
 -----------------------
 Symbolic Z-matrix:
 Charge =  0 Multiplicity = 1

                         Standard orientation:
 ---------------------------------------------------------------------
 Center     Atomic      Atomic             Coordinates (Angstroms)
 Number     Number       Type             X           Y           Z
 ---------------------------------------------------------------------
      1          6           0       -1.314949    0.000017    0.000010
      2         17           0        0.749151   -0.000013   -0.000003
      3          1           0       -1.615317   -0.278185    0.992268
      4          1           0       -1.614996    0.998729   -0.255258
      5          1           0       -1.615564   -0.720424   -0.737021
 ---------------------------------------------------------------------

 SCF Done:  E(RHF) =  -496.681531064     A.U. after   10 cycles

 The electronic state is 1-A.
 Alpha  occ. eigenvalues -- -104.08610 -11.26840 -10.47619  -7.93966  -7.93632
 Alpha  occ. eigenvalues --   -7.93632  -1.07632  -0.94972  -0.63275  -0.63270
 Alpha  occ. eigenvalues --   -0.48391  -0.43369  -0.43369
 Alpha virt. eigenvalues --    0.11161   0.26658   0.31115   0.31119   0.73518
 Alpha virt. eigenvalues --    0.79860   0.79864   0.85892   0.93657   0.93668
 Alpha virt. eigenvalues --    1.02905   1.30246   1.30358   1.30368   1.86758

 Mulliken charges:
               1
     1  C   -0.601371
     2  Cl  -0.208202
     3  H    0.269879
     4  H    0.269863
     5  H    0.269831
 Sum of Mulliken charges =  -0.00000

 Dipole moment (field-independent basis, Debye):
    X=             -3.4949    Y=              0.0001    Z=              0.0001  Tot=              3.4949
 Quadrupole moment (field-independent basis, Debye-Ang):
   XX=            -17.4463   YY=            -20.3046   ZZ=            -20.3060
   XY=              0.0006   XZ=             -0.0001   YZ=             -0.0001

 Normal termination of Gaussian 16 at Fri Sep 22 17:16:07 2023.
