 Gaussian 16, Revision A.03,
 Gaussian 16:  ES64L-G16RevA.03 25-Dec-2016

 ----------
 # hf/3-21g
 ----------

 ------------------------
 tmpdir/M2_conf_144_8.gjf
 ------------------------
 Symbolic Z-matrix:
 Charge =  0 Multiplicity = 1

                         Standard orientation:
 ---------------------------------------------------------------------
 Center     Atomic      Atomic             Coordinates (Angstroms)
 Number     Number       Type             X           Y           Z
 ---------------------------------------------------------------------
      1          1           0       -1.328734   -0.007722    1.062505
      2          6           0       -1.202832    0.000014   -0.003659
      3         17           0        0.689061    0.000055   -0.006806
      4          1           0       -1.584059   -0.889099   -0.468764
      5          1           0       -1.584255    0.895806   -0.456087
 ---------------------------------------------------------------------

 SCF Done:  E(RHF) =  -496.685700763     A.U. after   11 cycles

 The electronic state is 1-A.
 Alpha  occ. eigenvalues -- -104.08810 -11.24988 -10.48201  -7.94575  -7.94171
 Alpha  occ. eigenvalues --   -7.94169  -1.11378  -0.93310  -0.63422  -0.63194
 Alpha  occ. eigenvalues --   -0.51184  -0.43852  -0.43558
 Alpha virt. eigenvalues --    0.16369   0.27350   0.31374   0.31430   0.73875
 Alpha virt. eigenvalues --    0.80163   0.81034   0.85619   0.92627   0.94806
 Alpha virt. eigenvalues --    0.99981   1.30850   1.31180   1.32342   1.91433

 Mulliken charges:
               1
     1  H    0.275992
     2  C   -0.703768
     3  Cl  -0.107120
     4  H    0.267472
     5  H    0.267424
 Sum of Mulliken charges =   0.00000

 Dipole moment (field-independent basis, Debye):
    X=             -2.8544    Y=             -0.0008    Z=              0.0946  Tot=              2.8560
 Quadrupole moment (field-independent basis, Debye-Ang):
   XX=            -18.5582   YY=            -20.1836   ZZ=            -20.2262
   XY=             -0.0019   XZ=              0.2543   YZ=              0.0000

 Normal termination of Gaussian 16 at Fri Sep 22 17:17:42 2023.
