 Gaussian 16, Revision A.03,
 Gaussian 16:  ES64L-G16RevA.03 25-Dec-2016

 ----------
 # hf/3-21g
 ----------

 -----------------------
 tmpdir/M2_conf_66_8.gjf
 -----------------------
 Symbolic Z-matrix:
 Charge =  0 Multiplicity = 1

                         Standard orientation:
 ---------------------------------------------------------------------
 Center     Atomic      Atomic             Coordinates (Angstroms)
 Number     Number       Type             X           Y           Z
 ---------------------------------------------------------------------
      1          1           0       -1.240764   -0.003250    1.067167
      2          6           0       -1.203426    0.000004   -0.005778
      3         17           0        0.688474    0.000036   -0.009975
      4          1           0       -1.621260   -0.891166   -0.434042
      5          1           0       -1.621479    0.893777   -0.428886
 ---------------------------------------------------------------------

 SCF Done:  E(RHF) =  -496.680803790     A.U. after   11 cycles

 The electronic state is 1-A.
 Alpha  occ. eigenvalues -- -104.08862 -11.24966 -10.48257  -7.94630  -7.94225
 Alpha  occ. eigenvalues --   -7.94222  -1.11511  -0.93276  -0.63594  -0.63174
 Alpha  occ. eigenvalues --   -0.51028  -0.43943  -0.43410
 Alpha virt. eigenvalues --    0.16086   0.27390   0.31391   0.31467   0.73933
 Alpha virt. eigenvalues --    0.79909   0.81055   0.85638   0.92438   0.95345
 Alpha virt. eigenvalues --    1.00419   1.30473   1.31169   1.32357   1.90700

 Mulliken charges:
               1
     1  H    0.278980
     2  C   -0.704800
     3  Cl  -0.107526
     4  H    0.266697
     5  H    0.266649
 Sum of Mulliken charges =  -0.00000

 Dipole moment (field-independent basis, Debye):
    X=             -2.8383    Y=             -0.0006    Z=              0.1440  Tot=              2.8419
 Quadrupole moment (field-independent basis, Debye-Ang):
   XX=            -18.5451   YY=            -20.1837   ZZ=            -20.2867
   XY=             -0.0012   XZ=              0.3724   YZ=              0.0000

 Normal termination of Gaussian 16 at Fri Sep 22 17:15:46 2023.
