 Gaussian 16, Revision A.03,
 Gaussian 16:  ES64L-G16RevA.03 25-Dec-2016

 ----------
 # hf/3-21g
 ----------

 -----------------------
 tmpdir/M2_conf_69_7.gjf
 -----------------------
 Symbolic Z-matrix:
 Charge =  0 Multiplicity = 1

                         Standard orientation:
 ---------------------------------------------------------------------
 Center     Atomic      Atomic             Coordinates (Angstroms)
 Number     Number       Type             X           Y           Z
 ---------------------------------------------------------------------
      1          1           0        0.354909   -0.308559    0.971707
      2          6           0        0.029682    0.006017   -0.001888
      3          1           0        0.444030   -0.628933   -0.761997
      4          1           0        0.200398    1.051675   -0.174018
      5          1           0       -1.177432   -0.150285   -0.024367
 ---------------------------------------------------------------------

 SCF Done:  E(RHF) =  -39.9669672098     A.U. after    9 cycles

 The electronic state is 1-A.
 Alpha  occ. eigenvalues --  -11.15723  -0.93780  -0.55927  -0.55248  -0.50360
 Alpha virt. eigenvalues --    0.28306   0.32276   0.35536   0.35809   0.91568
 Alpha virt. eigenvalues --    0.92206   0.97734   1.25015   1.32566   1.36568
 Alpha virt. eigenvalues --    1.37250   1.94614

 Mulliken charges:
               1
     1  H    0.205895
     2  C   -0.770640
     3  H    0.206185
     4  H    0.206718
     5  H    0.151843
 Sum of Mulliken charges =   0.00000

 Dipole moment (field-independent basis, Debye):
    X=              0.0764    Y=              0.0026    Z=              0.0120  Tot=              0.0774
 Quadrupole moment (field-independent basis, Debye-Ang):
   XX=             -8.6254   YY=             -8.3549   ZZ=             -8.4553
   XY=             -0.0609   XZ=             -0.0125   YZ=             -0.0008

 Normal termination of Gaussian 16 at Fri Sep 22 17:15:51 2023.
