 Gaussian 16, Revision A.03,
 Gaussian 16:  ES64L-G16RevA.03 25-Dec-2016

 ----------
 # hf/3-21g
 ----------

 ------------------------
 tmpdir/M2_conf_119_9.gjf
 ------------------------
 Symbolic Z-matrix:
 Charge =  0 Multiplicity = 1

                         Standard orientation:
 ---------------------------------------------------------------------
 Center     Atomic      Atomic             Coordinates (Angstroms)
 Number     Number       Type             X           Y           Z
 ---------------------------------------------------------------------
      1          1           0        1.411152   -0.053225    1.049874
      2          6           0        1.202488    0.000105   -0.001902
      3         17           0       -0.689409    0.000177   -0.003647
      4          1           0        1.547085   -0.866620   -0.533161
      5          1           0        1.546788    0.916197   -0.443307
 ---------------------------------------------------------------------

 SCF Done:  E(RHF) =  -496.688439273     A.U. after   11 cycles

 The electronic state is 1-A.
 Alpha  occ. eigenvalues -- -104.08782 -11.24998 -10.48172  -7.94546  -7.94143
 Alpha  occ. eigenvalues --   -7.94142  -1.11306  -0.93330  -0.63308  -0.63217
 Alpha  occ. eigenvalues --   -0.51283  -0.43786  -0.43655
 Alpha virt. eigenvalues --    0.16538   0.27335   0.31368   0.31403   0.73839
 Alpha virt. eigenvalues --    0.80405   0.80918   0.85544   0.93048   0.94280
 Alpha virt. eigenvalues --    0.99671   1.31112   1.31201   1.32264   1.91851

 Mulliken charges:
               1
     1  H    0.273097
     2  C   -0.702991
     3  Cl  -0.107025
     4  H    0.268471
     5  H    0.268448
 Sum of Mulliken charges =  -0.00000

 Dipole moment (field-independent basis, Debye):
    X=              2.8631    Y=             -0.0025    Z=              0.0493  Tot=              2.8635
 Quadrupole moment (field-independent basis, Debye-Ang):
   XX=            -18.5665   YY=            -20.1822   ZZ=            -20.1925
   XY=              0.0064   XZ=             -0.1363   YZ=             -0.0002

 Normal termination of Gaussian 16 at Fri Sep 22 17:17:05 2023.
