 Gaussian 16, Revision A.03,
 Gaussian 16:  ES64L-G16RevA.03 25-Dec-2016

 ----------
 # hf/3-21g
 ----------

 ------------------------
 tmpdir/M2_conf_276_3.gjf
 ------------------------
 Symbolic Z-matrix:
 Charge =  0 Multiplicity = 1

                         Standard orientation:
 ---------------------------------------------------------------------
 Center     Atomic      Atomic             Coordinates (Angstroms)
 Number     Number       Type             X           Y           Z
 ---------------------------------------------------------------------
      1          6           0       -2.483045    0.000007    0.000008
      2         17           0        1.367555   -0.000007   -0.000002
      3          1           0       -2.783414   -0.278197    0.992265
      4          1           0       -2.783102    0.998714   -0.255263
      5          1           0       -2.783649   -0.720439   -0.737023
 ---------------------------------------------------------------------

 SCF Done:  E(RHF) =  -496.496035901     A.U. after   10 cycles

 The electronic state is 1-A.
 Alpha  occ. eigenvalues -- -103.98626 -11.38865 -10.37402  -7.83721  -7.83543
 Alpha  occ. eigenvalues --   -7.83543  -1.07009  -0.92593  -0.72251  -0.72246
 Alpha  occ. eigenvalues --   -0.34541  -0.34541  -0.30804
 Alpha virt. eigenvalues --   -0.11617   0.19592   0.24189   0.24192   0.74703
 Alpha virt. eigenvalues --    0.78445   0.78458   0.83517   0.90182   0.90182
 Alpha virt. eigenvalues --    0.95212   1.09311   1.20999   1.21008   1.61589

 Mulliken charges:
               1
     1  C   -0.336634
     2  Cl  -0.606965
     3  H    0.314536
     4  H    0.314545
     5  H    0.314519
 Sum of Mulliken charges =  -0.00000

 Dipole moment (field-independent basis, Debye):
    X=            -11.6090    Y=              0.0001    Z=              0.0001  Tot=             11.6090
 Quadrupole moment (field-independent basis, Debye-Ang):
   XX=             -4.3700   YY=            -20.3790   ZZ=            -20.3807
   XY=              0.0002   XZ=              0.0000   YZ=             -0.0001

 Normal termination of Gaussian 16 at Fri Sep 22 17:21:08 2023.
