 Gaussian 16, Revision A.03,
 Gaussian 16:  ES64L-G16RevA.03 25-Dec-2016

 ----------
 # hf/3-21g
 ----------

 -----------------------
 tmpdir/M2_conf_56_0.gjf
 -----------------------
 Symbolic Z-matrix:
 Charge =  0 Multiplicity = 1

                         Standard orientation:
 ---------------------------------------------------------------------
 Center     Atomic      Atomic             Coordinates (Angstroms)
 Number     Number       Type             X           Y           Z
 ---------------------------------------------------------------------
      1          6           0        0.017029   -0.025187    0.000056
      2          1           0        0.995443    0.577419    0.001615
      3          1           0       -0.107994   -0.607947    0.893019
      4          1           0       -0.103673   -0.609680   -0.892358
      5          1           0       -0.885948    0.791329   -0.002613
 ---------------------------------------------------------------------

 SCF Done:  E(RHF) =  -39.9641036179     A.U. after    9 cycles

 The electronic state is 1-A.
 Alpha  occ. eigenvalues --  -11.16605  -0.93034  -0.55766  -0.54071  -0.50175
 Alpha virt. eigenvalues --    0.27937   0.31507   0.34395   0.35685   0.91763
 Alpha virt. eigenvalues --    0.94735   0.98490   1.24462   1.28150   1.34441
 Alpha virt. eigenvalues --    1.36748   1.93787

 Mulliken charges:
               1
     1  C   -0.758353
     2  H    0.186111
     3  H    0.208946
     4  H    0.208944
     5  H    0.154352
 Sum of Mulliken charges =  -0.00000

 Dipole moment (field-independent basis, Debye):
    X=              0.0024    Y=             -0.0697    Z=              0.0001  Tot=              0.0698
 Quadrupole moment (field-independent basis, Debye-Ang):
   XX=             -8.5712   YY=             -8.5619   ZZ=             -8.4619
   XY=              0.1582   XZ=             -0.0011   YZ=              0.0006

 Normal termination of Gaussian 16 at Fri Sep 22 17:15:31 2023.
