 Gaussian 16, Revision A.03,
 Gaussian 16:  ES64L-G16RevA.03 25-Dec-2016

 ----------
 # hf/3-21g
 ----------

 ------------------------
 tmpdir/M2_conf_187_5.gjf
 ------------------------
 Symbolic Z-matrix:
 Charge =  0 Multiplicity = 1

                         Standard orientation:
 ---------------------------------------------------------------------
 Center     Atomic      Atomic             Coordinates (Angstroms)
 Number     Number       Type             X           Y           Z
 ---------------------------------------------------------------------
      1          1           0       -0.493693   -0.134547    0.931915
      2          6           0       -0.011181    0.024535   -0.013634
      3          1           0       -0.770847   -0.297812   -0.700377
      4          1           0        0.388721    1.016287   -0.109112
      5          1           0        0.942908   -0.731141   -0.040624
 ---------------------------------------------------------------------

 SCF Done:  E(RHF) =  -39.9635190936     A.U. after    9 cycles

 The electronic state is 1-A.
 Alpha  occ. eigenvalues --  -11.15722  -0.93876  -0.57340  -0.53321  -0.50677
 Alpha virt. eigenvalues --    0.28193   0.32333   0.34812   0.36294   0.90357
 Alpha virt. eigenvalues --    0.93604   0.98474   1.24761   1.32643   1.35047
 Alpha virt. eigenvalues --    1.39018   1.94086

 Mulliken charges:
               1
     1  H    0.204164
     2  C   -0.774645
     3  H    0.207078
     4  H    0.208713
     5  H    0.154690
 Sum of Mulliken charges =  -0.00000

 Dipole moment (field-independent basis, Debye):
    X=             -0.1118    Y=              0.0259    Z=              0.0694  Tot=              0.1342
 Quadrupole moment (field-independent basis, Debye-Ang):
   XX=             -8.2402   YY=             -8.4211   ZZ=             -8.7760
   XY=              0.2323   XZ=              0.0240   YZ=             -0.0130

 Normal termination of Gaussian 16 at Fri Sep 22 17:18:53 2023.
