 Gaussian 16, Revision A.03,
 Gaussian 16:  ES64L-G16RevA.03 25-Dec-2016

 ----------
 # hf/3-21g
 ----------

 ------------------------
 tmpdir/M2_conf_162_8.gjf
 ------------------------
 Symbolic Z-matrix:
 Charge =  0 Multiplicity = 1

                         Standard orientation:
 ---------------------------------------------------------------------
 Center     Atomic      Atomic             Coordinates (Angstroms)
 Number     Number       Type             X           Y           Z
 ---------------------------------------------------------------------
      1          1           0       -1.167184   -0.001892    1.065166
      2          6           0       -1.204095   -0.000001   -0.007798
      3         17           0        0.687804    0.000028   -0.012425
      4          1           0       -1.650342   -0.891767   -0.405032
      5          1           0       -1.650580    0.893181   -0.402128
 ---------------------------------------------------------------------

 SCF Done:  E(RHF) =  -496.675016799     A.U. after   11 cycles

 The electronic state is 1-A.
 Alpha  occ. eigenvalues -- -104.08928 -11.24934 -10.48329  -7.94700  -7.94295
 Alpha  occ. eigenvalues --   -7.94290  -1.11677  -0.93235  -0.63778  -0.63157
 Alpha  occ. eigenvalues --   -0.50873  -0.44038  -0.43242
 Alpha virt. eigenvalues --    0.15776   0.27453   0.31413   0.31504   0.73992
 Alpha virt. eigenvalues --    0.79696   0.81008   0.85551   0.92524   0.95773
 Alpha virt. eigenvalues --    1.00828   1.30097   1.31168   1.32302   1.89873

 Mulliken charges:
               1
     1  H    0.281380
     2  C   -0.705715
     3  Cl  -0.108207
     4  H    0.266294
     5  H    0.266248
 Sum of Mulliken charges =   0.00000

 Dipole moment (field-independent basis, Debye):
    X=             -2.8182    Y=             -0.0004    Z=              0.1862  Tot=              2.8244
 Quadrupole moment (field-independent basis, Debye-Ang):
   XX=            -18.5330   YY=            -20.1828   ZZ=            -20.3558
   XY=             -0.0009   XZ=              0.4632   YZ=              0.0000

 Normal termination of Gaussian 16 at Fri Sep 22 17:18:10 2023.
