 Gaussian 16, Revision A.03,
 Gaussian 16:  ES64L-G16RevA.03 25-Dec-2016

 ----------
 # hf/3-21g
 ----------

 -----------------------
 tmpdir/M2_conf_53_9.gjf
 -----------------------
 Symbolic Z-matrix:
 Charge =  0 Multiplicity = 1

                         Standard orientation:
 ---------------------------------------------------------------------
 Center     Atomic      Atomic             Coordinates (Angstroms)
 Number     Number       Type             X           Y           Z
 ---------------------------------------------------------------------
      1          1           0        1.623658   -0.023737    0.989894
      2          6           0        1.202598   -0.000048    0.002592
      3         17           0       -0.689295   -0.000129    0.004939
      4          1           0        1.439592   -0.879179   -0.565878
      5          1           0        1.439181    0.905399   -0.523526
 ---------------------------------------------------------------------

 SCF Done:  E(RHF) =  -496.687619575     A.U. after   11 cycles

 The electronic state is 1-A.
 Alpha  occ. eigenvalues -- -104.08789 -11.24996 -10.48178  -7.94552  -7.94148
 Alpha  occ. eigenvalues --   -7.94148  -1.11325  -0.93323  -0.63298  -0.63256
 Alpha  occ. eigenvalues --   -0.51246  -0.43766  -0.43664
 Alpha virt. eigenvalues --    0.16475   0.27330   0.31363   0.31424   0.73848
 Alpha virt. eigenvalues --    0.80266   0.81068   0.85599   0.92795   0.94403
 Alpha virt. eigenvalues --    0.99881   1.30907   1.31282   1.32364   1.91750

 Mulliken charges:
               1
     1  H    0.265863
     2  C   -0.703587
     3  Cl  -0.106801
     4  H    0.272272
     5  H    0.272252
 Sum of Mulliken charges =   0.00000

 Dipole moment (field-independent basis, Debye):
    X=              2.8608    Y=              0.0015    Z=             -0.0633  Tot=              2.8615
 Quadrupole moment (field-independent basis, Debye-Ang):
   XX=            -18.5629   YY=            -20.1779   ZZ=            -20.2078
   XY=             -0.0051   XZ=              0.1850   YZ=              0.0001

 Normal termination of Gaussian 16 at Fri Sep 22 17:15:26 2023.
