 Gaussian 16, Revision A.03,
 Gaussian 16:  ES64L-G16RevA.03 25-Dec-2016

 ----------
 # hf/3-21g
 ----------

 ------------------------
 tmpdir/M2_conf_187_9.gjf
 ------------------------
 Symbolic Z-matrix:
 Charge =  0 Multiplicity = 1

                         Standard orientation:
 ---------------------------------------------------------------------
 Center     Atomic      Atomic             Coordinates (Angstroms)
 Number     Number       Type             X           Y           Z
 ---------------------------------------------------------------------
      1          1           0        1.108777   -0.003303    1.059645
      2          6           0        1.204737    0.000031   -0.009653
      3         17           0       -0.687158    0.000042   -0.014211
      4          1           0        1.672302   -0.891331   -0.382553
      5          1           0        1.672182    0.893743   -0.377591
 ---------------------------------------------------------------------

 SCF Done:  E(RHF) =  -496.669210468     A.U. after   11 cycles

 The electronic state is 1-A.
 Alpha  occ. eigenvalues -- -104.08997 -11.24896 -10.48406  -7.94776  -7.94369
 Alpha  occ. eigenvalues --   -7.94363  -1.11850  -0.93194  -0.63948  -0.63143
 Alpha  occ. eigenvalues --   -0.50745  -0.44131  -0.43071
 Alpha virt. eigenvalues --    0.15486   0.27527   0.31437   0.31539   0.74042
 Alpha virt. eigenvalues --    0.79524   0.80937   0.85411   0.92734   0.96101
 Alpha virt. eigenvalues --    1.01160   1.29753   1.31178   1.32219   1.89095

 Mulliken charges:
               1
     1  H    0.283216
     2  C   -0.706471
     3  Cl  -0.108980
     4  H    0.266132
     5  H    0.266103
 Sum of Mulliken charges =  -0.00000

 Dipole moment (field-independent basis, Debye):
    X=              2.7971    Y=             -0.0008    Z=              0.2204  Tot=              2.8058
 Quadrupole moment (field-independent basis, Debye-Ang):
   XX=            -18.5239   YY=            -20.1808   ZZ=            -20.4231
   XY=              0.0013   XZ=             -0.5286   YZ=             -0.0001

 Normal termination of Gaussian 16 at Fri Sep 22 17:18:53 2023.
