 Gaussian 16, Revision A.03,
 Gaussian 16:  ES64L-G16RevA.03 25-Dec-2016

 ----------
 # hf/3-21g
 ----------

 -----------------------
 tmpdir/M2_conf_34_1.gjf
 -----------------------
 Symbolic Z-matrix:
 Charge =  0 Multiplicity = 1

                         Standard orientation:
 ---------------------------------------------------------------------
 Center     Atomic      Atomic             Coordinates (Angstroms)
 Number     Number       Type             X           Y           Z
 ---------------------------------------------------------------------
      1          6           0       -0.031239   -0.002673    0.000057
      2          1           0       -0.386881    1.022204   -0.012324
      3          1           0       -0.304448   -0.521444    0.899176
      4          1           0       -0.305832   -0.543751   -0.885628
      5          1           0        1.184593    0.059026   -0.001569
 ---------------------------------------------------------------------

 SCF Done:  E(RHF) =  -39.9669597489     A.U. after    9 cycles

 The electronic state is 1-A.
 Alpha  occ. eigenvalues --  -11.15858  -0.93652  -0.55653  -0.55396  -0.50262
 Alpha virt. eigenvalues --    0.28277   0.32152   0.35459   0.35687   0.91887
 Alpha virt. eigenvalues --    0.92418   0.97686   1.25011   1.31962   1.36286
 Alpha virt. eigenvalues --    1.36915   1.94513

 Mulliken charges:
               1
     1  C   -0.769069
     2  H    0.203527
     3  H    0.206886
     4  H    0.206830
     5  H    0.151826
 Sum of Mulliken charges =   0.00000

 Dipole moment (field-independent basis, Debye):
    X=             -0.0672    Y=             -0.0103    Z=              0.0003  Tot=              0.0680
 Quadrupole moment (field-independent basis, Debye-Ang):
   XX=             -8.6667   YY=             -8.3934   ZZ=             -8.4019
   XY=             -0.0149   XZ=              0.0004   YZ=              0.0002

 Normal termination of Gaussian 16 at Fri Sep 22 17:14:58 2023.
