 Gaussian 16, Revision A.03,
 Gaussian 16:  ES64L-G16RevA.03 25-Dec-2016

 ----------
 # hf/3-21g
 ----------

 ------------------------
 tmpdir/M2_conf_236_2.gjf
 ------------------------
 Symbolic Z-matrix:
 Charge =  0 Multiplicity = 1

                         Standard orientation:
 ---------------------------------------------------------------------
 Center     Atomic      Atomic             Coordinates (Angstroms)
 Number     Number       Type             X           Y           Z
 ---------------------------------------------------------------------
      1          6           0        0.001705   -0.030737   -0.000016
      2          1           0        1.185163    0.231195   -0.001949
      3          1           0       -0.303920   -0.542556    0.892640
      4          1           0       -0.307807   -0.540903   -0.892516
      5          1           0       -0.583663    1.036688    0.001920
 ---------------------------------------------------------------------

 SCF Done:  E(RHF) =  -39.9576243266     A.U. after    9 cycles

 The electronic state is 1-A.
 Alpha  occ. eigenvalues --  -11.17313  -0.92566  -0.55892  -0.52969  -0.49930
 Alpha virt. eigenvalues --    0.27317   0.30649   0.33803   0.35684   0.91638
 Alpha virt. eigenvalues --    0.95671   1.00528   1.22592   1.25745   1.33746
 Alpha virt. eigenvalues --    1.36579   1.93070

 Mulliken charges:
               1
     1  C   -0.745613
     2  H    0.167742
     3  H    0.210697
     4  H    0.210645
     5  H    0.156529
 Sum of Mulliken charges =   0.00000

 Dipole moment (field-independent basis, Debye):
    X=             -0.0742    Y=             -0.0726    Z=              0.0002  Tot=              0.1039
 Quadrupole moment (field-independent basis, Debye-Ang):
   XX=             -8.4869   YY=             -8.7115   ZZ=             -8.5180
   XY=              0.1381   XZ=              0.0009   YZ=             -0.0008

 Normal termination of Gaussian 16 at Fri Sep 22 17:20:07 2023.
