 Gaussian 16, Revision A.03,
 Gaussian 16:  ES64L-G16RevA.03 25-Dec-2016

 ----------
 # hf/3-21g
 ----------

 -----------------------
 tmpdir/M2_conf_40_6.gjf
 -----------------------
 Symbolic Z-matrix:
 Charge =  0 Multiplicity = 1

                         Standard orientation:
 ---------------------------------------------------------------------
 Center     Atomic      Atomic             Coordinates (Angstroms)
 Number     Number       Type             X           Y           Z
 ---------------------------------------------------------------------
      1          1           0       -1.673852   -0.003607    0.968352
      2          6           0       -1.202861    0.000007    0.003810
      3         17           0        0.689037   -0.000040    0.006987
      4          1           0       -1.411050    0.894804   -0.551715
      5          1           0       -1.411569   -0.890564   -0.558269
 ---------------------------------------------------------------------

 SCF Done:  E(RHF) =  -496.685695738     A.U. after   11 cycles

 The electronic state is 1-A.
 Alpha  occ. eigenvalues -- -104.08805 -11.24992 -10.48194  -7.94568  -7.94164
 Alpha  occ. eigenvalues --   -7.94164  -1.11369  -0.93309  -0.63327  -0.63295
 Alpha  occ. eigenvalues --   -0.51164  -0.43762  -0.43642
 Alpha virt. eigenvalues --    0.16336   0.27324   0.31361   0.31462   0.73869
 Alpha virt. eigenvalues --    0.80090   0.81239   0.85699   0.92428   0.94602
 Alpha virt. eigenvalues --    1.00268   1.30691   1.31302   1.32482   1.91498

 Mulliken charges:
               1
     1  H    0.264434
     2  C   -0.704718
     3  Cl  -0.106454
     4  H    0.273382
     5  H    0.273357
 Sum of Mulliken charges =  -0.00000

 Dipole moment (field-independent basis, Debye):
    X=             -2.8552    Y=              0.0004    Z=             -0.0886  Tot=              2.8566
 Quadrupole moment (field-independent basis, Debye-Ang):
   XX=            -18.5554   YY=            -20.1762   ZZ=            -20.2350
   XY=              0.0016   XZ=             -0.2626   YZ=             -0.0001

 Normal termination of Gaussian 16 at Fri Sep 22 17:15:07 2023.
