 Gaussian 16, Revision A.03,
 Gaussian 16:  ES64L-G16RevA.03 25-Dec-2016

 ----------
 # hf/3-21g
 ----------

 ------------------------
 tmpdir/M2_conf_101_9.gjf
 ------------------------
 Symbolic Z-matrix:
 Charge =  0 Multiplicity = 1

                         Standard orientation:
 ---------------------------------------------------------------------
 Center     Atomic      Atomic             Coordinates (Angstroms)
 Number     Number       Type             X           Y           Z
 ---------------------------------------------------------------------
      1          1           0        1.609642   -0.031098    0.995211
      2          6           0        1.202544   -0.000057    0.002274
      3         17           0       -0.689351   -0.000147    0.004364
      4          1           0        1.447228   -0.875143   -0.569173
      5          1           0        1.446824    0.909081   -0.513867
 ---------------------------------------------------------------------

 SCF Done:  E(RHF) =  -496.688031259     A.U. after   11 cycles

 The electronic state is 1-A.
 Alpha  occ. eigenvalues -- -104.08785 -11.24997 -10.48175  -7.94549  -7.94145
 Alpha  occ. eigenvalues --   -7.94145  -1.11315  -0.93326  -0.63291  -0.63249
 Alpha  occ. eigenvalues --   -0.51263  -0.43765  -0.43671
 Alpha virt. eigenvalues --    0.16504   0.27331   0.31364   0.31416   0.73843
 Alpha virt. eigenvalues --    0.80316   0.81022   0.85577   0.92898   0.94333
 Alpha virt. eigenvalues --    0.99799   1.30966   1.31275   1.32331   1.91805

 Mulliken charges:
               1
     1  H    0.266299
     2  C   -0.703357
     3  Cl  -0.106867
     4  H    0.271972
     5  H    0.271952
 Sum of Mulliken charges =   0.00000

 Dipole moment (field-independent basis, Debye):
    X=              2.8620    Y=              0.0017    Z=             -0.0560  Tot=              2.8625
 Quadrupole moment (field-independent basis, Debye-Ang):
   XX=            -18.5645   YY=            -20.1782   ZZ=            -20.2020
   XY=             -0.0058   XZ=              0.1634   YZ=              0.0001

 Normal termination of Gaussian 16 at Fri Sep 22 17:16:38 2023.
