 Gaussian 16, Revision A.03,
 Gaussian 16:  ES64L-G16RevA.03 25-Dec-2016

 ----------
 # hf/3-21g
 ----------

 ------------------------
 tmpdir/M2_conf_119_5.gjf
 ------------------------
 Symbolic Z-matrix:
 Charge =  0 Multiplicity = 1

                         Standard orientation:
 ---------------------------------------------------------------------
 Center     Atomic      Atomic             Coordinates (Angstroms)
 Number     Number       Type             X           Y           Z
 ---------------------------------------------------------------------
      1          1           0       -0.355721   -0.306856    0.971959
      2          6           0       -0.029793    0.005758   -0.001813
      3          1           0       -0.438981   -0.632804   -0.761701
      4          1           0       -0.204590    1.050296   -0.177870
      5          1           0        1.178052   -0.145184   -0.021511
 ---------------------------------------------------------------------

 SCF Done:  E(RHF) =  -39.9669697723     A.U. after    9 cycles

 The electronic state is 1-A.
 Alpha  occ. eigenvalues --  -11.15723  -0.93779  -0.55912  -0.55268  -0.50355
 Alpha virt. eigenvalues --    0.28307   0.32273   0.35546   0.35802   0.91574
 Alpha virt. eigenvalues --    0.92204   0.97729   1.25018   1.32558   1.36594
 Alpha virt. eigenvalues --    1.37228   1.94615

 Mulliken charges:
               1
     1  H    0.205975
     2  C   -0.770635
     3  H    0.206191
     4  H    0.206652
     5  H    0.151817
 Sum of Mulliken charges =  -0.00000

 Dipole moment (field-independent basis, Debye):
    X=             -0.0762    Y=              0.0025    Z=              0.0114  Tot=              0.0771
 Quadrupole moment (field-independent basis, Debye-Ang):
   XX=             -8.6272   YY=             -8.3559   ZZ=             -8.4526
   XY=              0.0591   XZ=              0.0111   YZ=             -0.0007

 Normal termination of Gaussian 16 at Fri Sep 22 17:17:05 2023.
