 Gaussian 16, Revision A.03,
 Gaussian 16:  ES64L-G16RevA.03 25-Dec-2016

 ----------
 # hf/3-21g
 ----------

 -----------------------
 tmpdir/M2_conf_42_6.gjf
 -----------------------
 Symbolic Z-matrix:
 Charge =  0 Multiplicity = 1

                         Standard orientation:
 ---------------------------------------------------------------------
 Center     Atomic      Atomic             Coordinates (Angstroms)
 Number     Number       Type             X           Y           Z
 ---------------------------------------------------------------------
      1          1           0       -1.607982   -0.011611    0.996072
      2          6           0       -1.202547   -0.000005    0.002254
      3         17           0        0.689356   -0.000063    0.004297
      4          1           0       -1.447644    0.898991   -0.530986
      5          1           0       -1.448151   -0.886270   -0.551662
 ---------------------------------------------------------------------

 SCF Done:  E(RHF) =  -496.688074038     A.U. after   11 cycles

 The electronic state is 1-A.
 Alpha  occ. eigenvalues -- -104.08785 -11.24998 -10.48174  -7.94548  -7.94144
 Alpha  occ. eigenvalues --   -7.94144  -1.11313  -0.93327  -0.63290  -0.63250
 Alpha  occ. eigenvalues --   -0.51265  -0.43764  -0.43671
 Alpha virt. eigenvalues --    0.16507   0.27330   0.31362   0.31418   0.73843
 Alpha virt. eigenvalues --    0.80321   0.81018   0.85574   0.92918   0.94318
 Alpha virt. eigenvalues --    0.99789   1.30989   1.31269   1.32317   1.91810

 Mulliken charges:
               1
     1  H    0.266390
     2  C   -0.703322
     3  Cl  -0.106882
     4  H    0.271919
     5  H    0.271895
 Sum of Mulliken charges =   0.00000

 Dipole moment (field-independent basis, Debye):
    X=             -2.8621    Y=              0.0007    Z=             -0.0551  Tot=              2.8627
 Quadrupole moment (field-independent basis, Debye-Ang):
   XX=            -18.5648   YY=            -20.1776   ZZ=            -20.2020
   XY=              0.0025   XZ=             -0.1613   YZ=             -0.0001

 Normal termination of Gaussian 16 at Fri Sep 22 17:15:10 2023.
