 Gaussian 16, Revision A.03,
 Gaussian 16:  ES64L-G16RevA.03 25-Dec-2016

 ----------
 # hf/3-21g
 ----------

 ------------------------
 tmpdir/M2_conf_214_0.gjf
 ------------------------
 Symbolic Z-matrix:
 Charge =  0 Multiplicity = 1

                         Standard orientation:
 ---------------------------------------------------------------------
 Center     Atomic      Atomic             Coordinates (Angstroms)
 Number     Number       Type             X           Y           Z
 ---------------------------------------------------------------------
      1          6           0       -0.030688   -0.005268   -0.000055
      2          1           0       -0.447974    1.005573   -0.005918
      3          1           0       -0.271115   -0.554171   -0.890855
      4          1           0       -0.276418   -0.545628    0.894501
      5          1           0        1.179634    0.125831    0.002604
 ---------------------------------------------------------------------

 SCF Done:  E(RHF) =  -39.9668535803     A.U. after    9 cycles

 The electronic state is 1-A.
 Alpha  occ. eigenvalues --  -11.15962  -0.93557  -0.55669  -0.55205  -0.50256
 Alpha virt. eigenvalues --    0.28241   0.32084   0.35286   0.35686   0.91879
 Alpha virt. eigenvalues --    0.92785   0.97739   1.24961   1.31517   1.35860
 Alpha virt. eigenvalues --    1.36890   1.94408

 Mulliken charges:
               1
     1  C   -0.767738
     2  H    0.201255
     3  H    0.207147
     4  H    0.207143
     5  H    0.152192
 Sum of Mulliken charges =   0.00000

 Dipole moment (field-independent basis, Debye):
    X=             -0.0635    Y=             -0.0192    Z=             -0.0001  Tot=              0.0663
 Quadrupole moment (field-independent basis, Debye-Ang):
   XX=             -8.6716   YY=             -8.3996   ZZ=             -8.4097
   XY=             -0.0330   XZ=             -0.0012   YZ=              0.0001

 Normal termination of Gaussian 16 at Fri Sep 22 17:19:34 2023.
