 Gaussian 16, Revision A.03,
 Gaussian 16:  ES64L-G16RevA.03 25-Dec-2016

 ----------
 # hf/3-21g
 ----------

 ------------------------
 tmpdir/M2_conf_201_7.gjf
 ------------------------
 Symbolic Z-matrix:
 Charge =  0 Multiplicity = 1

                         Standard orientation:
 ---------------------------------------------------------------------
 Center     Atomic      Atomic             Coordinates (Angstroms)
 Number     Number       Type             X           Y           Z
 ---------------------------------------------------------------------
      1          1           0        0.392728   -0.269092    0.965056
      2          6           0        0.026528    0.012069   -0.004203
      3          1           0        0.551361   -0.557024   -0.748052
      4          1           0        0.040801    1.074524   -0.156390
      5          1           0       -1.144058   -0.320822   -0.035394
 ---------------------------------------------------------------------

 SCF Done:  E(RHF) =  -39.9667201155     A.U. after    9 cycles

 The electronic state is 1-A.
 Alpha  occ. eigenvalues --  -11.15721  -0.93789  -0.56227  -0.54845  -0.50442
 Alpha virt. eigenvalues --    0.28290   0.32308   0.35382   0.35928   0.91242
 Alpha virt. eigenvalues --    0.92513   0.97852   1.24961   1.32655   1.36200
 Alpha virt. eigenvalues --    1.37586   1.94554

 Mulliken charges:
               1
     1  H    0.205433
     2  C   -0.770959
     3  H    0.206120
     4  H    0.207027
     5  H    0.152380
 Sum of Mulliken charges =   0.00000

 Dipole moment (field-independent basis, Debye):
    X=              0.0827    Y=              0.0076    Z=              0.0238  Tot=              0.0864
 Quadrupole moment (field-independent basis, Debye-Ang):
   XX=             -8.5651   YY=             -8.3463   ZZ=             -8.5228
   XY=             -0.1259   XZ=             -0.0188   YZ=             -0.0035

 Normal termination of Gaussian 16 at Fri Sep 22 17:19:14 2023.
