 Gaussian 16, Revision A.03,
 Gaussian 16:  ES64L-G16RevA.03 25-Dec-2016

 ----------
 # hf/3-21g
 ----------

 ------------------------
 tmpdir/M2_conf_154_4.gjf
 ------------------------
 Symbolic Z-matrix:
 Charge =  0 Multiplicity = 1

                         Standard orientation:
 ---------------------------------------------------------------------
 Center     Atomic      Atomic             Coordinates (Angstroms)
 Number     Number       Type             X           Y           Z
 ---------------------------------------------------------------------
      1          1           0       -0.330013    0.971365   -0.352345
      2          6           0       -0.032427    0.000826   -0.003512
      3          1           0       -0.261187   -0.792617   -0.689614
      4          1           0       -0.396181   -0.209633    0.984412
      5          1           0        1.181944    0.025932    0.078621
 ---------------------------------------------------------------------

 SCF Done:  E(RHF) =  -39.9668108537     A.U. after    9 cycles

 The electronic state is 1-A.
 Alpha  occ. eigenvalues --  -11.15728  -0.93777  -0.55874  -0.55460  -0.50209
 Alpha virt. eigenvalues --    0.28324   0.32196   0.35609   0.35779   0.91744
 Alpha virt. eigenvalues --    0.92152   0.97585   1.25099   1.32374   1.36761
 Alpha virt. eigenvalues --    1.37176   1.94662

 Mulliken charges:
               1
     1  H    0.206849
     2  C   -0.770895
     3  H    0.206665
     4  H    0.206305
     5  H    0.151076
 Sum of Mulliken charges =  -0.00000

 Dipole moment (field-independent basis, Debye):
    X=             -0.0675    Y=             -0.0076    Z=             -0.0003  Tot=              0.0679
 Quadrupole moment (field-independent basis, Debye-Ang):
   XX=             -8.6656   YY=             -8.3514   ZZ=             -8.4225
   XY=             -0.0127   XZ=             -0.0322   YZ=             -0.0015

 Normal termination of Gaussian 16 at Fri Sep 22 17:17:58 2023.
