 Gaussian 16, Revision A.03,
 Gaussian 16:  ES64L-G16RevA.03 25-Dec-2016

 ----------
 # hf/3-21g
 ----------

 ------------------------
 tmpdir/M2_conf_107_4.gjf
 ------------------------
 Symbolic Z-matrix:
 Charge =  0 Multiplicity = 1

                         Standard orientation:
 ---------------------------------------------------------------------
 Center     Atomic      Atomic             Coordinates (Angstroms)
 Number     Number       Type             X           Y           Z
 ---------------------------------------------------------------------
      1          1           0        0.460584   -0.179226    0.947610
      2          6           0        0.017764    0.020998   -0.009473
      3          1           0        0.707156   -0.394008   -0.720192
      4          1           0       -0.249348    1.053798   -0.130212
      5          1           0       -1.024974   -0.606550   -0.040368
 ---------------------------------------------------------------------

 SCF Done:  E(RHF) =  -39.9653601200     A.U. after    9 cycles

 The electronic state is 1-A.
 Alpha  occ. eigenvalues --  -11.15720  -0.93827  -0.56850  -0.53996  -0.50587
 Alpha virt. eigenvalues --    0.28243   0.32338   0.35063   0.36148   0.90679
 Alpha virt. eigenvalues --    0.93150   0.98161   1.24849   1.32723   1.35510
 Alpha virt. eigenvalues --    1.38355   1.94345

 Mulliken charges:
               1
     1  H    0.204706
     2  C   -0.772629
     3  H    0.206477
     4  H    0.207832
     5  H    0.153614
 Sum of Mulliken charges =  -0.00000

 Dipole moment (field-independent basis, Debye):
    X=              0.0976    Y=              0.0195    Z=              0.0488  Tot=              0.1109
 Quadrupole moment (field-independent basis, Debye-Ang):
   XX=             -8.3830   YY=             -8.3868   ZZ=             -8.6644
   XY=             -0.2112   XZ=             -0.0228   YZ=             -0.0097

 Normal termination of Gaussian 16 at Fri Sep 22 17:16:47 2023.
