 Gaussian 16, Revision A.03,
 Gaussian 16:  ES64L-G16RevA.03 25-Dec-2016

 ----------
 # hf/3-21g
 ----------

 ------------------------
 tmpdir/M2_conf_193_8.gjf
 ------------------------
 Symbolic Z-matrix:
 Charge =  0 Multiplicity = 1

                         Standard orientation:
 ---------------------------------------------------------------------
 Center     Atomic      Atomic             Coordinates (Angstroms)
 Number     Number       Type             X           Y           Z
 ---------------------------------------------------------------------
      1          1           0       -0.637375   -0.000114    0.870068
      2          6           0       -1.214117   -0.000015   -0.035462
      3         17           0        0.677727    0.000012   -0.021053
      4          1           0       -1.799472   -0.892471   -0.149751
      5          1           0       -1.799810    0.892479   -0.149638
 ---------------------------------------------------------------------

 SCF Done:  E(RHF) =  -496.563456523     A.U. after   12 cycles

 The electronic state is 1-A.
 Alpha  occ. eigenvalues -- -104.10652 -11.23366 -10.50401  -7.96755  -7.96302
 Alpha  occ. eigenvalues --   -7.96250  -1.16115  -0.92280  -0.66329  -0.62550
 Alpha  occ. eigenvalues --   -0.51065  -0.46047  -0.39079
 Alpha virt. eigenvalues --    0.12054   0.29780   0.32247   0.32338   0.73953
 Alpha virt. eigenvalues --    0.77665   0.80051   0.84512   0.93388   0.98219
 Alpha virt. eigenvalues --    1.03439   1.22922   1.31142   1.31916   1.81595

 Mulliken charges:
               1
     1  H    0.295200
     2  C   -0.729073
     3  Cl  -0.104828
     4  H    0.269371
     5  H    0.269331
 Sum of Mulliken charges =  -0.00000

 Dipole moment (field-independent basis, Debye):
    X=             -2.2109    Y=             -0.0001    Z=              0.5594  Tot=              2.2806
 Quadrupole moment (field-independent basis, Debye-Ang):
   XX=            -18.6976   YY=            -20.0845   ZZ=            -21.3180
   XY=             -0.0003   XZ=              0.6496   YZ=              0.0000

 Normal termination of Gaussian 16 at Fri Sep 22 17:19:02 2023.
