 Gaussian 16, Revision A.03,
 Gaussian 16:  ES64L-G16RevA.03 25-Dec-2016

 ----------
 # hf/3-21g
 ----------

 ----------------------
 tmpdir/M2_conf_5_7.gjf
 ----------------------
 Symbolic Z-matrix:
 Charge =  0 Multiplicity = 1

                         Standard orientation:
 ---------------------------------------------------------------------
 Center     Atomic      Atomic             Coordinates (Angstroms)
 Number     Number       Type             X           Y           Z
 ---------------------------------------------------------------------
      1          1           0        0.455547   -0.188629    0.949083
      2          6           0        0.018512    0.020514   -0.008976
      3          1           0        0.698576   -0.403773   -0.723200
      4          1           0       -0.230086    1.057749   -0.129455
      5          1           0       -1.035109   -0.588430   -0.042574
 ---------------------------------------------------------------------

 SCF Done:  E(RHF) =  -39.9655181373     A.U. after    9 cycles

 The electronic state is 1-A.
 Alpha  occ. eigenvalues --  -11.15720  -0.93823  -0.56801  -0.54066  -0.50576
 Alpha virt. eigenvalues --    0.28248   0.32338   0.35086   0.36133   0.90728
 Alpha virt. eigenvalues --    0.93088   0.98133   1.24858   1.32732   1.35551
 Alpha virt. eigenvalues --    1.38290   1.94367

 Mulliken charges:
               1
     1  H    0.204708
     2  C   -0.772439
     3  H    0.206421
     4  H    0.207803
     5  H    0.153507
 Sum of Mulliken charges =   0.00000

 Dipole moment (field-independent basis, Debye):
    X=              0.0961    Y=              0.0187    Z=              0.0467  Tot=              0.1084
 Quadrupole moment (field-independent basis, Debye-Ang):
   XX=             -8.3985   YY=             -8.3831   ZZ=             -8.6525
   XY=             -0.2071   XZ=             -0.0236   YZ=             -0.0096

 Normal termination of Gaussian 16 at Fri Sep 22 17:14:15 2023.
