 Gaussian 16, Revision A.03,
 Gaussian 16:  ES64L-G16RevA.03 25-Dec-2016

 ----------
 # hf/3-21g
 ----------

 ------------------------
 tmpdir/M2_conf_226_6.gjf
 ------------------------
 Symbolic Z-matrix:
 Charge =  0 Multiplicity = 1

                         Standard orientation:
 ---------------------------------------------------------------------
 Center     Atomic      Atomic             Coordinates (Angstroms)
 Number     Number       Type             X           Y           Z
 ---------------------------------------------------------------------
      1          1           0       -1.260939   -0.004609    1.066540
      2          6           0       -1.203266    0.000039   -0.005300
      3         17           0        0.688629    0.000030   -0.009265
      4          1           0       -1.612874    0.894617   -0.434908
      5          1           0       -1.613288   -0.890748   -0.442323
 ---------------------------------------------------------------------

 SCF Done:  E(RHF) =  -496.682112654     A.U. after   11 cycles

 The electronic state is 1-A.
 Alpha  occ. eigenvalues -- -104.08848 -11.24972 -10.48242  -7.94615  -7.94210
 Alpha  occ. eigenvalues --   -7.94208  -1.11475  -0.93285  -0.63547  -0.63180
 Alpha  occ. eigenvalues --   -0.51068  -0.43920  -0.43449
 Alpha virt. eigenvalues --    0.16159   0.27380   0.31385   0.31456   0.73919
 Alpha virt. eigenvalues --    0.79969   0.81057   0.85643   0.92444   0.95236
 Alpha virt. eigenvalues --    1.00311   1.30552   1.31166   1.32381   1.90896

 Mulliken charges:
               1
     1  H    0.278348
     2  C   -0.704574
     3  Cl  -0.107394
     4  H    0.266819
     5  H    0.266801
 Sum of Mulliken charges =  -0.00000

 Dipole moment (field-independent basis, Debye):
    X=             -2.8427    Y=             -0.0005    Z=              0.1329  Tot=              2.8458
 Quadrupole moment (field-independent basis, Debye-Ang):
   XX=            -18.5483   YY=            -20.1826   ZZ=            -20.2717
   XY=             -0.0010   XZ=              0.3454   YZ=             -0.0001

 Normal termination of Gaussian 16 at Fri Sep 22 17:19:52 2023.
