 Gaussian 16, Revision A.03,
 Gaussian 16:  ES64L-G16RevA.03 25-Dec-2016

 ----------
 # hf/3-21g
 ----------

 ------------------------
 tmpdir/M2_conf_193_7.gjf
 ------------------------
 Symbolic Z-matrix:
 Charge =  0 Multiplicity = 1

                         Standard orientation:
 ---------------------------------------------------------------------
 Center     Atomic      Atomic             Coordinates (Angstroms)
 Number     Number       Type             X           Y           Z
 ---------------------------------------------------------------------
      1          1           0        0.456769   -0.186933    0.948647
      2          6           0        0.018309    0.020660   -0.009097
      3          1           0        0.701113   -0.400398   -0.722609
      4          1           0       -0.235379    1.056748   -0.128843
      5          1           0       -1.032356   -0.593377   -0.042612
 ---------------------------------------------------------------------

 SCF Done:  E(RHF) =  -39.9654763518     A.U. after    9 cycles

 The electronic state is 1-A.
 Alpha  occ. eigenvalues --  -11.15720  -0.93824  -0.56815  -0.54046  -0.50579
 Alpha virt. eigenvalues --    0.28246   0.32338   0.35079   0.36138   0.90717
 Alpha virt. eigenvalues --    0.93101   0.98141   1.24856   1.32733   1.35536
 Alpha virt. eigenvalues --    1.38309   1.94361

 Mulliken charges:
               1
     1  H    0.204692
     2  C   -0.772489
     3  H    0.206436
     4  H    0.207825
     5  H    0.153537
 Sum of Mulliken charges =   0.00000

 Dipole moment (field-independent basis, Debye):
    X=              0.0964    Y=              0.0189    Z=              0.0473  Tot=              0.1091
 Quadrupole moment (field-independent basis, Debye-Ang):
   XX=             -8.3942   YY=             -8.3843   ZZ=             -8.6557
   XY=             -0.2082   XZ=             -0.0237   YZ=             -0.0097

 Normal termination of Gaussian 16 at Fri Sep 22 17:19:02 2023.
