 Gaussian 16, Revision A.03,
 Gaussian 16:  ES64L-G16RevA.03 25-Dec-2016

 ----------
 # hf/3-21g
 ----------

 ------------------------
 tmpdir/M2_conf_117_4.gjf
 ------------------------
 Symbolic Z-matrix:
 Charge =  0 Multiplicity = 1

                         Standard orientation:
 ---------------------------------------------------------------------
 Center     Atomic      Atomic             Coordinates (Angstroms)
 Number     Number       Type             X           Y           Z
 ---------------------------------------------------------------------
      1          1           0       -0.871787    0.562268   -0.347089
      2          6           0       -0.030736   -0.016865   -0.016294
      3          1           0        0.465852   -0.662977   -0.715259
      4          1           0       -0.244608   -0.581106    0.871678
      5          1           0        0.834957    0.783004    0.288435
 ---------------------------------------------------------------------

 SCF Done:  E(RHF) =  -39.9649044100     A.U. after    9 cycles

 The electronic state is 1-A.
 Alpha  occ. eigenvalues --  -11.15742  -0.93805  -0.56935  -0.54682  -0.49866
 Alpha virt. eigenvalues --    0.28330   0.31950   0.35256   0.36185   0.90995
 Alpha virt. eigenvalues --    0.93449   0.97406   1.25237   1.31936   1.36070
 Alpha virt. eigenvalues --    1.38273   1.94642

 Mulliken charges:
               1
     1  H    0.209144
     2  C   -0.773949
     3  H    0.208816
     4  H    0.206038
     5  H    0.149950
 Sum of Mulliken charges =   0.00000

 Dipole moment (field-independent basis, Debye):
    X=             -0.0181    Y=             -0.0640    Z=              0.0085  Tot=              0.0671
 Quadrupole moment (field-independent basis, Debye-Ang):
   XX=             -8.4046   YY=             -8.4383   ZZ=             -8.6082
   XY=             -0.2525   XZ=             -0.0814   YZ=             -0.0829

 Normal termination of Gaussian 16 at Fri Sep 22 17:17:02 2023.
