 Gaussian 16, Revision A.03,
 Gaussian 16:  ES64L-G16RevA.03 25-Dec-2016

 ----------
 # hf/3-21g
 ----------

 ------------------------
 tmpdir/M2_conf_253_1.gjf
 ------------------------
 Symbolic Z-matrix:
 Charge =  0 Multiplicity = 1

                         Standard orientation:
 ---------------------------------------------------------------------
 Center     Atomic      Atomic             Coordinates (Angstroms)
 Number     Number       Type             X           Y           Z
 ---------------------------------------------------------------------
      1          6           0       -0.032231   -0.000060    0.011429
      2          1           0       -0.168239   -0.002081    1.007383
      3          1           0       -0.404060   -0.892067   -0.455741
      4          1           0       -0.406249    0.892872   -0.452671
      5          1           0        1.171937    0.001636   -0.167545
 ---------------------------------------------------------------------

 SCF Done:  E(RHF) =  -39.9625260196     A.U. after    9 cycles

 The electronic state is 1-A.
 Alpha  occ. eigenvalues --  -11.14929  -0.94642  -0.57140  -0.55540  -0.50288
 Alpha virt. eigenvalues --    0.28500   0.32550   0.35683   0.37209   0.88810
 Alpha virt. eigenvalues --    0.92075   0.97551   1.25334   1.33952   1.37077
 Alpha virt. eigenvalues --    1.43158   1.95647

 Mulliken charges:
               1
     1  C   -0.778677
     2  H    0.222785
     3  H    0.203794
     4  H    0.203739
     5  H    0.148360
 Sum of Mulliken charges =   0.00000

 Dipole moment (field-independent basis, Debye):
    X=             -0.0820    Y=             -0.0003    Z=              0.0487  Tot=              0.0954
 Quadrupole moment (field-independent basis, Debye-Ang):
   XX=             -8.5838   YY=             -8.3221   ZZ=             -8.3797
   XY=             -0.0005   XZ=              0.0422   YZ=             -0.0001

 Normal termination of Gaussian 16 at Fri Sep 22 17:20:33 2023.
