 Gaussian 16, Revision A.03,
 Gaussian 16:  ES64L-G16RevA.03 25-Dec-2016

 ----------
 # hf/3-21g
 ----------

 ------------------------
 tmpdir/M2_conf_211_6.gjf
 ------------------------
 Symbolic Z-matrix:
 Charge =  0 Multiplicity = 1

                         Standard orientation:
 ---------------------------------------------------------------------
 Center     Atomic      Atomic             Coordinates (Angstroms)
 Number     Number       Type             X           Y           Z
 ---------------------------------------------------------------------
      1          1           0       -1.011347   -0.001423    1.042415
      2          6           0       -1.206053    0.000030   -0.013177
      3         17           0        0.685848    0.000015   -0.016834
      4          1           0       -1.705717    0.893182   -0.337564
      5          1           0       -1.706037   -0.892197   -0.339607
 ---------------------------------------------------------------------

 SCF Done:  E(RHF) =  -496.656842537     A.U. after   11 cycles

 The electronic state is 1-A.
 Alpha  occ. eigenvalues -- -104.09152 -11.24797 -10.48583  -7.94950  -7.94540
 Alpha  occ. eigenvalues --   -7.94529  -1.12241  -0.93104  -0.64289  -0.63106
 Alpha  occ. eigenvalues --   -0.50549  -0.44328  -0.42687
 Alpha virt. eigenvalues --    0.14922   0.27716   0.31494   0.31606   0.74122
 Alpha virt. eigenvalues --    0.79226   0.80779   0.85096   0.93251   0.96621
 Alpha virt. eigenvalues --    1.01703   1.29061   1.31203   1.32031   1.87590

 Mulliken charges:
               1
     1  H    0.286246
     2  C   -0.707824
     3  Cl  -0.110727
     4  H    0.266158
     5  H    0.266147
 Sum of Mulliken charges =  -0.00000

 Dipole moment (field-independent basis, Debye):
    X=             -2.7489    Y=             -0.0003    Z=              0.2791  Tot=              2.7630
 Quadrupole moment (field-independent basis, Debye-Ang):
   XX=            -18.5139   YY=            -20.1753   ZZ=            -20.5575
   XY=             -0.0005   XZ=              0.6224   YZ=             -0.0001

 Normal termination of Gaussian 16 at Fri Sep 22 17:19:29 2023.
