 Gaussian 16, Revision A.03,
 Gaussian 16:  ES64L-G16RevA.03 25-Dec-2016

 ----------
 # hf/3-21g
 ----------

 ------------------------
 tmpdir/M2_conf_192_6.gjf
 ------------------------
 Symbolic Z-matrix:
 Charge =  0 Multiplicity = 1

                         Standard orientation:
 ---------------------------------------------------------------------
 Center     Atomic      Atomic             Coordinates (Angstroms)
 Number     Number       Type             X           Y           Z
 ---------------------------------------------------------------------
      1          1           0       -0.846250   -0.000861    0.989250
      2          6           0       -1.208978    0.000027   -0.021005
      3         17           0        0.682927    0.000011   -0.020028
      4          1           0       -1.754695    0.892942   -0.260813
      5          1           0       -1.754939   -0.892438   -0.261923
 ---------------------------------------------------------------------

 SCF Done:  E(RHF) =  -496.626421656     A.U. after   11 cycles

 The electronic state is 1-A.
 Alpha  occ. eigenvalues -- -104.09578 -11.24457 -10.49086  -7.95446  -7.95028
 Alpha  occ. eigenvalues --   -7.95004  -1.13322  -0.92867  -0.65023  -0.62983
 Alpha  occ. eigenvalues --   -0.50417  -0.44839  -0.41618
 Alpha virt. eigenvalues --    0.13766   0.28286   0.31674   0.31781   0.74191
 Alpha virt. eigenvalues --    0.78652   0.80476   0.84607   0.94111   0.97396
 Alpha virt. eigenvalues --    1.02512   1.27352   1.31352   1.31533   1.84715

 Mulliken charges:
               1
     1  H    0.291121
     2  C   -0.711782
     3  Cl  -0.113472
     4  H    0.267070
     5  H    0.267063
 Sum of Mulliken charges =   0.00000

 Dipole moment (field-independent basis, Debye):
    X=             -2.6088    Y=             -0.0003    Z=              0.3860  Tot=              2.6372
 Quadrupole moment (field-independent basis, Debye-Ang):
   XX=            -18.5314   YY=            -20.1561   ZZ=            -20.8473
   XY=             -0.0004   XZ=              0.7213   YZ=             -0.0001

 Normal termination of Gaussian 16 at Fri Sep 22 17:19:00 2023.
