 Gaussian 16, Revision A.03,
 Gaussian 16:  ES64L-G16RevA.03 25-Dec-2016

 ----------
 # hf/3-21g
 ----------

 -----------------------
 tmpdir/M2_conf_38_0.gjf
 -----------------------
 Symbolic Z-matrix:
 Charge =  0 Multiplicity = 1

                         Standard orientation:
 ---------------------------------------------------------------------
 Center     Atomic      Atomic             Coordinates (Angstroms)
 Number     Number       Type             X           Y           Z
 ---------------------------------------------------------------------
      1          6           0        0.020429   -0.022591    0.000056
      2          1           0        0.919470    0.677865    0.001834
      3          1           0       -0.040066   -0.615698    0.892910
      4          1           0       -0.035359   -0.616639   -0.892468
      5          1           0       -0.966617    0.690015   -0.002613
 ---------------------------------------------------------------------

 SCF Done:  E(RHF) =  -39.9647935518     A.U. after    9 cycles

 The electronic state is 1-A.
 Alpha  occ. eigenvalues --  -11.16497  -0.93115  -0.55749  -0.54255  -0.50194
 Alpha virt. eigenvalues --    0.28001   0.31623   0.34521   0.35685   0.91782
 Alpha virt. eigenvalues --    0.94474   0.98294   1.24585   1.28713   1.34591
 Alpha virt. eigenvalues --    1.36773   1.93891

 Mulliken charges:
               1
     1  C   -0.760072
     2  H    0.188752
     3  H    0.208661
     4  H    0.208658
     5  H    0.154001
 Sum of Mulliken charges =  -0.00000

 Dipole moment (field-independent basis, Debye):
    X=              0.0164    Y=             -0.0652    Z=              0.0001  Tot=              0.0673
 Quadrupole moment (field-independent basis, Debye-Ang):
   XX=             -8.6008   YY=             -8.5220   ZZ=             -8.4532
   XY=              0.1501   XZ=             -0.0011   YZ=              0.0005

 Normal termination of Gaussian 16 at Fri Sep 22 17:15:04 2023.
