 Gaussian 16, Revision A.03,
 Gaussian 16:  ES64L-G16RevA.03 25-Dec-2016

 ----------
 # hf/3-21g
 ----------

 ------------------------
 tmpdir/M2_conf_258_7.gjf
 ------------------------
 Symbolic Z-matrix:
 Charge =  0 Multiplicity = 1

                         Standard orientation:
 ---------------------------------------------------------------------
 Center     Atomic      Atomic             Coordinates (Angstroms)
 Number     Number       Type             X           Y           Z
 ---------------------------------------------------------------------
      1          1           0        0.452800   -0.192524    0.950024
      2          6           0        0.018967    0.020177   -0.008706
      3          1           0        0.692714   -0.411394   -0.724546
      4          1           0       -0.218005    1.059945   -0.130780
      5          1           0       -1.041312   -0.577090   -0.042458
 ---------------------------------------------------------------------

 SCF Done:  E(RHF) =  -39.9656088477     A.U. after    9 cycles

 The electronic state is 1-A.
 Alpha  occ. eigenvalues --  -11.15720  -0.93820  -0.56769  -0.54109  -0.50569
 Alpha virt. eigenvalues --    0.28250   0.32337   0.35103   0.36123   0.90753
 Alpha virt. eigenvalues --    0.93057   0.98115   1.24864   1.32732   1.35585
 Alpha virt. eigenvalues --    1.38250   1.94380

 Mulliken charges:
               1
     1  H    0.204745
     2  C   -0.772333
     3  H    0.206393
     4  H    0.207753
     5  H    0.153441
 Sum of Mulliken charges =   0.00000

 Dipole moment (field-independent basis, Debye):
    X=              0.0953    Y=              0.0181    Z=              0.0454  Tot=              0.1071
 Quadrupole moment (field-independent basis, Debye-Ang):
   XX=             -8.4082   YY=             -8.3806   ZZ=             -8.6453
   XY=             -0.2044   XZ=             -0.0235   YZ=             -0.0093

 Normal termination of Gaussian 16 at Fri Sep 22 17:20:41 2023.
