 Gaussian 16, Revision A.03,
 Gaussian 16:  ES64L-G16RevA.03 25-Dec-2016

 ----------
 # hf/3-21g
 ----------

 ------------------------
 tmpdir/M2_conf_116_8.gjf
 ------------------------
 Symbolic Z-matrix:
 Charge =  0 Multiplicity = 1

                         Standard orientation:
 ---------------------------------------------------------------------
 Center     Atomic      Atomic             Coordinates (Angstroms)
 Number     Number       Type             X           Y           Z
 ---------------------------------------------------------------------
      1          1           0       -1.434974   -0.059212    1.045066
      2          6           0       -1.202436    0.000067   -0.001370
      3         17           0        0.689466    0.000158   -0.002709
      4          1           0       -1.535583   -0.862991   -0.545725
      5          1           0       -1.535749    0.919118   -0.445065
 ---------------------------------------------------------------------

 SCF Done:  E(RHF) =  -496.688912940     A.U. after   11 cycles

 The electronic state is 1-A.
 Alpha  occ. eigenvalues -- -104.08777 -11.25000 -10.48167  -7.94541  -7.94138
 Alpha  occ. eigenvalues --   -7.94137  -1.11294  -0.93333  -0.63289  -0.63221
 Alpha  occ. eigenvalues --   -0.51301  -0.43769  -0.43678
 Alpha virt. eigenvalues --    0.16568   0.27333   0.31370   0.31395   0.73832
 Alpha virt. eigenvalues --    0.80476   0.80867   0.85524   0.93203   0.94117
 Alpha virt. eigenvalues --    0.99608   1.31170   1.31207   1.32235   1.91922

 Mulliken charges:
               1
     1  H    0.272261
     2  C   -0.702823
     3  Cl  -0.107044
     4  H    0.268827
     5  H    0.268779
 Sum of Mulliken charges =  -0.00000

 Dipole moment (field-independent basis, Debye):
    X=             -2.8646    Y=             -0.0022    Z=              0.0362  Tot=              2.8648
 Quadrupole moment (field-independent basis, Debye-Ang):
   XX=            -18.5683   YY=            -20.1823   ZZ=            -20.1860
   XY=             -0.0057   XZ=              0.1015   YZ=             -0.0001

 Normal termination of Gaussian 16 at Fri Sep 22 17:17:01 2023.
