 Gaussian 16, Revision A.03,
 Gaussian 16:  ES64L-G16RevA.03 25-Dec-2016

 ----------
 # hf/3-21g
 ----------

 -----------------------
 tmpdir/M2_conf_83_9.gjf
 -----------------------
 Symbolic Z-matrix:
 Charge =  0 Multiplicity = 1

                         Standard orientation:
 ---------------------------------------------------------------------
 Center     Atomic      Atomic             Coordinates (Angstroms)
 Number     Number       Type             X           Y           Z
 ---------------------------------------------------------------------
      1          1           0        1.427978   -0.079455    1.045075
      2          6           0        1.202444    0.000127   -0.001548
      3         17           0       -0.689454    0.000219   -0.002982
      4          1           0        1.539189   -0.852506   -0.559953
      5          1           0        1.538883    0.927477   -0.425147
 ---------------------------------------------------------------------

 SCF Done:  E(RHF) =  -496.688787775     A.U. after   11 cycles

 The electronic state is 1-A.
 Alpha  occ. eigenvalues -- -104.08779 -11.24999 -10.48169  -7.94543  -7.94139
 Alpha  occ. eigenvalues --   -7.94139  -1.11297  -0.93332  -0.63292  -0.63221
 Alpha  occ. eigenvalues --   -0.51297  -0.43774  -0.43671
 Alpha virt. eigenvalues --    0.16560   0.27334   0.31368   0.31398   0.73834
 Alpha virt. eigenvalues --    0.80455   0.80882   0.85530   0.93155   0.94168
 Alpha virt. eigenvalues --    0.99625   1.31152   1.31206   1.32245   1.91904

 Mulliken charges:
               1
     1  H    0.272502
     2  C   -0.702873
     3  Cl  -0.107027
     4  H    0.268711
     5  H    0.268688
 Sum of Mulliken charges =   0.00000

 Dipole moment (field-independent basis, Debye):
    X=              2.8642    Y=             -0.0031    Z=              0.0401  Tot=              2.8644
 Quadrupole moment (field-independent basis, Debye-Ang):
   XX=            -18.5676   YY=            -20.1819   ZZ=            -20.1882
   XY=              0.0079   XZ=             -0.1115   YZ=             -0.0003

 Normal termination of Gaussian 16 at Fri Sep 22 17:16:11 2023.
