 Gaussian 16, Revision A.03,
 Gaussian 16:  ES64L-G16RevA.03 25-Dec-2016

 ----------
 # hf/3-21g
 ----------

 ------------------------
 tmpdir/M2_conf_281_9.gjf
 ------------------------
 Symbolic Z-matrix:
 Charge =  0 Multiplicity = 1

                         Standard orientation:
 ---------------------------------------------------------------------
 Center     Atomic      Atomic             Coordinates (Angstroms)
 Number     Number       Type             X           Y           Z
 ---------------------------------------------------------------------
      1          1           0        1.319235   -0.013951    1.063270
      2          6           0        1.202882    0.000058   -0.003914
      3         17           0       -0.689013    0.000088   -0.007157
      4          1           0        1.588469   -0.886411   -0.470488
      5          1           0        1.588224    0.898522   -0.447624
 ---------------------------------------------------------------------

 SCF Done:  E(RHF) =  -496.685269413     A.U. after   11 cycles

 The electronic state is 1-A.
 Alpha  occ. eigenvalues -- -104.08814 -11.24986 -10.48206  -7.94580  -7.94175
 Alpha  occ. eigenvalues --   -7.94174  -1.11389  -0.93307  -0.63435  -0.63194
 Alpha  occ. eigenvalues --   -0.51169  -0.43862  -0.43544
 Alpha virt. eigenvalues --    0.16343   0.27353   0.31374   0.31434   0.73880
 Alpha virt. eigenvalues --    0.80136   0.81040   0.85625   0.92590   0.94870
 Alpha virt. eigenvalues --    1.00024   1.30809   1.31181   1.32351   1.91369

 Mulliken charges:
               1
     1  H    0.276314
     2  C   -0.703881
     3  Cl  -0.107134
     4  H    0.267363
     5  H    0.267338
 Sum of Mulliken charges =  -0.00000

 Dipole moment (field-independent basis, Debye):
    X=              2.8530    Y=             -0.0014    Z=              0.1000  Tot=              2.8547
 Quadrupole moment (field-independent basis, Debye-Ang):
   XX=            -18.5566   YY=            -20.1832   ZZ=            -20.2321
   XY=              0.0030   XZ=             -0.2672   YZ=             -0.0001

 Normal termination of Gaussian 16 at Fri Sep 22 17:21:16 2023.
