 Gaussian 16, Revision A.03,
 Gaussian 16:  ES64L-G16RevA.03 25-Dec-2016

 ----------
 # hf/3-21g
 ----------

 ------------------------
 tmpdir/M2_conf_183_7.gjf
 ------------------------
 Symbolic Z-matrix:
 Charge =  0 Multiplicity = 1

                         Standard orientation:
 ---------------------------------------------------------------------
 Center     Atomic      Atomic             Coordinates (Angstroms)
 Number     Number       Type             X           Y           Z
 ---------------------------------------------------------------------
      1          1           0       -0.931478    0.460017   -0.344793
      2          6           0       -0.028958   -0.020104   -0.016834
      3          1           0        0.542858   -0.601689   -0.714974
      4          1           0       -0.175776   -0.610580    0.867449
      5          1           0        0.738143    0.872878    0.293323
 ---------------------------------------------------------------------

 SCF Done:  E(RHF) =  -39.9647270910     A.U. after    9 cycles

 The electronic state is 1-A.
 Alpha  occ. eigenvalues --  -11.15743  -0.93808  -0.56993  -0.54640  -0.49843
 Alpha virt. eigenvalues --    0.28330   0.31929   0.35239   0.36205   0.90947
 Alpha virt. eigenvalues --    0.93546   0.97396   1.25245   1.31901   1.36047
 Alpha virt. eigenvalues --    1.38334   1.94638

 Mulliken charges:
               1
     1  H    0.209266
     2  C   -0.774249
     3  H    0.208991
     4  H    0.206098
     5  H    0.149894
 Sum of Mulliken charges =  -0.00000

 Dipole moment (field-independent basis, Debye):
    X=             -0.0090    Y=             -0.0665    Z=              0.0097  Tot=              0.0678
 Quadrupole moment (field-independent basis, Debye-Ang):
   XX=             -8.3405   YY=             -8.4920   ZZ=             -8.6193
   XY=             -0.2476   XZ=             -0.0725   YZ=             -0.0934

 Normal termination of Gaussian 16 at Fri Sep 22 17:18:43 2023.
