 Gaussian 16, Revision A.03,
 Gaussian 16:  ES64L-G16RevA.03 25-Dec-2016

 ----------
 # hf/3-21g
 ----------

 ------------------------
 tmpdir/M2_conf_190_3.gjf
 ------------------------
 Symbolic Z-matrix:
 Charge =  0 Multiplicity = 1

                         Standard orientation:
 ---------------------------------------------------------------------
 Center     Atomic      Atomic             Coordinates (Angstroms)
 Number     Number       Type             X           Y           Z
 ---------------------------------------------------------------------
      1          6           0       -1.842080    0.000011    0.000009
      2         17           0        1.028220   -0.000009   -0.000002
      3          1           0       -2.142448   -0.278192    0.992267
      4          1           0       -2.142134    0.998720   -0.255261
      5          1           0       -2.142688   -0.720433   -0.737022
 ---------------------------------------------------------------------

 SCF Done:  E(RHF) =  -496.580915463     A.U. after   10 cycles

 The electronic state is 1-A.
 Alpha  occ. eigenvalues -- -104.04202 -11.34086 -10.42835  -7.89150  -7.88935
 Alpha  occ. eigenvalues --   -7.88935  -1.02834  -0.97126  -0.67651  -0.67646
 Alpha  occ. eigenvalues --   -0.39056  -0.39056  -0.37668
 Alpha virt. eigenvalues --   -0.03656   0.23074   0.27889   0.27892   0.72682
 Alpha virt. eigenvalues --    0.78997   0.79005   0.87407   0.91039   0.91045
 Alpha virt. eigenvalues --    0.97560   1.21100   1.25241   1.25250   1.72383

 Mulliken charges:
               1
     1  C   -0.373184
     2  Cl  -0.486886
     3  H    0.286698
     4  H    0.286702
     5  H    0.286670
 Sum of Mulliken charges =  -0.00000

 Dipole moment (field-independent basis, Debye):
    X=             -7.1350    Y=              0.0001    Z=              0.0001  Tot=              7.1350
 Quadrupole moment (field-independent basis, Debye-Ang):
   XX=            -11.6579   YY=            -20.4200   ZZ=            -20.4215
   XY=              0.0003   XZ=             -0.0000   YZ=             -0.0001

 Normal termination of Gaussian 16 at Fri Sep 22 17:18:57 2023.
