 Gaussian 16, Revision A.03,
 Gaussian 16:  ES64L-G16RevA.03 25-Dec-2016

 ----------
 # hf/3-21g
 ----------

 ------------------------
 tmpdir/M2_conf_151_1.gjf
 ------------------------
 Symbolic Z-matrix:
 Charge =  0 Multiplicity = 1

                         Standard orientation:
 ---------------------------------------------------------------------
 Center     Atomic      Atomic             Coordinates (Angstroms)
 Number     Number       Type             X           Y           Z
 ---------------------------------------------------------------------
      1          6           0       -0.031519   -0.000918    0.000054
      2          1           0       -0.349329    1.028612   -0.030498
      3          1           0       -0.322878   -0.493986    0.907895
      4          1           0       -0.324402   -0.547665   -0.876241
      5          1           0        1.185722    0.018546   -0.001483
 ---------------------------------------------------------------------

 SCF Done:  E(RHF) =  -39.9669737962     A.U. after    9 cycles

 The electronic state is 1-A.
 Alpha  occ. eigenvalues --  -11.15776  -0.93728  -0.55642  -0.55546  -0.50267
 Alpha virt. eigenvalues --    0.28303   0.32202   0.35599   0.35687   0.91903
 Alpha virt. eigenvalues --    0.92114   0.97653   1.25047   1.32277   1.36676
 Alpha virt. eigenvalues --    1.36932   1.94598

 Mulliken charges:
               1
     1  C   -0.770079
     2  H    0.205330
     3  H    0.206634
     4  H    0.206579
     5  H    0.151536
 Sum of Mulliken charges =   0.00000

 Dipole moment (field-independent basis, Debye):
    X=             -0.0696    Y=             -0.0037    Z=              0.0003  Tot=              0.0697
 Quadrupole moment (field-independent basis, Debye-Ang):
   XX=             -8.6610   YY=             -8.3909   ZZ=             -8.3951
   XY=             -0.0043   XZ=              0.0004   YZ=              0.0001

 Normal termination of Gaussian 16 at Fri Sep 22 17:17:53 2023.
