 Gaussian 16, Revision A.03,
 Gaussian 16:  ES64L-G16RevA.03 25-Dec-2016

 ----------
 # hf/3-21g
 ----------

 ------------------------
 tmpdir/M2_conf_155_6.gjf
 ------------------------
 Symbolic Z-matrix:
 Charge =  0 Multiplicity = 1

                         Standard orientation:
 ---------------------------------------------------------------------
 Center     Atomic      Atomic             Coordinates (Angstroms)
 Number     Number       Type             X           Y           Z
 ---------------------------------------------------------------------
      1          1           0       -1.124457   -0.002197    1.061264
      2          6           0       -1.204552    0.000033   -0.009141
      3         17           0        0.687339    0.000019   -0.013743
      4          1           0       -1.666312    0.893523   -0.384727
      5          1           0       -1.666677   -0.891854   -0.388068
 ---------------------------------------------------------------------

 SCF Done:  E(RHF) =  -496.670879256     A.U. after   11 cycles

 The electronic state is 1-A.
 Alpha  occ. eigenvalues -- -104.08976 -11.24907 -10.48383  -7.94753  -7.94347
 Alpha  occ. eigenvalues --   -7.94341  -1.11800  -0.93205  -0.63900  -0.63147
 Alpha  occ. eigenvalues --   -0.50779  -0.44104  -0.43121
 Alpha virt. eigenvalues --    0.15567   0.27507   0.31430   0.31527   0.74029
 Alpha virt. eigenvalues --    0.79573   0.80957   0.85453   0.92661   0.96024
 Alpha virt. eigenvalues --    1.01070   1.29837   1.31169   1.32263   1.89316

 Mulliken charges:
               1
     1  H    0.282776
     2  C   -0.706279
     3  Cl  -0.108762
     4  H    0.266140
     5  H    0.266125
 Sum of Mulliken charges =  -0.00000

 Dipole moment (field-independent basis, Debye):
    X=             -2.8034    Y=             -0.0004    Z=              0.2114  Tot=              2.8113
 Quadrupole moment (field-independent basis, Debye-Ang):
   XX=            -18.5264   YY=            -20.1806   ZZ=            -20.4046
   XY=             -0.0007   XZ=              0.5111   YZ=             -0.0001

 Normal termination of Gaussian 16 at Fri Sep 22 17:17:59 2023.
