 Gaussian 16, Revision A.03,
 Gaussian 16:  ES64L-G16RevA.03 25-Dec-2016

 ----------
 # hf/3-21g
 ----------

 ------------------------
 tmpdir/M2_conf_281_1.gjf
 ------------------------
 Symbolic Z-matrix:
 Charge =  0 Multiplicity = 1

                         Standard orientation:
 ---------------------------------------------------------------------
 Center     Atomic      Atomic             Coordinates (Angstroms)
 Number     Number       Type             X           Y           Z
 ---------------------------------------------------------------------
      1          6           0       -0.031899   -0.000062    0.002535
      2          1           0       -0.283614   -0.012624    1.033990
      3          1           0       -0.353774   -0.886755   -0.509669
      4          1           0       -0.355541    0.898064   -0.488620
      5          1           0        1.184323    0.001685   -0.050909
 ---------------------------------------------------------------------

 SCF Done:  E(RHF) =  -39.9667431594     A.U. after    9 cycles

 The electronic state is 1-A.
 Alpha  occ. eigenvalues --  -11.15587  -0.93912  -0.55895  -0.55617  -0.50275
 Alpha virt. eigenvalues --    0.28358   0.32303   0.35686   0.35936   0.91396
 Alpha virt. eigenvalues --    0.91940   0.97599   1.25123   1.32865   1.36967
 Alpha virt. eigenvalues --    1.37766   1.94799

 Mulliken charges:
               1
     1  C   -0.772284
     2  H    0.209400
     3  H    0.206041
     4  H    0.205986
     5  H    0.150857
 Sum of Mulliken charges =   0.00000

 Dipole moment (field-independent basis, Debye):
    X=             -0.0736    Y=             -0.0003    Z=              0.0101  Tot=              0.0743
 Quadrupole moment (field-independent basis, Debye-Ang):
   XX=             -8.6454   YY=             -8.3793   ZZ=             -8.3876
   XY=             -0.0005   XZ=              0.0137   YZ=             -0.0001

 Normal termination of Gaussian 16 at Fri Sep 22 17:21:15 2023.
