 Gaussian 16, Revision A.03,
 Gaussian 16:  ES64L-G16RevA.03 25-Dec-2016

 ----------
 # hf/3-21g
 ----------

 ------------------------
 tmpdir/M2_conf_130_1.gjf
 ------------------------
 Symbolic Z-matrix:
 Charge =  0 Multiplicity = 1

                         Standard orientation:
 ---------------------------------------------------------------------
 Center     Atomic      Atomic             Coordinates (Angstroms)
 Number     Number       Type             X           Y           Z
 ---------------------------------------------------------------------
      1          6           0       -0.032220   -0.000060    0.010368
      2          1           0       -0.178265   -0.002356    1.012782
      3          1           0       -0.399883   -0.891930   -0.460348
      4          1           0       -0.402035    0.893009   -0.456826
      5          1           0        1.173502    0.001638   -0.157816
 ---------------------------------------------------------------------

 SCF Done:  E(RHF) =  -39.9634633461     A.U. after    9 cycles

 The electronic state is 1-A.
 Alpha  occ. eigenvalues --  -11.15019  -0.94533  -0.56968  -0.55549  -0.50288
 Alpha virt. eigenvalues --    0.28484   0.32524   0.35684   0.37029   0.89166
 Alpha virt. eigenvalues --    0.92056   0.97549   1.25308   1.33852   1.37064
 Alpha virt. eigenvalues --    1.42314   1.95512

 Mulliken charges:
               1
     1  C   -0.777924
     2  H    0.221031
     3  H    0.204118
     4  H    0.204063
     5  H    0.148713
 Sum of Mulliken charges =   0.00000

 Dipole moment (field-independent basis, Debye):
    X=             -0.0811    Y=             -0.0003    Z=              0.0441  Tot=              0.0924
 Quadrupole moment (field-independent basis, Debye-Ang):
   XX=             -8.5924   YY=             -8.3301   ZZ=             -8.3809
   XY=             -0.0005   XZ=              0.0400   YZ=             -0.0001

 Normal termination of Gaussian 16 at Fri Sep 22 17:17:21 2023.
