 Gaussian 16, Revision A.03,
 Gaussian 16:  ES64L-G16RevA.03 25-Dec-2016

 ----------
 # hf/3-21g
 ----------

 -----------------------
 tmpdir/M2_conf_47_2.gjf
 -----------------------
 Symbolic Z-matrix:
 Charge =  0 Multiplicity = 1

                         Standard orientation:
 ---------------------------------------------------------------------
 Center     Atomic      Atomic             Coordinates (Angstroms)
 Number     Number       Type             X           Y           Z
 ---------------------------------------------------------------------
      1          6           0        0.032091    0.000015    0.005084
      2          1           0        0.245661   -0.009460    1.030128
      3          1           0        0.374030   -0.886875   -0.493618
      4          1           0        0.369328    0.898200   -0.476742
      5          1           0       -1.181565   -0.001953   -0.090271
 ---------------------------------------------------------------------

 SCF Done:  E(RHF) =  -39.9661881922     A.U. after    9 cycles

 The electronic state is 1-A.
 Alpha  occ. eigenvalues --  -11.15416  -0.94088  -0.56213  -0.55599  -0.50281
 Alpha virt. eigenvalues --    0.28401   0.32381   0.35687   0.36254   0.90726
 Alpha virt. eigenvalues --    0.91978   0.97569   1.25184   1.33256   1.37002
 Alpha virt. eigenvalues --    1.38968   1.94994

 Mulliken charges:
               1
     1  C   -0.774147
     2  H    0.213011
     3  H    0.205478
     4  H    0.205432
     5  H    0.150226
 Sum of Mulliken charges =  -0.00000

 Dipole moment (field-independent basis, Debye):
    X=              0.0765    Y=             -0.0001    Z=              0.0210  Tot=              0.0793
 Quadrupole moment (field-independent basis, Debye-Ang):
   XX=             -8.6302   YY=             -8.3641   ZZ=             -8.3857
   XY=             -0.0011   XZ=             -0.0226   YZ=             -0.0005

 Normal termination of Gaussian 16 at Fri Sep 22 17:15:18 2023.
