 Gaussian 16, Revision A.03,
 Gaussian 16:  ES64L-G16RevA.03 25-Dec-2016

 ----------
 # hf/3-21g
 ----------

 -----------------------
 tmpdir/M2_conf_46_7.gjf
 -----------------------
 Symbolic Z-matrix:
 Charge =  0 Multiplicity = 1

                         Standard orientation:
 ---------------------------------------------------------------------
 Center     Atomic      Atomic             Coordinates (Angstroms)
 Number     Number       Type             X           Y           Z
 ---------------------------------------------------------------------
      1          1           0       -0.325794    0.976873   -0.339072
      2          6           0       -0.032176    0.000700   -0.002190
      3          1           0       -0.291797   -0.781088   -0.690678
      4          1           0       -0.373446   -0.210122    0.993432
      5          1           0        1.184091    0.010140    0.049460
 ---------------------------------------------------------------------

 SCF Done:  E(RHF) =  -39.9668719038     A.U. after    9 cycles

 The electronic state is 1-A.
 Alpha  occ. eigenvalues --  -11.15727  -0.93776  -0.55788  -0.55525  -0.50232
 Alpha virt. eigenvalues --    0.28322   0.32209   0.35640   0.35744   0.91798
 Alpha virt. eigenvalues --    0.92075   0.97603   1.25088   1.32403   1.36833
 Alpha virt. eigenvalues --    1.37085   1.94659

 Mulliken charges:
               1
     1  H    0.206659
     2  C   -0.770804
     3  H    0.206565
     4  H    0.206403
     5  H    0.151176
 Sum of Mulliken charges =  -0.00000

 Dipole moment (field-independent basis, Debye):
    X=             -0.0687    Y=             -0.0046    Z=              0.0000  Tot=              0.0689
 Quadrupole moment (field-independent basis, Debye-Ang):
   XX=             -8.6635   YY=             -8.3648   ZZ=             -8.4105
   XY=             -0.0052   XZ=             -0.0205   YZ=             -0.0006

 Normal termination of Gaussian 16 at Fri Sep 22 17:15:16 2023.
