 Gaussian 16, Revision A.03,
 Gaussian 16:  ES64L-G16RevA.03 25-Dec-2016

 ----------
 # hf/3-21g
 ----------

 -----------------------
 tmpdir/M2_conf_50_3.gjf
 -----------------------
 Symbolic Z-matrix:
 Charge =  0 Multiplicity = 1

                         Standard orientation:
 ---------------------------------------------------------------------
 Center     Atomic      Atomic             Coordinates (Angstroms)
 Number     Number       Type             X           Y           Z
 ---------------------------------------------------------------------
      1          6           0       -1.288403    0.000018    0.000010
      2         17           0        0.735097   -0.000013   -0.000003
      3          1           0       -1.588770   -0.278184    0.992268
      4          1           0       -1.588449    0.998730   -0.255258
      5          1           0       -1.589019   -0.720423   -0.737021
 ---------------------------------------------------------------------

 SCF Done:  E(RHF) =  -496.684603594     A.U. after   10 cycles

 The electronic state is 1-A.
 Alpha  occ. eigenvalues -- -104.08688 -11.26414 -10.47771  -7.94124  -7.93776
 Alpha  occ. eigenvalues --   -7.93776  -1.08387  -0.94611  -0.63208  -0.63203
 Alpha  occ. eigenvalues --   -0.49068  -0.43497  -0.43497
 Alpha virt. eigenvalues --    0.12347   0.26815   0.31198   0.31202   0.73575
 Alpha virt. eigenvalues --    0.80053   0.80057   0.85696   0.93651   0.93662
 Alpha virt. eigenvalues --    1.02424   1.30585   1.30594   1.30683   1.87894

 Mulliken charges:
               1
     1  C   -0.623560
     2  Cl  -0.186068
     3  H    0.269898
     4  H    0.269880
     5  H    0.269850
 Sum of Mulliken charges =  -0.00000

 Dipole moment (field-independent basis, Debye):
    X=             -3.3397    Y=              0.0001    Z=              0.0001  Tot=              3.3397
 Quadrupole moment (field-independent basis, Debye-Ang):
   XX=            -17.7195   YY=            -20.2803   ZZ=            -20.2816
   XY=              0.0006   XZ=             -0.0001   YZ=             -0.0001

 Normal termination of Gaussian 16 at Fri Sep 22 17:15:22 2023.
