 Gaussian 16, Revision A.03,
 Gaussian 16:  ES64L-G16RevA.03 25-Dec-2016

 ----------
 # hf/3-21g
 ----------

 ------------------------
 tmpdir/M2_conf_144_0.gjf
 ------------------------
 Symbolic Z-matrix:
 Charge =  0 Multiplicity = 1

                         Standard orientation:
 ---------------------------------------------------------------------
 Center     Atomic      Atomic             Coordinates (Angstroms)
 Number     Number       Type             X           Y           Z
 ---------------------------------------------------------------------
      1          6           0       -0.030284   -0.006784   -0.000056
      2          1           0       -0.484979    0.993072   -0.004779
      3          1           0       -0.251324   -0.562858   -0.891429
      4          1           0       -0.256648   -0.556460    0.893935
      5          1           0        1.174656    0.166953    0.002606
 ---------------------------------------------------------------------

 SCF Done:  E(RHF) =  -39.9667526094     A.U. after    9 cycles

 The electronic state is 1-A.
 Alpha  occ. eigenvalues --  -11.16018  -0.93508  -0.55677  -0.55103  -0.50252
 Alpha virt. eigenvalues --    0.28221   0.32044   0.35196   0.35686   0.91869
 Alpha virt. eigenvalues --    0.92984   0.97773   1.24932   1.31254   1.35663
 Alpha virt. eigenvalues --    1.36878   1.94353

 Mulliken charges:
               1
     1  C   -0.767000
     2  H    0.199991
     3  H    0.207313
     4  H    0.207310
     5  H    0.152387
 Sum of Mulliken charges =  -0.00000

 Dipole moment (field-independent basis, Debye):
    X=             -0.0610    Y=             -0.0242    Z=             -0.0001  Tot=              0.0656
 Quadrupole moment (field-independent basis, Debye-Ang):
   XX=             -8.6730   YY=             -8.4037   ZZ=             -8.4143
   XY=             -0.0437   XZ=             -0.0012   YZ=              0.0001

 Normal termination of Gaussian 16 at Fri Sep 22 17:17:43 2023.
