 Gaussian 16, Revision A.03,
 Gaussian 16:  ES64L-G16RevA.03 25-Dec-2016

 ----------
 # hf/3-21g
 ----------

 -----------------------
 tmpdir/M2_conf_49_9.gjf
 -----------------------
 Symbolic Z-matrix:
 Charge =  0 Multiplicity = 1

                         Standard orientation:
 ---------------------------------------------------------------------
 Center     Atomic      Atomic             Coordinates (Angstroms)
 Number     Number       Type             X           Y           Z
 ---------------------------------------------------------------------
      1          1           0        1.411888   -0.054077    1.049699
      2          6           0        1.202484    0.000106   -0.001886
      3         17           0       -0.689410    0.000179   -0.003618
      4          1           0        1.546739   -0.866172   -0.534096
      5          1           0        1.546442    0.916571   -0.442783
 ---------------------------------------------------------------------

 SCF Done:  E(RHF) =  -496.688456035     A.U. after   11 cycles

 The electronic state is 1-A.
 Alpha  occ. eigenvalues -- -104.08782 -11.24998 -10.48172  -7.94546  -7.94142
 Alpha  occ. eigenvalues --   -7.94142  -1.11306  -0.93330  -0.63307  -0.63217
 Alpha  occ. eigenvalues --   -0.51284  -0.43786  -0.43656
 Alpha virt. eigenvalues --    0.16539   0.27335   0.31368   0.31402   0.73839
 Alpha virt. eigenvalues --    0.80407   0.80916   0.85543   0.93053   0.94275
 Alpha virt. eigenvalues --    0.99669   1.31114   1.31202   1.32264   1.91854

 Mulliken charges:
               1
     1  H    0.273070
     2  C   -0.702987
     3  Cl  -0.107023
     4  H    0.268482
     5  H    0.268458
 Sum of Mulliken charges =  -0.00000

 Dipole moment (field-independent basis, Debye):
    X=              2.8631    Y=             -0.0026    Z=              0.0489  Tot=              2.8635
 Quadrupole moment (field-independent basis, Debye-Ang):
   XX=            -18.5665   YY=            -20.1822   ZZ=            -20.1923
   XY=              0.0064   XZ=             -0.1352   YZ=             -0.0002

 Normal termination of Gaussian 16 at Fri Sep 22 17:15:20 2023.
