 Gaussian 16, Revision A.03,
 Gaussian 16:  ES64L-G16RevA.03 25-Dec-2016

 ----------
 # hf/3-21g
 ----------

 ------------------------
 tmpdir/M2_conf_190_8.gjf
 ------------------------
 Symbolic Z-matrix:
 Charge =  0 Multiplicity = 1

                         Standard orientation:
 ---------------------------------------------------------------------
 Center     Atomic      Atomic             Coordinates (Angstroms)
 Number     Number       Type             X           Y           Z
 ---------------------------------------------------------------------
      1          1           0       -0.763270   -0.000226    0.949878
      2          6           0       -1.210802   -0.000013   -0.025997
      3         17           0        0.681088    0.000013   -0.020911
      4          1           0       -1.775050   -0.892437   -0.219335
      5          1           0       -1.775371    0.892513   -0.219073
 ---------------------------------------------------------------------

 SCF Done:  E(RHF) =  -496.605385799     A.U. after   12 cycles

 The electronic state is 1-A.
 Alpha  occ. eigenvalues -- -104.09906 -11.24148 -10.49486  -7.95841  -7.95415
 Alpha  occ. eigenvalues --   -7.95381  -1.14169  -0.92686  -0.65483  -0.62864
 Alpha  occ. eigenvalues --   -0.50533  -0.45222  -0.40800
 Alpha virt. eigenvalues --    0.13110   0.28746   0.31843   0.31920   0.74159
 Alpha virt. eigenvalues --    0.78307   0.80334   0.84497   0.94231   0.97732
 Alpha virt. eigenvalues --    1.02871   1.25981   1.31264   1.31508   1.83301

 Mulliken charges:
               1
     1  H    0.293320
     2  C   -0.715979
     3  Cl  -0.113074
     4  H    0.267887
     5  H    0.267845
 Sum of Mulliken charges =  -0.00000

 Dipole moment (field-independent basis, Debye):
    X=             -2.4927    Y=             -0.0002    Z=              0.4465  Tot=              2.5324
 Quadrupole moment (field-independent basis, Debye-Ang):
   XX=            -18.5707   YY=            -20.1381   ZZ=            -21.0204
   XY=             -0.0004   XZ=              0.7297   YZ=              0.0000

 Normal termination of Gaussian 16 at Fri Sep 22 17:18:57 2023.
