 Gaussian 16, Revision A.03,
 Gaussian 16:  ES64L-G16RevA.03 25-Dec-2016

 ----------
 # hf/3-21g
 ----------

 -----------------------
 tmpdir/M2_conf_63_2.gjf
 -----------------------
 Symbolic Z-matrix:
 Charge =  0 Multiplicity = 1

                         Standard orientation:
 ---------------------------------------------------------------------
 Center     Atomic      Atomic             Coordinates (Angstroms)
 Number     Number       Type             X           Y           Z
 ---------------------------------------------------------------------
      1          6           0        0.008915   -0.029075   -0.000015
      2          1           0        1.116529    0.366691   -0.002591
      3          1           0       -0.229871   -0.574763    0.892960
      4          1           0       -0.234828   -0.574262   -0.892194
      5          1           0       -0.705320    0.956786    0.001918
 ---------------------------------------------------------------------

 SCF Done:  E(RHF) =  -39.9616803140     A.U. after    9 cycles

 The electronic state is 1-A.
 Alpha  occ. eigenvalues --  -11.16912  -0.92819  -0.55820  -0.53565  -0.50097
 Alpha virt. eigenvalues --    0.27717   0.31147   0.34093   0.35686   0.91703
 Alpha virt. eigenvalues --    0.95291   0.99236   1.23914   1.26770   1.34103
 Alpha virt. eigenvalues --    1.36682   1.93488

 Mulliken charges:
               1
     1  C   -0.753149
     2  H    0.178344
     3  H    0.209769
     4  H    0.209717
     5  H    0.155319
 Sum of Mulliken charges =   0.00000

 Dipole moment (field-independent basis, Debye):
    X=             -0.0339    Y=             -0.0739    Z=              0.0002  Tot=              0.0813
 Quadrupole moment (field-independent basis, Debye-Ang):
   XX=             -8.5141   YY=             -8.6473   ZZ=             -8.4866
   XY=              0.1532   XZ=              0.0010   YZ=             -0.0007

 Normal termination of Gaussian 16 at Fri Sep 22 17:15:41 2023.
