 Gaussian 16, Revision A.03,
 Gaussian 16:  ES64L-G16RevA.03 25-Dec-2016

 ----------
 # hf/3-21g
 ----------

 ------------------------
 tmpdir/M2_conf_165_8.gjf
 ------------------------
 Symbolic Z-matrix:
 Charge =  0 Multiplicity = 1

                         Standard orientation:
 ---------------------------------------------------------------------
 Center     Atomic      Atomic             Coordinates (Angstroms)
 Number     Number       Type             X           Y           Z
 ---------------------------------------------------------------------
      1          1           0       -1.092575   -0.001194    1.057556
      2          6           0       -1.204936   -0.000004   -0.010147
      3         17           0        0.686959    0.000023   -0.014684
      4          1           0       -1.677931   -0.892064   -0.374404
      5          1           0       -1.678187    0.892885   -0.372639
 ---------------------------------------------------------------------

 SCF Done:  E(RHF) =  -496.667404067     A.U. after   11 cycles

 The electronic state is 1-A.
 Alpha  occ. eigenvalues -- -104.09019 -11.24883 -10.48431  -7.94800  -7.94393
 Alpha  occ. eigenvalues --   -7.94386  -1.11905  -0.93181  -0.64003  -0.63136
 Alpha  occ. eigenvalues --   -0.50709  -0.44159  -0.43017
 Alpha virt. eigenvalues --    0.15399   0.27552   0.31446   0.31548   0.74056
 Alpha virt. eigenvalues --    0.79475   0.80915   0.85365   0.92809   0.96185
 Alpha virt. eigenvalues --    1.01254   1.29652   1.31179   1.32190   1.88859

 Mulliken charges:
               1
     1  H    0.283725
     2  C   -0.706665
     3  Cl  -0.109246
     4  H    0.266116
     5  H    0.266070
 Sum of Mulliken charges =  -0.00000

 Dipole moment (field-independent basis, Debye):
    X=             -2.7904    Y=             -0.0004    Z=              0.2298  Tot=              2.7998
 Quadrupole moment (field-independent basis, Debye-Ang):
   XX=            -18.5218   YY=            -20.1806   ZZ=            -20.4429
   XY=             -0.0007   XZ=              0.5461   YZ=              0.0000

 Normal termination of Gaussian 16 at Fri Sep 22 17:18:15 2023.
