 Gaussian 16, Revision A.03,
 Gaussian 16:  ES64L-G16RevA.03 25-Dec-2016

 ----------
 # hf/3-21g
 ----------

 ------------------------
 tmpdir/M2_conf_230_4.gjf
 ------------------------
 Symbolic Z-matrix:
 Charge =  0 Multiplicity = 1

                         Standard orientation:
 ---------------------------------------------------------------------
 Center     Atomic      Atomic             Coordinates (Angstroms)
 Number     Number       Type             X           Y           Z
 ---------------------------------------------------------------------
      1          1           0       -1.004776    0.273427   -0.342111
      2          6           0       -0.025651   -0.024894   -0.018833
      3          1           0        0.664930   -0.466305   -0.712279
      4          1           0       -0.054318   -0.653048    0.851342
      5          1           0        0.548072    0.995288    0.316046
 ---------------------------------------------------------------------

 SCF Done:  E(RHF) =  -39.9641297834     A.U. after    9 cycles

 The electronic state is 1-A.
 Alpha  occ. eigenvalues --  -11.15746  -0.93818  -0.57184  -0.54505  -0.49765
 Alpha virt. eigenvalues --    0.28328   0.31865   0.35174   0.36280   0.90836
 Alpha virt. eigenvalues --    0.93813   0.97375   1.25265   1.31817   1.35931
 Alpha virt. eigenvalues --    1.38545   1.94622

 Mulliken charges:
               1
     1  H    0.209866
     2  C   -0.775233
     3  H    0.209617
     4  H    0.206033
     5  H    0.149717
 Sum of Mulliken charges =  -0.00000

 Dipole moment (field-independent basis, Debye):
    X=              0.0094    Y=             -0.0681    Z=              0.0119  Tot=              0.0697
 Quadrupole moment (field-independent basis, Debye-Ang):
   XX=             -8.2199   YY=             -8.5794   ZZ=             -8.6554
   XY=             -0.2084   XZ=             -0.0559   YZ=             -0.1137

 Normal termination of Gaussian 16 at Fri Sep 22 17:19:58 2023.
