 Gaussian 16, Revision A.03,
 Gaussian 16:  ES64L-G16RevA.03 25-Dec-2016

 ----------
 # hf/3-21g
 ----------

 ------------------------
 tmpdir/M2_conf_283_9.gjf
 ------------------------
 Symbolic Z-matrix:
 Charge =  0 Multiplicity = 1

                         Standard orientation:
 ---------------------------------------------------------------------
 Center     Atomic      Atomic             Coordinates (Angstroms)
 Number     Number       Type             X           Y           Z
 ---------------------------------------------------------------------
      1          1           0        1.331927   -0.015983    1.062062
      2          6           0        1.202815    0.000061   -0.003625
      3         17           0       -0.689084    0.000094   -0.006685
      4          1           0        1.582932   -0.885438   -0.476487
      5          1           0        1.582680    0.899449   -0.450179
 ---------------------------------------------------------------------

 SCF Done:  E(RHF) =  -496.685836573     A.U. after   11 cycles

 The electronic state is 1-A.
 Alpha  occ. eigenvalues -- -104.08809 -11.24988 -10.48200  -7.94574  -7.94169
 Alpha  occ. eigenvalues --   -7.94168  -1.11374  -0.93311  -0.63414  -0.63197
 Alpha  occ. eigenvalues --   -0.51189  -0.43850  -0.43562
 Alpha virt. eigenvalues --    0.16377   0.27349   0.31372   0.31430   0.73873
 Alpha virt. eigenvalues --    0.80173   0.81030   0.85616   0.92638   0.94790
 Alpha virt. eigenvalues --    0.99967   1.30857   1.31183   1.32343   1.91455

 Mulliken charges:
               1
     1  H    0.275875
     2  C   -0.703738
     3  Cl  -0.107104
     4  H    0.267496
     5  H    0.267471
 Sum of Mulliken charges =   0.00000

 Dipole moment (field-independent basis, Debye):
    X=              2.8548    Y=             -0.0015    Z=              0.0930  Tot=              2.8563
 Quadrupole moment (field-independent basis, Debye-Ang):
   XX=            -18.5583   YY=            -20.1831   ZZ=            -20.2250
   XY=              0.0033   XZ=             -0.2496   YZ=             -0.0001

 Normal termination of Gaussian 16 at Fri Sep 22 17:21:18 2023.
