 Gaussian 16, Revision A.03,
 Gaussian 16:  ES64L-G16RevA.03 25-Dec-2016

 ----------
 # hf/3-21g
 ----------

 ------------------------
 tmpdir/M2_conf_245_3.gjf
 ------------------------
 Symbolic Z-matrix:
 Charge =  0 Multiplicity = 1

                         Standard orientation:
 ---------------------------------------------------------------------
 Center     Atomic      Atomic             Coordinates (Angstroms)
 Number     Number       Type             X           Y           Z
 ---------------------------------------------------------------------
      1          6           0       -2.310953    0.000008    0.000008
      2         17           0        1.276447   -0.000008   -0.000002
      3          1           0       -2.611321   -0.278196    0.992266
      4          1           0       -2.611009    0.998716   -0.255263
      5          1           0       -2.611558   -0.720438   -0.737023
 ---------------------------------------------------------------------

 SCF Done:  E(RHF) =  -496.513236000     A.U. after   11 cycles

 The electronic state is 1-A.
 Alpha  occ. eigenvalues -- -103.99917 -11.38001 -10.38657  -7.84977  -7.84789
 Alpha  occ. eigenvalues --   -7.84789  -1.06109  -0.93648  -0.71331  -0.71326
 Alpha  occ. eigenvalues --   -0.35567  -0.35566  -0.32204
 Alpha virt. eigenvalues --   -0.10073   0.20323   0.24970   0.24974   0.73276
 Alpha virt. eigenvalues --    0.79041   0.79053   0.83462   0.89656   0.89657
 Alpha virt. eigenvalues --    0.97027   1.11361   1.21843   1.21852   1.63148

 Mulliken charges:
               1
     1  C   -0.340026
     2  Cl  -0.588001
     3  H    0.309346
     4  H    0.309354
     5  H    0.309327
 Sum of Mulliken charges =  -0.00000

 Dipole moment (field-independent basis, Debye):
    X=            -10.4851    Y=              0.0001    Z=              0.0001  Tot=             10.4851
 Quadrupole moment (field-independent basis, Debye-Ang):
   XX=             -6.3930   YY=            -20.3871   ZZ=            -20.3887
   XY=              0.0002   XZ=              0.0000   YZ=             -0.0001

 Normal termination of Gaussian 16 at Fri Sep 22 17:20:20 2023.
