 Gaussian 16, Revision A.03,
 Gaussian 16:  ES64L-G16RevA.03 25-Dec-2016

 ----------
 # hf/3-21g
 ----------

 -----------------------
 tmpdir/M2_conf_73_6.gjf
 -----------------------
 Symbolic Z-matrix:
 Charge =  0 Multiplicity = 1

                         Standard orientation:
 ---------------------------------------------------------------------
 Center     Atomic      Atomic             Coordinates (Angstroms)
 Number     Number       Type             X           Y           Z
 ---------------------------------------------------------------------
      1          1           0       -1.586261   -0.019086    1.004035
      2          6           0       -1.202473   -0.000013    0.001773
      3         17           0        0.689424   -0.000078    0.003407
      4          1           0       -1.459302    0.902775   -0.519404
      5          1           0       -1.459804   -0.882286   -0.553190
 ---------------------------------------------------------------------

 SCF Done:  E(RHF) =  -496.688599231     A.U. after   11 cycles

 The electronic state is 1-A.
 Alpha  occ. eigenvalues -- -104.08780 -11.24999 -10.48170  -7.94544  -7.94140
 Alpha  occ. eigenvalues --   -7.94140  -1.11301  -0.93331  -0.63279  -0.63242
 Alpha  occ. eigenvalues --   -0.51287  -0.43761  -0.43682
 Alpha virt. eigenvalues --    0.16545   0.27331   0.31364   0.31407   0.73836
 Alpha virt. eigenvalues --    0.80398   0.80947   0.85546   0.93076   0.94199
 Alpha virt. eigenvalues --    0.99686   1.31070   1.31259   1.32274   1.91883

 Mulliken charges:
               1
     1  H    0.267086
     2  C   -0.703045
     3  Cl  -0.106953
     4  H    0.271468
     5  H    0.271445
 Sum of Mulliken charges =  -0.00000

 Dipole moment (field-independent basis, Debye):
    X=             -2.8637    Y=              0.0009    Z=             -0.0438  Tot=              2.8640
 Quadrupole moment (field-independent basis, Debye-Ang):
   XX=            -18.5668   YY=            -20.1781   ZZ=            -20.1945
   XY=              0.0030   XZ=             -0.1278   YZ=             -0.0000

 Normal termination of Gaussian 16 at Fri Sep 22 17:15:57 2023.
