 Gaussian 16, Revision A.03,
 Gaussian 16:  ES64L-G16RevA.03 25-Dec-2016

 ----------
 # hf/3-21g
 ----------

 ------------------------
 tmpdir/M2_conf_182_3.gjf
 ------------------------
 Symbolic Z-matrix:
 Charge =  0 Multiplicity = 1

                         Standard orientation:
 ---------------------------------------------------------------------
 Center     Atomic      Atomic             Coordinates (Angstroms)
 Number     Number       Type             X           Y           Z
 ---------------------------------------------------------------------
      1          6           0       -1.731514    0.000012    0.000009
      2         17           0        0.969686   -0.000010   -0.000002
      3          1           0       -2.031882   -0.278191    0.992267
      4          1           0       -2.031567    0.998721   -0.255261
      5          1           0       -2.032123   -0.720432   -0.737022
 ---------------------------------------------------------------------

 SCF Done:  E(RHF) =  -496.601900236     A.U. after   10 cycles

 The electronic state is 1-A.
 Alpha  occ. eigenvalues -- -104.05327 -11.32792 -10.43944  -7.90259  -7.90034
 Alpha  occ. eigenvalues --   -7.90034  -1.02290  -0.97785  -0.66582  -0.66577
 Alpha  occ. eigenvalues --   -0.40012  -0.40011  -0.39452
 Alpha virt. eigenvalues --   -0.01496   0.23850   0.28683   0.28687   0.72957
 Alpha virt. eigenvalues --    0.78758   0.78765   0.89460   0.91913   0.91920
 Alpha virt. eigenvalues --    0.97044   1.23381   1.26266   1.26276   1.75281

 Mulliken charges:
               1
     1  C   -0.394802
     2  Cl  -0.447593
     3  H    0.280808
     4  H    0.280810
     5  H    0.280778
 Sum of Mulliken charges =  -0.00000

 Dipole moment (field-independent basis, Debye):
    X=             -6.3210    Y=              0.0001    Z=              0.0001  Tot=              6.3210
 Quadrupole moment (field-independent basis, Debye-Ang):
   XX=            -12.8914   YY=            -20.4257   ZZ=            -20.4272
   XY=              0.0003   XZ=             -0.0000   YZ=             -0.0001

 Normal termination of Gaussian 16 at Fri Sep 22 17:18:41 2023.
