 Gaussian 16, Revision A.03,
 Gaussian 16:  ES64L-G16RevA.03 25-Dec-2016

 ----------
 # hf/3-21g
 ----------

 ------------------------
 tmpdir/M2_conf_297_6.gjf
 ------------------------
 Symbolic Z-matrix:
 Charge =  0 Multiplicity = 1

                         Standard orientation:
 ---------------------------------------------------------------------
 Center     Atomic      Atomic             Coordinates (Angstroms)
 Number     Number       Type             X           Y           Z
 ---------------------------------------------------------------------
      1          1           0       -1.521949   -0.168061    1.011255
      2          6           0       -1.202362   -0.000047    0.000402
      3         17           0        0.689534   -0.000141    0.000769
      4          1           0       -1.492737    0.965992   -0.367107
      5          1           0       -1.493226   -0.795261   -0.659629
 ---------------------------------------------------------------------

 SCF Done:  E(RHF) =  -496.689436953     A.U. after   11 cycles

 The electronic state is 1-A.
 Alpha  occ. eigenvalues -- -104.08773 -11.25001 -10.48162  -7.94537  -7.94133
 Alpha  occ. eigenvalues --   -7.94133  -1.11281  -0.93337  -0.63252  -0.63240
 Alpha  occ. eigenvalues --   -0.51322  -0.43737  -0.43716
 Alpha virt. eigenvalues --    0.16603   0.27332   0.31373   0.31384   0.73825
 Alpha virt. eigenvalues --    0.80620   0.80743   0.85500   0.93534   0.93789
 Alpha virt. eigenvalues --    0.99533   1.31219   1.31232   1.32199   1.92002

 Mulliken charges:
               1
     1  H    0.269248
     2  C   -0.702633
     3  Cl  -0.107050
     4  H    0.270229
     5  H    0.270207
 Sum of Mulliken charges =   0.00000

 Dipole moment (field-independent basis, Debye):
    X=             -2.8662    Y=              0.0017    Z=             -0.0100  Tot=              2.8662
 Quadrupole moment (field-independent basis, Debye-Ang):
   XX=            -18.5701   YY=            -20.1795   ZZ=            -20.1820
   XY=              0.0054   XZ=             -0.0290   YZ=              0.0000

 Normal termination of Gaussian 16 at Fri Sep 22 17:21:44 2023.
