 Gaussian 16, Revision A.03,
 Gaussian 16:  ES64L-G16RevA.03 25-Dec-2016

 ----------
 # hf/3-21g
 ----------

 ------------------------
 tmpdir/M2_conf_213_2.gjf
 ------------------------
 Symbolic Z-matrix:
 Charge =  0 Multiplicity = 1

                         Standard orientation:
 ---------------------------------------------------------------------
 Center     Atomic      Atomic             Coordinates (Angstroms)
 Number     Number       Type             X           Y           Z
 ---------------------------------------------------------------------
      1          6           0        0.032277    0.000013    0.015060
      2          1           0        0.142024   -0.002480    0.985269
      3          1           0        0.417898   -0.890410   -0.443898
      4          1           0        0.413748    0.894741   -0.439435
      5          1           0       -1.167331   -0.001930   -0.192294
 ---------------------------------------------------------------------

 SCF Done:  E(RHF) =  -39.9579088884     A.U. after    9 cycles

 The electronic state is 1-A.
 Alpha  occ. eigenvalues --  -11.14601  -0.95067  -0.57775  -0.55510  -0.50289
 Alpha virt. eigenvalues --    0.28553   0.32630   0.35682   0.37876   0.87507
 Alpha virt. eigenvalues --    0.92152   0.97568   1.25420   1.34255   1.37125
 Alpha virt. eigenvalues --    1.46467   1.96217

 Mulliken charges:
               1
     1  C   -0.781090
     2  H    0.228983
     3  H    0.202556
     4  H    0.202512
     5  H    0.147039
 Sum of Mulliken charges =   0.00000

 Dipole moment (field-independent basis, Debye):
    X=              0.0852    Y=             -0.0001    Z=              0.0640  Tot=              0.1066
 Quadrupole moment (field-independent basis, Debye-Ang):
   XX=             -8.5525   YY=             -8.2915   ZZ=             -8.3744
   XY=             -0.0011   XZ=             -0.0462   YZ=             -0.0005

 Normal termination of Gaussian 16 at Fri Sep 22 17:19:32 2023.
