 Gaussian 16, Revision A.03,
 Gaussian 16:  ES64L-G16RevA.03 25-Dec-2016

 ----------
 # hf/3-21g
 ----------

 ------------------------
 tmpdir/M2_conf_189_2.gjf
 ------------------------
 Symbolic Z-matrix:
 Charge =  0 Multiplicity = 1

                         Standard orientation:
 ---------------------------------------------------------------------
 Center     Atomic      Atomic             Coordinates (Angstroms)
 Number     Number       Type             X           Y           Z
 ---------------------------------------------------------------------
      1          6           0        0.009415   -0.028908   -0.000015
      2          1           0        1.110827    0.378071   -0.002640
      3          1           0       -0.223446   -0.577111    0.892985
      4          1           0       -0.228476   -0.576714   -0.892169
      5          1           0       -0.715396    0.949203    0.001917
 ---------------------------------------------------------------------

 SCF Done:  E(RHF) =  -39.9618793280     A.U. after    9 cycles

 The electronic state is 1-A.
 Alpha  occ. eigenvalues --  -11.16889  -0.92834  -0.55816  -0.53601  -0.50104
 Alpha virt. eigenvalues --    0.27736   0.31174   0.34113   0.35687   0.91707
 Alpha virt. eigenvalues --    0.95259   0.99173   1.23968   1.26855   1.34126
 Alpha virt. eigenvalues --    1.36688   1.93510

 Mulliken charges:
               1
     1  C   -0.753549
     2  H    0.178925
     3  H    0.209713
     4  H    0.209662
     5  H    0.155249
 Sum of Mulliken charges =  -0.00000

 Dipole moment (field-independent basis, Debye):
    X=             -0.0315    Y=             -0.0738    Z=              0.0002  Tot=              0.0803
 Quadrupole moment (field-independent basis, Debye-Ang):
   XX=             -8.5168   YY=             -8.6425   ZZ=             -8.4848
   XY=              0.1541   XZ=              0.0010   YZ=             -0.0007

 Normal termination of Gaussian 16 at Fri Sep 22 17:18:56 2023.
