 Gaussian 16, Revision A.03,
 Gaussian 16:  ES64L-G16RevA.03 25-Dec-2016

 ----------
 # hf/3-21g
 ----------

 ------------------------
 tmpdir/M2_conf_266_4.gjf
 ------------------------
 Symbolic Z-matrix:
 Charge =  0 Multiplicity = 1

                         Standard orientation:
 ---------------------------------------------------------------------
 Center     Atomic      Atomic             Coordinates (Angstroms)
 Number     Number       Type             X           Y           Z
 ---------------------------------------------------------------------
      1          1           0        0.477223   -0.155597    0.940612
      2          6           0        0.014626    0.022898   -0.011402
      3          1           0        0.740849   -0.345844   -0.710865
      4          1           0       -0.321657    1.036581   -0.120781
      5          1           0       -0.984174   -0.672530   -0.040554
 ---------------------------------------------------------------------

 SCF Done:  E(RHF) =  -39.9645984024     A.U. after    9 cycles

 The electronic state is 1-A.
 Alpha  occ. eigenvalues --  -11.15720  -0.93847  -0.57075  -0.53686  -0.50632
 Alpha virt. eigenvalues --    0.28221   0.32339   0.34947   0.36218   0.90519
 Alpha virt. eigenvalues --    0.93365   0.98296   1.24808   1.32704   1.35287
 Alpha virt. eigenvalues --    1.38654   1.94238

 Mulliken charges:
               1
     1  H    0.204454
     2  C   -0.773494
     3  H    0.206727
     4  H    0.208214
     5  H    0.154099
 Sum of Mulliken charges =  -0.00000

 Dipole moment (field-independent basis, Debye):
    X=              0.1039    Y=              0.0228    Z=              0.0582  Tot=              0.1212
 Quadrupole moment (field-independent basis, Debye-Ang):
   XX=             -8.3160   YY=             -8.4037   ZZ=             -8.7156
   XY=             -0.2240   XZ=             -0.0234   YZ=             -0.0114

 Normal termination of Gaussian 16 at Fri Sep 22 17:20:53 2023.
