 Gaussian 16, Revision A.03,
 Gaussian 16:  ES64L-G16RevA.03 25-Dec-2016

 ----------
 # hf/3-21g
 ----------

 ------------------------
 tmpdir/M2_conf_112_4.gjf
 ------------------------
 Symbolic Z-matrix:
 Charge =  0 Multiplicity = 1

                         Standard orientation:
 ---------------------------------------------------------------------
 Center     Atomic      Atomic             Coordinates (Angstroms)
 Number     Number       Type             X           Y           Z
 ---------------------------------------------------------------------
      1          1           0       -0.329971    0.965363   -0.364672
      2          6           0       -0.031951    0.000290   -0.001345
      3          1           0       -0.304913   -0.798695   -0.664470
      4          1           0       -0.358388   -0.177939    1.005768
      5          1           0        1.184977    0.009531    0.031445
 ---------------------------------------------------------------------

 SCF Done:  E(RHF) =  -39.9669105037     A.U. after    9 cycles

 The electronic state is 1-A.
 Alpha  occ. eigenvalues --  -11.15726  -0.93776  -0.55723  -0.55572  -0.50249
 Alpha virt. eigenvalues --    0.28320   0.32219   0.35658   0.35721   0.91857
 Alpha virt. eigenvalues --    0.91998   0.97618   1.25079   1.32426   1.36872
 Alpha virt. eigenvalues --    1.37028   1.94655

 Mulliken charges:
               1
     1  H    0.206606
     2  C   -0.770741
     3  H    0.206503
     4  H    0.206377
     5  H    0.151254
 Sum of Mulliken charges =   0.00000

 Dipole moment (field-independent basis, Debye):
    X=             -0.0696    Y=             -0.0026    Z=             -0.0003  Tot=              0.0697
 Quadrupole moment (field-independent basis, Debye-Ang):
   XX=             -8.6608   YY=             -8.3763   ZZ=             -8.4012
   XY=             -0.0047   XZ=             -0.0129   YZ=             -0.0005

 Normal termination of Gaussian 16 at Fri Sep 22 17:16:55 2023.
