 Gaussian 16, Revision A.03,
 Gaussian 16:  ES64L-G16RevA.03 25-Dec-2016

 ----------
 # hf/3-21g
 ----------

 -----------------------
 tmpdir/M2_conf_38_6.gjf
 -----------------------
 Symbolic Z-matrix:
 Charge =  0 Multiplicity = 1

                         Standard orientation:
 ---------------------------------------------------------------------
 Center     Atomic      Atomic             Coordinates (Angstroms)
 Number     Number       Type             X           Y           Z
 ---------------------------------------------------------------------
      1          1           0       -1.720403   -0.001838    0.945598
      2          6           0       -1.203186    0.000012    0.005029
      3         17           0        0.688711   -0.000031    0.008864
      4          1           0       -1.384023    0.893837   -0.561528
      5          1           0       -1.384550   -0.891540   -0.564928
 ---------------------------------------------------------------------

 SCF Done:  E(RHF) =  -496.683259164     A.U. after   11 cycles

 The electronic state is 1-A.
 Alpha  occ. eigenvalues -- -104.08824 -11.24986 -10.48215  -7.94588  -7.94183
 Alpha  occ. eigenvalues --   -7.94183  -1.11426  -0.93291  -0.63359  -0.63346
 Alpha  occ. eigenvalues --   -0.51063  -0.43747  -0.43622
 Alpha virt. eigenvalues --    0.16158   0.27316   0.31365   0.31505   0.73893
 Alpha virt. eigenvalues --    0.79943   0.81401   0.85817   0.92072   0.94731
 Alpha virt. eigenvalues --    1.00758   1.30458   1.31328   1.32616   1.91198

 Mulliken charges:
               1
     1  H    0.263242
     2  C   -0.706284
     3  Cl  -0.105924
     4  H    0.274496
     5  H    0.274470
 Sum of Mulliken charges =  -0.00000

 Dipole moment (field-independent basis, Debye):
    X=             -2.8482    Y=              0.0003    Z=             -0.1119  Tot=              2.8504
 Quadrupole moment (field-independent basis, Debye-Ang):
   XX=            -18.5458   YY=            -20.1752   ZZ=            -20.2679
   XY=              0.0013   XZ=             -0.3338   YZ=             -0.0001

 Normal termination of Gaussian 16 at Fri Sep 22 17:15:04 2023.
