 Gaussian 16, Revision A.03,
 Gaussian 16:  ES64L-G16RevA.03 25-Dec-2016

 ----------
 # hf/3-21g
 ----------

 ------------------------
 tmpdir/M2_conf_299_2.gjf
 ------------------------
 Symbolic Z-matrix:
 Charge =  0 Multiplicity = 1

                         Standard orientation:
 ---------------------------------------------------------------------
 Center     Atomic      Atomic             Coordinates (Angstroms)
 Number     Number       Type             X           Y           Z
 ---------------------------------------------------------------------
      1          6           0        0.023368   -0.019659   -0.000015
      2          1           0        0.835817    0.767581   -0.004515
      3          1           0        0.032515   -0.613797    0.893918
      4          1           0        0.026159   -0.618288   -0.891226
      5          1           0       -1.034701    0.582457    0.001911
 ---------------------------------------------------------------------

 SCF Done:  E(RHF) =  -39.9653362246     A.U. after    9 cycles

 The electronic state is 1-A.
 Alpha  occ. eigenvalues --  -11.16398  -0.93192  -0.55735  -0.54425  -0.50210
 Alpha virt. eigenvalues --    0.28054   0.31721   0.34644   0.35688   0.91791
 Alpha virt. eigenvalues --    0.94211   0.98147   1.24678   1.29237   1.34756
 Alpha virt. eigenvalues --    1.36804   1.93986

 Mulliken charges:
               1
     1  C   -0.761594
     2  H    0.191086
     3  H    0.208443
     4  H    0.208393
     5  H    0.153672
 Sum of Mulliken charges =   0.00000

 Dipole moment (field-independent basis, Debye):
    X=              0.0284    Y=             -0.0594    Z=              0.0001  Tot=              0.0658
 Quadrupole moment (field-independent basis, Debye-Ang):
   XX=             -8.6266   YY=             -8.4865   ZZ=             -8.4456
   XY=              0.1357   XZ=              0.0012   YZ=             -0.0002

 Normal termination of Gaussian 16 at Fri Sep 22 17:21:47 2023.
