 Gaussian 16, Revision A.03,
 Gaussian 16:  ES64L-G16RevA.03 25-Dec-2016

 ----------
 # hf/3-21g
 ----------

 ------------------------
 tmpdir/M2_conf_272_6.gjf
 ------------------------
 Symbolic Z-matrix:
 Charge =  0 Multiplicity = 1

                         Standard orientation:
 ---------------------------------------------------------------------
 Center     Atomic      Atomic             Coordinates (Angstroms)
 Number     Number       Type             X           Y           Z
 ---------------------------------------------------------------------
      1          1           0       -1.236293   -0.003920    1.066963
      2          6           0       -1.203457    0.000038   -0.005927
      3         17           0        0.688437    0.000027   -0.010125
      4          1           0       -1.622994    0.894302   -0.426513
      5          1           0       -1.623399   -0.891067   -0.432762
 ---------------------------------------------------------------------

 SCF Done:  E(RHF) =  -496.680495321     A.U. after   11 cycles

 The electronic state is 1-A.
 Alpha  occ. eigenvalues -- -104.08866 -11.24964 -10.48261  -7.94633  -7.94229
 Alpha  occ. eigenvalues --   -7.94226  -1.11520  -0.93273  -0.63602  -0.63174
 Alpha  occ. eigenvalues --   -0.51019  -0.43948  -0.43401
 Alpha virt. eigenvalues --    0.16069   0.27395   0.31391   0.31467   0.73937
 Alpha virt. eigenvalues --    0.79898   0.81052   0.85635   0.92428   0.95384
 Alpha virt. eigenvalues --    1.00442   1.30437   1.31164   1.32376   1.90658

 Mulliken charges:
               1
     1  H    0.279171
     2  C   -0.704877
     3  Cl  -0.107554
     4  H    0.266639
     5  H    0.266622
 Sum of Mulliken charges =   0.00000

 Dipole moment (field-independent basis, Debye):
    X=             -2.8373    Y=             -0.0005    Z=              0.1469  Tot=              2.8411
 Quadrupole moment (field-independent basis, Debye-Ang):
   XX=            -18.5444   YY=            -20.1825   ZZ=            -20.2915
   XY=             -0.0009   XZ=              0.3774   YZ=             -0.0001

 Normal termination of Gaussian 16 at Fri Sep 22 17:21:02 2023.
