 Gaussian 16, Revision A.03,
 Gaussian 16:  ES64L-G16RevA.03 25-Dec-2016

 ----------
 # hf/3-21g
 ----------

 -----------------------
 tmpdir/M2_conf_10_6.gjf
 -----------------------
 Symbolic Z-matrix:
 Charge =  0 Multiplicity = 1

                         Standard orientation:
 ---------------------------------------------------------------------
 Center     Atomic      Atomic             Coordinates (Angstroms)
 Number     Number       Type             X           Y           Z
 ---------------------------------------------------------------------
      1          1           0       -1.688651   -0.002888    0.961409
      2          6           0       -1.202954    0.000009    0.004185
      3         17           0        0.688943   -0.000037    0.007586
      4          1           0       -1.402565    0.894414   -0.555106
      5          1           0       -1.403086   -0.890958   -0.560380
 ---------------------------------------------------------------------

 SCF Done:  E(RHF) =  -496.684991761     A.U. after   11 cycles

 The electronic state is 1-A.
 Alpha  occ. eigenvalues -- -104.08810 -11.24990 -10.48200  -7.94574  -7.94169
 Alpha  occ. eigenvalues --   -7.94169  -1.11386  -0.93304  -0.63336  -0.63309
 Alpha  occ. eigenvalues --   -0.51135  -0.43759  -0.43635
 Alpha virt. eigenvalues --    0.16285   0.27322   0.31361   0.31474   0.73876
 Alpha virt. eigenvalues --    0.80041   0.81290   0.85734   0.92315   0.94649
 Alpha virt. eigenvalues --    1.00410   1.30618   1.31310   1.32523   1.91409

 Mulliken charges:
               1
     1  H    0.264035
     2  C   -0.705160
     3  Cl  -0.106308
     4  H    0.273729
     5  H    0.273704
 Sum of Mulliken charges =   0.00000

 Dipole moment (field-independent basis, Debye):
    X=             -2.8532    Y=              0.0004    Z=             -0.0961  Tot=              2.8548
 Quadrupole moment (field-independent basis, Debye-Ang):
   XX=            -18.5527   YY=            -20.1758   ZZ=            -20.2446
   XY=              0.0015   XZ=             -0.2853   YZ=             -0.0001

 Normal termination of Gaussian 16 at Fri Sep 22 17:14:22 2023.
