 Gaussian 16, Revision A.03,
 Gaussian 16:  ES64L-G16RevA.03 25-Dec-2016

 ----------
 # hf/3-21g
 ----------

 ------------------------
 tmpdir/M2_conf_154_6.gjf
 ------------------------
 Symbolic Z-matrix:
 Charge =  0 Multiplicity = 1

                         Standard orientation:
 ---------------------------------------------------------------------
 Center     Atomic      Atomic             Coordinates (Angstroms)
 Number     Number       Type             X           Y           Z
 ---------------------------------------------------------------------
      1          1           0       -1.129445   -0.002245    1.061787
      2          6           0       -1.204500    0.000033   -0.008983
      3         17           0        0.687398    0.000020   -0.013592
      4          1           0       -1.664479    0.893545   -0.386699
      5          1           0       -1.664846   -0.891832   -0.390121
 ---------------------------------------------------------------------

 SCF Done:  E(RHF) =  -496.671392278     A.U. after   11 cycles

 The electronic state is 1-A.
 Alpha  occ. eigenvalues -- -104.08970 -11.24911 -10.48376  -7.94747  -7.94340
 Alpha  occ. eigenvalues --   -7.94335  -1.11784  -0.93209  -0.63885  -0.63148
 Alpha  occ. eigenvalues --   -0.50790  -0.44096  -0.43136
 Alpha virt. eigenvalues --    0.15592   0.27500   0.31428   0.31524   0.74025
 Alpha virt. eigenvalues --    0.79587   0.80963   0.85465   0.92641   0.95996
 Alpha virt. eigenvalues --    1.01041   1.29867   1.31168   1.32271   1.89384

 Mulliken charges:
               1
     1  H    0.282620
     2  C   -0.706211
     3  Cl  -0.108696
     4  H    0.266151
     5  H    0.266136
 Sum of Mulliken charges =  -0.00000

 Dipole moment (field-independent basis, Debye):
    X=             -2.8053    Y=             -0.0004    Z=              0.2085  Tot=              2.8130
 Quadrupole moment (field-independent basis, Debye-Ang):
   XX=            -18.5271   YY=            -20.1808   ZZ=            -20.3988
   XY=             -0.0007   XZ=              0.5056   YZ=             -0.0001

 Normal termination of Gaussian 16 at Fri Sep 22 17:17:58 2023.
