 Gaussian 16, Revision A.03,
 Gaussian 16:  ES64L-G16RevA.03 25-Dec-2016

 ----------
 # hf/3-21g
 ----------

 ------------------------
 tmpdir/M2_conf_214_1.gjf
 ------------------------
 Symbolic Z-matrix:
 Charge =  0 Multiplicity = 1

                         Standard orientation:
 ---------------------------------------------------------------------
 Center     Atomic      Atomic             Coordinates (Angstroms)
 Number     Number       Type             X           Y           Z
 ---------------------------------------------------------------------
      1          6           0       -0.032206   -0.000060    0.009442
      2          1           0       -0.187744   -0.002651    1.017106
      3          1           0       -0.395900   -0.891782   -0.464624
      4          1           0       -0.398018    0.893155   -0.460615
      5          1           0        1.174898    0.001639   -0.148521
 ---------------------------------------------------------------------

 SCF Done:  E(RHF) =  -39.9641603636     A.U. after    9 cycles

 The electronic state is 1-A.
 Alpha  occ. eigenvalues --  -11.15095  -0.94443  -0.56822  -0.55558  -0.50287
 Alpha virt. eigenvalues --    0.28470   0.32500   0.35684   0.36877   0.89468
 Alpha virt. eigenvalues --    0.92040   0.97549   1.25286   1.33760   1.37052
 Alpha virt. eigenvalues --    1.41619   1.95403

 Mulliken charges:
               1
     1  C   -0.777255
     2  H    0.219523
     3  H    0.204388
     4  H    0.204334
     5  H    0.149010
 Sum of Mulliken charges =   0.00000

 Dipole moment (field-independent basis, Debye):
    X=             -0.0803    Y=             -0.0003    Z=              0.0400  Tot=              0.0898
 Quadrupole moment (field-independent basis, Debye-Ang):
   XX=             -8.5997   YY=             -8.3369   ZZ=             -8.3819
   XY=             -0.0005   XZ=              0.0379   YZ=             -0.0001

 Normal termination of Gaussian 16 at Fri Sep 22 17:19:34 2023.
