 Gaussian 16, Revision A.03,
 Gaussian 16:  ES64L-G16RevA.03 25-Dec-2016

 ----------
 # hf/3-21g
 ----------

 ------------------------
 tmpdir/M2_conf_237_8.gjf
 ------------------------
 Symbolic Z-matrix:
 Charge =  0 Multiplicity = 1

                         Standard orientation:
 ---------------------------------------------------------------------
 Center     Atomic      Atomic             Coordinates (Angstroms)
 Number     Number       Type             X           Y           Z
 ---------------------------------------------------------------------
      1          1           0        0.574123    0.000075    0.819329
      2          6           0        1.216063    0.000017   -0.041212
      3         17           0       -0.675726   -0.000011   -0.020479
      4          1           0        1.808243    0.892480   -0.111994
      5          1           0        1.808588   -0.892470   -0.111927
 ---------------------------------------------------------------------

 SCF Done:  E(RHF) =  -496.536588143     A.U. after   12 cycles

 The electronic state is 1-A.
 Alpha  occ. eigenvalues -- -104.11207 -11.22764 -10.51074  -7.97430  -7.96954
 Alpha  occ. eigenvalues --   -7.96893  -1.17551  -0.91990  -0.66848  -0.62300
 Alpha  occ. eigenvalues --   -0.51534  -0.46611  -0.37963
 Alpha virt. eigenvalues --    0.11524   0.30466   0.32497   0.32825   0.73735
 Alpha virt. eigenvalues --    0.77258   0.79762   0.84335   0.92319   0.98458
 Alpha virt. eigenvalues --    1.03793   1.21233   1.31372   1.32246   1.81111

 Mulliken charges:
               1
     1  H    0.294048
     2  C   -0.740861
     3  Cl  -0.093430
     4  H    0.270141
     5  H    0.270102
 Sum of Mulliken charges =  -0.00000

 Dipole moment (field-independent basis, Debye):
    X=              1.9933    Y=              0.0001    Z=              0.6328  Tot=              2.0914
 Quadrupole moment (field-independent basis, Debye-Ang):
   XX=            -18.8016   YY=            -20.0390   ZZ=            -21.4831
   XY=             -0.0003   XZ=             -0.5442   YZ=             -0.0000

 Normal termination of Gaussian 16 at Fri Sep 22 17:20:08 2023.
