 Gaussian 16, Revision A.03,
 Gaussian 16:  ES64L-G16RevA.03 25-Dec-2016

 ----------
 # hf/3-21g
 ----------

 ------------------------
 tmpdir/M2_conf_300_3.gjf
 ------------------------
 Symbolic Z-matrix:
 Charge =  0 Multiplicity = 1

                         Standard orientation:
 ---------------------------------------------------------------------
 Center     Atomic      Atomic             Coordinates (Angstroms)
 Number     Number       Type             X           Y           Z
 ---------------------------------------------------------------------
      1          6           0       -2.579422    0.000006    0.000008
      2         17           0        1.418578   -0.000007   -0.000001
      3          1           0       -2.879791   -0.278198    0.992265
      4          1           0       -2.879479    0.998714   -0.255263
      5          1           0       -2.880026   -0.720440   -0.737023
 ---------------------------------------------------------------------

 SCF Done:  E(RHF) =  -496.487860643     A.U. after   10 cycles

 The electronic state is 1-A.
 Alpha  occ. eigenvalues -- -103.97989 -11.39243 -10.36784  -7.83103  -7.82928
 Alpha  occ. eigenvalues --   -7.82928  -1.07426  -0.92075  -0.72673  -0.72668
 Alpha  occ. eigenvalues --   -0.34038  -0.34038  -0.30129
 Alpha virt. eigenvalues --   -0.12335   0.19247   0.23821   0.23825   0.75556
 Alpha virt. eigenvalues --    0.78090   0.78104   0.83633   0.90543   0.90543
 Alpha virt. eigenvalues --    0.94218   1.08555   1.20610   1.20620   1.60987

 Mulliken charges:
               1
     1  C   -0.335550
     2  Cl  -0.614526
     3  H    0.316694
     4  H    0.316704
     5  H    0.316678
 Sum of Mulliken charges =  -0.00000

 Dipole moment (field-independent basis, Debye):
    X=            -12.2027    Y=              0.0001    Z=              0.0000  Tot=             12.2027
 Quadrupole moment (field-independent basis, Debye-Ang):
   XX=             -3.1946   YY=            -20.3753   ZZ=            -20.3769
   XY=              0.0002   XZ=              0.0000   YZ=             -0.0001

 Normal termination of Gaussian 16 at Fri Sep 22 17:21:49 2023.
