 Gaussian 16, Revision A.03,
 Gaussian 16:  ES64L-G16RevA.03 25-Dec-2016

 ----------
 # hf/3-21g
 ----------

 ------------------------
 tmpdir/M2_conf_208_9.gjf
 ------------------------
 Symbolic Z-matrix:
 Charge =  0 Multiplicity = 1

                         Standard orientation:
 ---------------------------------------------------------------------
 Center     Atomic      Atomic             Coordinates (Angstroms)
 Number     Number       Type             X           Y           Z
 ---------------------------------------------------------------------
      1          1           0        1.035870   -0.002380    1.047856
      2          6           0        1.205690    0.000026   -0.012225
      3         17           0       -0.686205    0.000035   -0.016223
      4          1           0        1.697775   -0.891727   -0.351083
      5          1           0        1.697701    0.893350   -0.347640
 ---------------------------------------------------------------------

 SCF Done:  E(RHF) =  -496.660299759     A.U. after   11 cycles

 The electronic state is 1-A.
 Alpha  occ. eigenvalues -- -104.09108 -11.24827 -10.48532  -7.94899  -7.94491
 Alpha  occ. eigenvalues --   -7.94481  -1.12128  -0.93129  -0.64196  -0.63118
 Alpha  occ. eigenvalues --   -0.50594  -0.44272  -0.42797
 Alpha virt. eigenvalues --    0.15073   0.27658   0.31477   0.31589   0.74103
 Alpha virt. eigenvalues --    0.79302   0.80823   0.85182   0.93113   0.96487
 Alpha virt. eigenvalues --    1.01570   1.29259   1.31199   1.32073   1.87989

 Mulliken charges:
               1
     1  H    0.285454
     2  C   -0.707456
     3  Cl  -0.110232
     4  H    0.266132
     5  H    0.266102
 Sum of Mulliken charges =   0.00000

 Dipole moment (field-independent basis, Debye):
    X=              2.7627    Y=             -0.0007    Z=              0.2639  Tot=              2.7753
 Quadrupole moment (field-independent basis, Debye-Ang):
   XX=            -18.5155   YY=            -20.1775   ZZ=            -20.5207
   XY=              0.0011   XZ=             -0.6012   YZ=             -0.0001

 Normal termination of Gaussian 16 at Fri Sep 22 17:19:25 2023.
