 Gaussian 16, Revision A.03,
 Gaussian 16:  ES64L-G16RevA.03 25-Dec-2016

 ----------
 # hf/3-21g
 ----------

 ------------------------
 tmpdir/M2_conf_279_8.gjf
 ------------------------
 Symbolic Z-matrix:
 Charge =  0 Multiplicity = 1

                         Standard orientation:
 ---------------------------------------------------------------------
 Center     Atomic      Atomic             Coordinates (Angstroms)
 Number     Number       Type             X           Y           Z
 ---------------------------------------------------------------------
      1          1           0        0.589365    0.000084    0.832298
      2          6           0        1.215574    0.000016   -0.039757
      3         17           0       -0.676229   -0.000011   -0.020662
      4          1           0        1.806372    0.892478   -0.121289
      5          1           0        1.806716   -0.892472   -0.121212
 ---------------------------------------------------------------------

 SCF Done:  E(RHF) =  -496.543482773     A.U. after   12 cycles

 The electronic state is 1-A.
 Alpha  occ. eigenvalues -- -104.11058 -11.22925 -10.50895  -7.97250  -7.96781
 Alpha  occ. eigenvalues --   -7.96722  -1.17168  -0.92067  -0.66716  -0.62367
 Alpha  occ. eigenvalues --   -0.51408  -0.46464  -0.38248
 Alpha virt. eigenvalues --    0.11650   0.30292   0.32430   0.32684   0.73797
 Alpha virt. eigenvalues --    0.77363   0.79849   0.84423   0.92606   0.98400
 Alpha virt. eigenvalues --    1.03701   1.21617   1.31291   1.32156   1.81197

 Mulliken charges:
               1
     1  H    0.294557
     2  C   -0.737596
     3  Cl  -0.096841
     4  H    0.269960
     5  H    0.269921
 Sum of Mulliken charges =  -0.00000

 Dipole moment (field-independent basis, Debye):
    X=              2.0519    Y=              0.0001    Z=              0.6136  Tot=              2.1417
 Quadrupole moment (field-independent basis, Debye-Ang):
   XX=            -18.7738   YY=            -20.0515   ZZ=            -21.4423
   XY=             -0.0003   XZ=             -0.5750   YZ=             -0.0000

 Normal termination of Gaussian 16 at Fri Sep 22 17:21:12 2023.
