 Gaussian 16, Revision A.03,
 Gaussian 16:  ES64L-G16RevA.03 25-Dec-2016

 ----------
 # hf/3-21g
 ----------

 -----------------------
 tmpdir/M2_conf_78_0.gjf
 -----------------------
 Symbolic Z-matrix:
 Charge =  0 Multiplicity = 1

                         Standard orientation:
 ---------------------------------------------------------------------
 Center     Atomic      Atomic             Coordinates (Angstroms)
 Number     Number       Type             X           Y           Z
 ---------------------------------------------------------------------
      1          6           0        0.006567   -0.029756    0.000057
      2          1           0        1.140948    0.317011    0.001107
      3          1           0       -0.261240   -0.561797    0.893273
      4          1           0       -0.258227   -0.565047   -0.892105
      5          1           0       -0.660881    0.988369   -0.002615
 ---------------------------------------------------------------------

 SCF Done:  E(RHF) =  -39.9606432846     A.U. after    9 cycles

 The electronic state is 1-A.
 Alpha  occ. eigenvalues --  -11.17027  -0.92742  -0.55838  -0.53388  -0.50059
 Alpha virt. eigenvalues --    0.27619   0.31007   0.33999   0.35683   0.91692
 Alpha virt. eigenvalues --    0.95434   0.99568   1.23609   1.26391   1.33984
 Alpha virt. eigenvalues --    1.36646   1.93371

 Mulliken charges:
               1
     1  C   -0.751085
     2  H    0.175422
     3  H    0.209994
     4  H    0.209993
     5  H    0.155676
 Sum of Mulliken charges =  -0.00000

 Dipole moment (field-independent basis, Debye):
    X=             -0.0456    Y=             -0.0737    Z=              0.0001  Tot=              0.0867
 Quadrupole moment (field-independent basis, Debye-Ang):
   XX=             -8.5036   YY=             -8.6688   ZZ=             -8.4953
   XY=              0.1485   XZ=             -0.0009   YZ=              0.0009

 Normal termination of Gaussian 16 at Fri Sep 22 17:16:04 2023.
