 Gaussian 16, Revision A.03,
 Gaussian 16:  ES64L-G16RevA.03 25-Dec-2016

 ----------
 # hf/3-21g
 ----------

 ------------------------
 tmpdir/M2_conf_100_5.gjf
 ------------------------
 Symbolic Z-matrix:
 Charge =  0 Multiplicity = 1

                         Standard orientation:
 ---------------------------------------------------------------------
 Center     Atomic      Atomic             Coordinates (Angstroms)
 Number     Number       Type             X           Y           Z
 ---------------------------------------------------------------------
      1          1           0       -0.530468   -0.095215    0.906282
      2          6           0       -0.002536    0.027176   -0.020268
      3          1           0       -0.824135   -0.211739   -0.668733
      4          1           0        0.505207    0.971086   -0.082248
      5          1           0        0.864610   -0.827189   -0.033691
 ---------------------------------------------------------------------

 SCF Done:  E(RHF) =  -39.9593462005     A.U. after    9 cycles

 The electronic state is 1-A.
 Alpha  occ. eigenvalues --  -11.15731  -0.93987  -0.58094  -0.52259  -0.50788
 Alpha virt. eigenvalues --    0.28090   0.32291   0.34430   0.36468   0.90033
 Alpha virt. eigenvalues --    0.94204   0.99084   1.24617   1.32234   1.34538
 Alpha virt. eigenvalues --    1.40106   1.93500

 Mulliken charges:
               1
     1  H    0.203183
     2  C   -0.778502
     3  H    0.208328
     4  H    0.210433
     5  H    0.156558
 Sum of Mulliken charges =  -0.00000

 Dipole moment (field-independent basis, Debye):
    X=             -0.1397    Y=              0.0309    Z=              0.1041  Tot=              0.1770
 Quadrupole moment (field-independent basis, Debye-Ang):
   XX=             -8.0492   YY=             -8.4462   ZZ=             -8.9522
   XY=              0.2381   XZ=              0.0237   YZ=             -0.0146

 Normal termination of Gaussian 16 at Fri Sep 22 17:16:37 2023.
