 Gaussian 16, Revision A.03,
 Gaussian 16:  ES64L-G16RevA.03 25-Dec-2016

 ----------
 # hf/3-21g
 ----------

 -----------------------
 tmpdir/M2_conf_83_2.gjf
 -----------------------
 Symbolic Z-matrix:
 Charge =  0 Multiplicity = 1

                         Standard orientation:
 ---------------------------------------------------------------------
 Center     Atomic      Atomic             Coordinates (Angstroms)
 Number     Number       Type             X           Y           Z
 ---------------------------------------------------------------------
      1          6           0        0.025924   -0.016319   -0.000015
      2          1           0        0.741216    0.849394   -0.005252
      3          1           0        0.100854   -0.605228    0.894285
      4          1           0        0.094530   -0.611568   -0.890854
      5          1           0       -1.092145    0.465318    0.001908
 ---------------------------------------------------------------------

 SCF Done:  E(RHF) =  -39.9658050287     A.U. after    9 cycles

 The electronic state is 1-A.
 Alpha  occ. eigenvalues --  -11.16302  -0.93269  -0.55721  -0.54593  -0.50223
 Alpha virt. eigenvalues --    0.28101   0.31812   0.34772   0.35688   0.91809
 Alpha virt. eigenvalues --    0.93930   0.98024   1.24755   1.29762   1.34932
 Alpha virt. eigenvalues --    1.36825   1.94078

 Mulliken charges:
               1
     1  C   -0.763028
     2  H    0.193369
     3  H    0.208178
     4  H    0.208128
     5  H    0.153353
 Sum of Mulliken charges =   0.00000

 Dipole moment (field-independent basis, Debye):
    X=              0.0394    Y=             -0.0516    Z=              0.0001  Tot=              0.0649
 Quadrupole moment (field-independent basis, Debye-Ang):
   XX=             -8.6491   YY=             -8.4548   ZZ=             -8.4378
   XY=              0.1142   XZ=              0.0012   YZ=             -0.0001

 Normal termination of Gaussian 16 at Fri Sep 22 17:16:11 2023.
