 Gaussian 16, Revision A.03,
 Gaussian 16:  ES64L-G16RevA.03 25-Dec-2016

 ----------
 # hf/3-21g
 ----------

 ------------------------
 tmpdir/M2_conf_107_3.gjf
 ------------------------
 Symbolic Z-matrix:
 Charge =  0 Multiplicity = 1

                         Standard orientation:
 ---------------------------------------------------------------------
 Center     Atomic      Atomic             Coordinates (Angstroms)
 Number     Number       Type             X           Y           Z
 ---------------------------------------------------------------------
      1          6           0       -1.188299    0.000020    0.000011
      2         17           0        0.682101   -0.000015   -0.000003
      3          1           0       -1.488667   -0.278182    0.992269
      4          1           0       -1.488342    0.998732   -0.255257
      5          1           0       -1.488918   -0.720420   -0.737021
 ---------------------------------------------------------------------

 SCF Done:  E(RHF) =  -496.689325762     A.U. after   10 cycles

 The electronic state is 1-A.
 Alpha  occ. eigenvalues -- -104.08761 -11.24767 -10.48211  -7.94589  -7.94175
 Alpha  occ. eigenvalues --   -7.94175  -1.11826  -0.93113  -0.63298  -0.63293
 Alpha  occ. eigenvalues --   -0.51700  -0.43732  -0.43732
 Alpha virt. eigenvalues --    0.17359   0.27423   0.31391   0.31394   0.73876
 Alpha virt. eigenvalues --    0.80775   0.80779   0.85499   0.93671   0.93683
 Alpha virt. eigenvalues --    0.98922   1.31309   1.31319   1.32456   1.92720

 Mulliken charges:
               1
     1  C   -0.716380
     2  Cl  -0.093102
     3  H    0.269854
     4  H    0.269827
     5  H    0.269801
 Sum of Mulliken charges =  -0.00000

 Dipole moment (field-independent basis, Debye):
    X=             -2.7937    Y=              0.0001    Z=              0.0001  Tot=              2.7937
 Quadrupole moment (field-independent basis, Debye-Ang):
   XX=            -18.7029   YY=            -20.1601   ZZ=            -20.1614
   XY=              0.0007   XZ=             -0.0001   YZ=             -0.0001

 Normal termination of Gaussian 16 at Fri Sep 22 17:16:47 2023.
