 Gaussian 16, Revision A.03,
 Gaussian 16:  ES64L-G16RevA.03 25-Dec-2016

 ----------
 # hf/3-21g
 ----------

 ------------------------
 tmpdir/M2_conf_177_4.gjf
 ------------------------
 Symbolic Z-matrix:
 Charge =  0 Multiplicity = 1

                         Standard orientation:
 ---------------------------------------------------------------------
 Center     Atomic      Atomic             Coordinates (Angstroms)
 Number     Number       Type             X           Y           Z
 ---------------------------------------------------------------------
      1          1           0        0.342996   -0.310057    0.977026
      2          6           0        0.030724    0.003084   -0.001042
      3          1           0        0.388545   -0.665695   -0.760852
      4          1           0        0.268303    1.031329   -0.198201
      5          1           0       -1.184186   -0.074079   -0.011721
 ---------------------------------------------------------------------

 SCF Done:  E(RHF) =  -39.9669901156     A.U. after    9 cycles

 The electronic state is 1-A.
 Alpha  occ. eigenvalues --  -11.15724  -0.93777  -0.55790  -0.55431  -0.50319
 Alpha virt. eigenvalues --    0.28312   0.32256   0.35609   0.35751   0.91718
 Alpha virt. eigenvalues --    0.92079   0.97687   1.25039   1.32515   1.36747
 Alpha virt. eigenvalues --    1.37097   1.94633

 Mulliken charges:
               1
     1  H    0.206182
     2  C   -0.770614
     3  H    0.206278
     4  H    0.206542
     5  H    0.151612
 Sum of Mulliken charges =  -0.00000

 Dipole moment (field-independent basis, Debye):
    X=              0.0738    Y=              0.0007    Z=              0.0064  Tot=              0.0741
 Quadrupole moment (field-independent basis, Debye-Ang):
   XX=             -8.6434   YY=             -8.3679   ZZ=             -8.4253
   XY=             -0.0303   XZ=             -0.0061   YZ=             -0.0001

 Normal termination of Gaussian 16 at Fri Sep 22 17:18:33 2023.
