 Gaussian 16, Revision A.03,
 Gaussian 16:  ES64L-G16RevA.03 25-Dec-2016

 ----------
 # hf/3-21g
 ----------

 ------------------------
 tmpdir/M2_conf_239_8.gjf
 ------------------------
 Symbolic Z-matrix:
 Charge =  0 Multiplicity = 1

                         Standard orientation:
 ---------------------------------------------------------------------
 Center     Atomic      Atomic             Coordinates (Angstroms)
 Number     Number       Type             X           Y           Z
 ---------------------------------------------------------------------
      1          1           0        0.558571    0.000067    0.805577
      2          6           0        1.216574    0.000017   -0.042744
      3         17           0       -0.675195   -0.000011   -0.020260
      4          1           0        1.809978    0.892482   -0.102374
      5          1           0        1.810325   -0.892468   -0.102316
 ---------------------------------------------------------------------

 SCF Done:  E(RHF) =  -496.529252800     A.U. after   12 cycles

 The electronic state is 1-A.
 Alpha  occ. eigenvalues -- -104.11370 -11.22588 -10.51269  -7.97627  -7.97143
 Alpha  occ. eigenvalues --   -7.97080  -1.17969  -0.91908  -0.66989  -0.62227
 Alpha  occ. eigenvalues --   -0.51673  -0.46768  -0.37662
 Alpha virt. eigenvalues --    0.11397   0.30647   0.32571   0.32989   0.73665
 Alpha virt. eigenvalues --    0.77146   0.79655   0.84194   0.92022   0.98518
 Alpha virt. eigenvalues --    1.03891   1.20872   1.31475   1.32344   1.81045

 Mulliken charges:
               1
     1  H    0.293328
     2  C   -0.744508
     3  Cl  -0.089421
     4  H    0.270319
     5  H    0.270281
 Sum of Mulliken charges =  -0.00000

 Dipole moment (field-independent basis, Debye):
    X=              1.9290    Y=              0.0001    Z=              0.6535  Tot=              2.0367
 Quadrupole moment (field-independent basis, Debye-Ang):
   XX=            -18.8318   YY=            -20.0251   ZZ=            -21.5256
   XY=             -0.0003   XZ=             -0.5087   YZ=             -0.0000

 Normal termination of Gaussian 16 at Fri Sep 22 17:20:11 2023.
