 Gaussian 16, Revision A.03,
 Gaussian 16:  ES64L-G16RevA.03 25-Dec-2016

 ----------
 # hf/3-21g
 ----------

 ------------------------
 tmpdir/M2_conf_228_9.gjf
 ------------------------
 Symbolic Z-matrix:
 Charge =  0 Multiplicity = 1

                         Standard orientation:
 ---------------------------------------------------------------------
 Center     Atomic      Atomic             Coordinates (Angstroms)
 Number     Number       Type             X           Y           Z
 ---------------------------------------------------------------------
      1          1           0        1.347968   -0.019285    1.060289
      2          6           0        1.202735    0.000067   -0.003266
      3         17           0       -0.689166    0.000104   -0.006082
      4          1           0        1.575854   -0.883840   -0.484606
      5          1           0        1.575593    0.900955   -0.452691
 ---------------------------------------------------------------------

 SCF Done:  E(RHF) =  -496.686493227     A.U. after   11 cycles

 The electronic state is 1-A.
 Alpha  occ. eigenvalues -- -104.08802 -11.24991 -10.48193  -7.94567  -7.94162
 Alpha  occ. eigenvalues --   -7.94162  -1.11357  -0.93316  -0.63389  -0.63200
 Alpha  occ. eigenvalues --   -0.51212  -0.43836  -0.43584
 Alpha virt. eigenvalues --    0.16416   0.27345   0.31371   0.31424   0.73865
 Alpha virt. eigenvalues --    0.80219   0.81014   0.85603   0.92706   0.94689
 Alpha virt. eigenvalues --    0.99898   1.30916   1.31186   1.32330   1.91554

 Mulliken charges:
               1
     1  H    0.275317
     2  C   -0.703565
     3  Cl  -0.107074
     4  H    0.267673
     5  H    0.267648
 Sum of Mulliken charges =  -0.00000

 Dipole moment (field-independent basis, Debye):
    X=              2.8569    Y=             -0.0016    Z=              0.0841  Tot=              2.8582
 Quadrupole moment (field-independent basis, Debye-Ang):
   XX=            -18.5602   YY=            -20.1830   ZZ=            -20.2168
   XY=              0.0036   XZ=             -0.2272   YZ=             -0.0002

 Normal termination of Gaussian 16 at Fri Sep 22 17:19:55 2023.
