 Gaussian 16, Revision A.03,
 Gaussian 16:  ES64L-G16RevA.03 25-Dec-2016

 ----------
 # hf/3-21g
 ----------

 ------------------------
 tmpdir/M2_conf_145_9.gjf
 ------------------------
 Symbolic Z-matrix:
 Charge =  0 Multiplicity = 1

                         Standard orientation:
 ---------------------------------------------------------------------
 Center     Atomic      Atomic             Coordinates (Angstroms)
 Number     Number       Type             X           Y           Z
 ---------------------------------------------------------------------
      1          1           0        0.901488   -0.001429    1.010861
      2          6           0        1.207891    0.000020   -0.018086
      3         17           0       -0.684007    0.000028   -0.019163
      4          1           0        1.739641   -0.892121   -0.289238
      5          1           0        1.739652    0.892958   -0.287336
 ---------------------------------------------------------------------

 SCF Done:  E(RHF) =  -496.638134499     A.U. after   11 cycles

 The electronic state is 1-A.
 Alpha  occ. eigenvalues -- -104.09408 -11.24604 -10.48882  -7.95244  -7.94830
 Alpha  occ. eigenvalues --   -7.94811  -1.12885  -0.92962  -0.64753  -0.63038
 Alpha  occ. eigenvalues --   -0.50419  -0.44637  -0.42048
 Alpha virt. eigenvalues --    0.14179   0.28049   0.31597   0.31714   0.74182
 Alpha virt. eigenvalues --    0.78856   0.80577   0.84744   0.93882   0.97141
 Alpha virt. eigenvalues --    1.02261   1.28045   1.31291   1.31702   1.85694

 Mulliken charges:
               1
     1  H    0.289467
     2  C   -0.710035
     3  Cl  -0.112761
     4  H    0.266681
     5  H    0.266648
 Sum of Mulliken charges =  -0.00000

 Dipole moment (field-independent basis, Debye):
    X=              2.6662    Y=             -0.0006    Z=              0.3484  Tot=              2.6889
 Quadrupole moment (field-independent basis, Debye-Ang):
   XX=            -18.5182   YY=            -20.1654   ZZ=            -20.7414
   XY=              0.0009   XZ=             -0.6992   YZ=             -0.0000

 Normal termination of Gaussian 16 at Fri Sep 22 17:17:44 2023.
