 Gaussian 16, Revision A.03,
 Gaussian 16:  ES64L-G16RevA.03 25-Dec-2016

 ----------
 # hf/3-21g
 ----------

 ------------------------
 tmpdir/M2_conf_270_2.gjf
 ------------------------
 Symbolic Z-matrix:
 Charge =  0 Multiplicity = 1

                         Standard orientation:
 ---------------------------------------------------------------------
 Center     Atomic      Atomic             Coordinates (Angstroms)
 Number     Number       Type             X           Y           Z
 ---------------------------------------------------------------------
      1          6           0        0.026839   -0.014864   -0.000015
      2          1           0        0.700600    0.879168   -0.005643
      3          1           0        0.128144   -0.599516    0.894479
      4          1           0        0.121873   -0.606767   -0.890656
      5          1           0       -1.111648    0.416300    0.001907
 ---------------------------------------------------------------------

 SCF Done:  E(RHF) =  -39.9659810262     A.U. after    9 cycles

 The electronic state is 1-A.
 Alpha  occ. eigenvalues --  -11.16261  -0.93302  -0.55715  -0.54665  -0.50228
 Alpha virt. eigenvalues --    0.28120   0.31848   0.34828   0.35689   0.91816
 Alpha virt. eigenvalues --    0.93804   0.97978   1.24785   1.29983   1.35015
 Alpha virt. eigenvalues --    1.36834   1.94117

 Mulliken charges:
               1
     1  C   -0.763620
     2  H    0.194324
     3  H    0.208064
     4  H    0.208015
     5  H    0.153216
 Sum of Mulliken charges =  -0.00000

 Dipole moment (field-independent basis, Debye):
    X=              0.0435    Y=             -0.0479    Z=              0.0001  Tot=              0.0647
 Quadrupole moment (field-independent basis, Debye-Ang):
   XX=             -8.6564   YY=             -8.4436   ZZ=             -8.4345
   XY=              0.1040   XZ=              0.0012   YZ=             -0.0000

 Normal termination of Gaussian 16 at Fri Sep 22 17:20:59 2023.
