 Gaussian 16, Revision A.03,
 Gaussian 16:  ES64L-G16RevA.03 25-Dec-2016

 ----------
 # hf/3-21g
 ----------

 ------------------------
 tmpdir/M2_conf_161_1.gjf
 ------------------------
 Symbolic Z-matrix:
 Charge =  0 Multiplicity = 1

                         Standard orientation:
 ---------------------------------------------------------------------
 Center     Atomic      Atomic             Coordinates (Angstroms)
 Number     Number       Type             X           Y           Z
 ---------------------------------------------------------------------
      1          6           0       -0.031129   -0.003264    0.000058
      2          1           0       -0.400105    1.019250   -0.010383
      3          1           0       -0.297820   -0.527045    0.898228
      4          1           0       -0.299154   -0.546017   -0.886614
      5          1           0        1.183851    0.073396   -0.001578
 ---------------------------------------------------------------------

 SCF Done:  E(RHF) =  -39.9669417208     A.U. after    9 cycles

 The electronic state is 1-A.
 Alpha  occ. eigenvalues --  -11.15883  -0.93628  -0.55657  -0.55349  -0.50261
 Alpha virt. eigenvalues --    0.28268   0.32135   0.35415   0.35687   0.91882
 Alpha virt. eigenvalues --    0.92513   0.97698   1.24999   1.31856   1.36175
 Alpha virt. eigenvalues --    1.36910   1.94487

 Mulliken charges:
               1
     1  C   -0.768745
     2  H    0.202956
     3  H    0.206964
     4  H    0.206908
     5  H    0.151917
 Sum of Mulliken charges =   0.00000

 Dipole moment (field-independent basis, Debye):
    X=             -0.0664    Y=             -0.0124    Z=              0.0003  Tot=              0.0675
 Quadrupole moment (field-independent basis, Debye-Ang):
   XX=             -8.6682   YY=             -8.3944   ZZ=             -8.4041
   XY=             -0.0187   XZ=              0.0004   YZ=              0.0002

 Normal termination of Gaussian 16 at Fri Sep 22 17:18:08 2023.
