 Gaussian 16, Revision A.03,
 Gaussian 16:  ES64L-G16RevA.03 25-Dec-2016

 ----------
 # hf/3-21g
 ----------

 ------------------------
 tmpdir/M2_conf_253_6.gjf
 ------------------------
 Symbolic Z-matrix:
 Charge =  0 Multiplicity = 1

                         Standard orientation:
 ---------------------------------------------------------------------
 Center     Atomic      Atomic             Coordinates (Angstroms)
 Number     Number       Type             X           Y           Z
 ---------------------------------------------------------------------
      1          1           0       -1.123904   -0.002191    1.061205
      2          6           0       -1.204560    0.000033   -0.009159
      3         17           0        0.687333    0.000019   -0.013759
      4          1           0       -1.666518    0.893521   -0.384507
      5          1           0       -1.666883   -0.891856   -0.387839
 ---------------------------------------------------------------------

 SCF Done:  E(RHF) =  -496.670821714     A.U. after   11 cycles

 The electronic state is 1-A.
 Alpha  occ. eigenvalues -- -104.08977 -11.24907 -10.48384  -7.94754  -7.94348
 Alpha  occ. eigenvalues --   -7.94342  -1.11802  -0.93205  -0.63902  -0.63147
 Alpha  occ. eigenvalues --   -0.50778  -0.44105  -0.43119
 Alpha virt. eigenvalues --    0.15564   0.27508   0.31430   0.31527   0.74030
 Alpha virt. eigenvalues --    0.79571   0.80956   0.85451   0.92663   0.96027
 Alpha virt. eigenvalues --    1.01073   1.29834   1.31169   1.32262   1.89308

 Mulliken charges:
               1
     1  H    0.282794
     2  C   -0.706285
     3  Cl  -0.108771
     4  H    0.266138
     5  H    0.266124
 Sum of Mulliken charges =  -0.00000

 Dipole moment (field-independent basis, Debye):
    X=             -2.8031    Y=             -0.0004    Z=              0.2117  Tot=              2.8111
 Quadrupole moment (field-independent basis, Debye-Ang):
   XX=            -18.5263   YY=            -20.1806   ZZ=            -20.4053
   XY=             -0.0007   XZ=              0.5117   YZ=             -0.0001

 Normal termination of Gaussian 16 at Fri Sep 22 17:20:33 2023.
