 Gaussian 16, Revision A.03,
 Gaussian 16:  ES64L-G16RevA.03 25-Dec-2016

 ----------
 # hf/3-21g
 ----------

 ------------------------
 tmpdir/M2_conf_153_5.gjf
 ------------------------
 Symbolic Z-matrix:
 Charge =  0 Multiplicity = 1

                         Standard orientation:
 ---------------------------------------------------------------------
 Center     Atomic      Atomic             Coordinates (Angstroms)
 Number     Number       Type             X           Y           Z
 ---------------------------------------------------------------------
      1          1           0        1.084695    0.006091   -0.263223
      2          6           0        0.035418   -0.029614   -0.039769
      3          1           0       -0.846973   -0.140483   -0.641182
      4          1           0       -0.197995   -0.748207    0.722958
      5          1           0       -0.252235    1.060282    0.420061
 ---------------------------------------------------------------------

 SCF Done:  E(RHF) =  -39.9497111004     A.U. after    9 cycles

 The electronic state is 1-A.
 Alpha  occ. eigenvalues --  -11.15805  -0.94082  -0.59493  -0.53119  -0.48230
 Alpha virt. eigenvalues --    0.28199   0.30428   0.34581   0.37115   0.89876
 Alpha virt. eigenvalues --    0.97195   0.98580   1.25232   1.30660   1.35042
 Alpha virt. eigenvalues --    1.41535   1.94300

 Mulliken charges:
               1
     1  H    0.221546
     2  C   -0.800505
     3  H    0.224337
     4  H    0.206661
     5  H    0.147960
 Sum of Mulliken charges =  -0.00000

 Dipole moment (field-independent basis, Debye):
    X=             -0.0992    Y=             -0.0648    Z=              0.0577  Tot=              0.1318
 Quadrupole moment (field-independent basis, Debye-Ang):
   XX=             -7.6964   YY=             -8.6881   ZZ=             -9.1224
   XY=              0.0992   XZ=              0.0240   YZ=             -0.1650

 Normal termination of Gaussian 16 at Fri Sep 22 17:17:56 2023.
