 Gaussian 16, Revision A.03,
 Gaussian 16:  ES64L-G16RevA.03 25-Dec-2016

 ----------
 # hf/3-21g
 ----------

 -----------------------
 tmpdir/M2_conf_37_6.gjf
 -----------------------
 Symbolic Z-matrix:
 Charge =  0 Multiplicity = 1

                         Standard orientation:
 ---------------------------------------------------------------------
 Center     Atomic      Atomic             Coordinates (Angstroms)
 Number     Number       Type             X           Y           Z
 ---------------------------------------------------------------------
      1          1           0       -1.733178   -0.001542    0.938878
      2          6           0       -1.203293    0.000013    0.005386
      3         17           0        0.688608   -0.000029    0.009373
      4          1           0       -1.376432    0.893672   -0.563832
      5          1           0       -1.376960   -0.891706   -0.566703
 ---------------------------------------------------------------------

 SCF Done:  E(RHF) =  -496.682473716     A.U. after   11 cycles

 The electronic state is 1-A.
 Alpha  occ. eigenvalues -- -104.08831 -11.24984 -10.48221  -7.94594  -7.94189
 Alpha  occ. eigenvalues --   -7.94189  -1.11444  -0.93285  -0.63369  -0.63362
 Alpha  occ. eigenvalues --   -0.51031  -0.43741  -0.43617
 Alpha virt. eigenvalues --    0.16100   0.27313   0.31367   0.31518   0.73899
 Alpha virt. eigenvalues --    0.79906   0.81446   0.85853   0.91973   0.94757
 Alpha virt. eigenvalues --    1.00912   1.30394   1.31336   1.32655   1.91105

 Mulliken charges:
               1
     1  H    0.262950
     2  C   -0.706808
     3  Cl  -0.105741
     4  H    0.274812
     5  H    0.274787
 Sum of Mulliken charges =   0.00000

 Dipole moment (field-independent basis, Debye):
    X=             -2.8460    Y=              0.0003    Z=             -0.1182  Tot=              2.8484
 Quadrupole moment (field-independent basis, Debye-Ang):
   XX=            -18.5427   YY=            -20.1749   ZZ=            -20.2784
   XY=              0.0012   XZ=             -0.3532   YZ=             -0.0001

 Normal termination of Gaussian 16 at Fri Sep 22 17:15:02 2023.
