 Gaussian 16, Revision A.03,
 Gaussian 16:  ES64L-G16RevA.03 25-Dec-2016

 ----------
 # hf/3-21g
 ----------

 ------------------------
 tmpdir/M2_conf_119_2.gjf
 ------------------------
 Symbolic Z-matrix:
 Charge =  0 Multiplicity = 1

                         Standard orientation:
 ---------------------------------------------------------------------
 Center     Atomic      Atomic             Coordinates (Angstroms)
 Number     Number       Type             X           Y           Z
 ---------------------------------------------------------------------
      1          6           0        0.018415   -0.024222   -0.000015
      2          1           0        0.967608    0.616483   -0.003662
      3          1           0       -0.077015   -0.611364    0.893494
      4          1           0       -0.083119   -0.613535   -0.891656
      5          1           0       -0.917967    0.753750    0.001914
 ---------------------------------------------------------------------

 SCF Done:  E(RHF) =  -39.9643972655     A.U. after    9 cycles

 The electronic state is 1-A.
 Alpha  occ. eigenvalues --  -11.16558  -0.93070  -0.55761  -0.54149  -0.50183
 Alpha virt. eigenvalues --    0.27965   0.31557   0.34448   0.35688   0.91763
 Alpha virt. eigenvalues --    0.94629   0.98405   1.24518   1.28381   1.34512
 Alpha virt. eigenvalues --    1.36767   1.93833

 Mulliken charges:
               1
     1  C   -0.759103
     2  H    0.187210
     3  H    0.208873
     4  H    0.208822
     5  H    0.154197
 Sum of Mulliken charges =   0.00000

 Dipole moment (field-independent basis, Debye):
    X=              0.0080    Y=             -0.0683    Z=              0.0001  Tot=              0.0688
 Quadrupole moment (field-independent basis, Debye-Ang):
   XX=             -8.5820   YY=             -8.5463   ZZ=             -8.4584
   XY=              0.1562   XZ=              0.0011   YZ=             -0.0004

 Normal termination of Gaussian 16 at Fri Sep 22 17:17:05 2023.
