 Gaussian 16, Revision A.03,
 Gaussian 16:  ES64L-G16RevA.03 25-Dec-2016

 ----------
 # hf/3-21g
 ----------

 -----------------------
 tmpdir/M2_conf_79_3.gjf
 -----------------------
 Symbolic Z-matrix:
 Charge =  0 Multiplicity = 1

                         Standard orientation:
 ---------------------------------------------------------------------
 Center     Atomic      Atomic             Coordinates (Angstroms)
 Number     Number       Type             X           Y           Z
 ---------------------------------------------------------------------
      1          6           0       -1.322795    0.000017    0.000010
      2         17           0        0.753305   -0.000013   -0.000003
      3          1           0       -1.623163   -0.278185    0.992268
      4          1           0       -1.622842    0.998729   -0.255258
      5          1           0       -1.623410   -0.720424   -0.737021
 ---------------------------------------------------------------------

 SCF Done:  E(RHF) =  -496.680514588     A.U. after   10 cycles

 The electronic state is 1-A.
 Alpha  occ. eigenvalues -- -104.08582 -11.26965 -10.47571  -7.93917  -7.93587
 Alpha  occ. eigenvalues --   -7.93587  -1.07420  -0.95076  -0.63301  -0.63296
 Alpha  occ. eigenvalues --   -0.48193  -0.43327  -0.43327
 Alpha virt. eigenvalues --    0.10822   0.26611   0.31088   0.31092   0.73503
 Alpha virt. eigenvalues --    0.79804   0.79809   0.85964   0.93658   0.93668
 Alpha virt. eigenvalues --    1.03005   1.30121   1.30289   1.30299   1.86436

 Mulliken charges:
               1
     1  C   -0.595032
     2  Cl  -0.214546
     3  H    0.269880
     4  H    0.269865
     5  H    0.269833
 Sum of Mulliken charges =  -0.00000

 Dipole moment (field-independent basis, Debye):
    X=             -3.5415    Y=              0.0001    Z=              0.0001  Tot=              3.5415
 Quadrupole moment (field-independent basis, Debye-Ang):
   XX=            -17.3648   YY=            -20.3112   ZZ=            -20.3126
   XY=              0.0006   XZ=             -0.0001   YZ=             -0.0001

 Normal termination of Gaussian 16 at Fri Sep 22 17:16:06 2023.
