 Gaussian 16, Revision A.03,
 Gaussian 16:  ES64L-G16RevA.03 25-Dec-2016

 ----------
 # hf/3-21g
 ----------

 ------------------------
 tmpdir/M2_conf_151_6.gjf
 ------------------------
 Symbolic Z-matrix:
 Charge =  0 Multiplicity = 1

                         Standard orientation:
 ---------------------------------------------------------------------
 Center     Atomic      Atomic             Coordinates (Angstroms)
 Number     Number       Type             X           Y           Z
 ---------------------------------------------------------------------
      1          1           0       -1.153675   -0.002508    1.063969
      2          6           0       -1.204230    0.000034   -0.008236
      3         17           0        0.687662    0.000021   -0.012846
      4          1           0       -1.655409    0.893662   -0.396152
      5          1           0       -1.655785   -0.891714   -0.400017
 ---------------------------------------------------------------------

 SCF Done:  E(RHF) =  -496.673769640     A.U. after   11 cycles

 The electronic state is 1-A.
 Alpha  occ. eigenvalues -- -104.08942 -11.24926 -10.48345  -7.94716  -7.94310
 Alpha  occ. eigenvalues --   -7.94305  -1.11714  -0.93226  -0.63814  -0.63155
 Alpha  occ. eigenvalues --   -0.50843  -0.44058  -0.43206
 Alpha virt. eigenvalues --    0.15712   0.27470   0.31418   0.31510   0.74004
 Alpha virt. eigenvalues --    0.79659   0.80992   0.85522   0.92556   0.95861
 Alpha virt. eigenvalues --    1.00903   1.30008   1.31165   1.32305   1.89705

 Mulliken charges:
               1
     1  H    0.281854
     2  C   -0.705909
     3  Cl  -0.108370
     4  H    0.266220
     5  H    0.266205
 Sum of Mulliken charges =  -0.00000

 Dipole moment (field-independent basis, Debye):
    X=             -2.8138    Y=             -0.0004    Z=              0.1943  Tot=              2.8205
 Quadrupole moment (field-independent basis, Debye-Ang):
   XX=            -18.5309   YY=            -20.1814   ZZ=            -20.3714
   XY=             -0.0007   XZ=              0.4781   YZ=             -0.0001

 Normal termination of Gaussian 16 at Fri Sep 22 17:17:53 2023.
