 Gaussian 16, Revision A.03,
 Gaussian 16:  ES64L-G16RevA.03 25-Dec-2016

 ----------
 # hf/3-21g
 ----------

 ------------------------
 tmpdir/M2_conf_234_5.gjf
 ------------------------
 Symbolic Z-matrix:
 Charge =  0 Multiplicity = 1

                         Standard orientation:
 ---------------------------------------------------------------------
 Center     Atomic      Atomic             Coordinates (Angstroms)
 Number     Number       Type             X           Y           Z
 ---------------------------------------------------------------------
      1          1           0        0.441629    0.933000   -0.350219
      2          6           0        0.034008   -0.000357   -0.011284
      3          1           0        0.029721   -0.810438   -0.715812
      4          1           0        0.468177   -0.326099    0.914999
      5          1           0       -1.143575    0.205678    0.218733
 ---------------------------------------------------------------------

 SCF Done:  E(RHF) =  -39.9659779306     A.U. after    9 cycles

 The electronic state is 1-A.
 Alpha  occ. eigenvalues --  -11.15735  -0.93788  -0.56487  -0.55006  -0.50028
 Alpha virt. eigenvalues --    0.28331   0.32074   0.35406   0.36014   0.91300
 Alpha virt. eigenvalues --    0.92853   0.97470   1.25182   1.32136   1.36342
 Alpha virt. eigenvalues --    1.37798   1.94666

 Mulliken charges:
               1
     1  H    0.208038
     2  C   -0.772213
     3  H    0.207670
     4  H    0.206106
     5  H    0.150398
 Sum of Mulliken charges =  -0.00000

 Dipole moment (field-independent basis, Debye):
    X=              0.0559    Y=             -0.0329    Z=              0.0037  Tot=              0.0650
 Quadrupole moment (field-independent basis, Debye-Ang):
   XX=             -8.6533   YY=             -8.2677   ZZ=             -8.5245
   XY=              0.0932   XZ=              0.0869   YZ=             -0.0185

 Normal termination of Gaussian 16 at Fri Sep 22 17:20:04 2023.
