 Gaussian 16, Revision A.03,
 Gaussian 16:  ES64L-G16RevA.03 25-Dec-2016

 ----------
 # hf/3-21g
 ----------

 ------------------------
 tmpdir/M2_conf_113_4.gjf
 ------------------------
 Symbolic Z-matrix:
 Charge =  0 Multiplicity = 1

                         Standard orientation:
 ---------------------------------------------------------------------
 Center     Atomic      Atomic             Coordinates (Angstroms)
 Number     Number       Type             X           Y           Z
 ---------------------------------------------------------------------
      1          1           0       -0.349364    0.967028   -0.352916
      2          6           0       -0.033149    0.001273   -0.007211
      3          1           0       -0.175235   -0.800825   -0.706551
      4          1           0       -0.448157   -0.247834    0.951078
      5          1           0        1.171651    0.073995    0.151657
 ---------------------------------------------------------------------

 SCF Done:  E(RHF) =  -39.9665239818     A.U. after    9 cycles

 The electronic state is 1-A.
 Alpha  occ. eigenvalues --  -11.15731  -0.93780  -0.56148  -0.55256  -0.50133
 Alpha virt. eigenvalues --    0.28328   0.32147   0.35518   0.35884   0.91542
 Alpha virt. eigenvalues --    0.92451   0.97530   1.25136   1.32273   1.36567
 Alpha virt. eigenvalues --    1.37450   1.94668

 Mulliken charges:
               1
     1  H    0.207337
     2  C   -0.771341
     3  H    0.207043
     4  H    0.206196
     5  H    0.150764
 Sum of Mulliken charges =  -0.00000

 Dipole moment (field-independent basis, Debye):
    X=             -0.0634    Y=             -0.0174    Z=              0.0008  Tot=              0.0658
 Quadrupole moment (field-independent basis, Debye-Ang):
   XX=             -8.6680   YY=             -8.3077   ZZ=             -8.4662
   XY=             -0.0351   XZ=             -0.0618   YZ=             -0.0055

 Normal termination of Gaussian 16 at Fri Sep 22 17:16:56 2023.
