 Gaussian 16, Revision A.03,
 Gaussian 16:  ES64L-G16RevA.03 25-Dec-2016

 ----------
 # hf/3-21g
 ----------

 ------------------------
 tmpdir/M2_conf_163_9.gjf
 ------------------------
 Symbolic Z-matrix:
 Charge =  0 Multiplicity = 1

                         Standard orientation:
 ---------------------------------------------------------------------
 Center     Atomic      Atomic             Coordinates (Angstroms)
 Number     Number       Type             X           Y           Z
 ---------------------------------------------------------------------
      1          1           0        1.101050   -0.003182    1.058660
      2          6           0        1.204828    0.000030   -0.009908
      3         17           0       -0.687064    0.000041   -0.014436
      4          1           0        1.675087   -0.891383   -0.379279
      5          1           0        1.674973    0.893691   -0.374517
 ---------------------------------------------------------------------

 SCF Done:  E(RHF) =  -496.668357325     A.U. after   11 cycles

 The electronic state is 1-A.
 Alpha  occ. eigenvalues -- -104.09007 -11.24890 -10.48418  -7.94787  -7.94380
 Alpha  occ. eigenvalues --   -7.94374  -1.11876  -0.93188  -0.63972  -0.63141
 Alpha  occ. eigenvalues --   -0.50728  -0.44144  -0.43045
 Alpha virt. eigenvalues --    0.15445   0.27539   0.31440   0.31544   0.74049
 Alpha virt. eigenvalues --    0.79501   0.80926   0.85389   0.92769   0.96143
 Alpha virt. eigenvalues --    1.01204   1.29704   1.31179   1.32206   1.88985

 Mulliken charges:
               1
     1  H    0.283456
     2  C   -0.706573
     3  Cl  -0.109097
     4  H    0.266122
     5  H    0.266093
 Sum of Mulliken charges =   0.00000

 Dipole moment (field-independent basis, Debye):
    X=              2.7939    Y=             -0.0007    Z=              0.2250  Tot=              2.8029
 Quadrupole moment (field-independent basis, Debye-Ang):
   XX=            -18.5229   YY=            -20.1805   ZZ=            -20.4326
   XY=              0.0013   XZ=             -0.5368   YZ=             -0.0001

 Normal termination of Gaussian 16 at Fri Sep 22 17:18:11 2023.
