 Gaussian 16, Revision A.03,
 Gaussian 16:  ES64L-G16RevA.03 25-Dec-2016

 ----------
 # hf/3-21g
 ----------

 -----------------------
 tmpdir/M2_conf_89_9.gjf
 -----------------------
 Symbolic Z-matrix:
 Charge =  0 Multiplicity = 1

                         Standard orientation:
 ---------------------------------------------------------------------
 Center     Atomic      Atomic             Coordinates (Angstroms)
 Number     Number       Type             X           Y           Z
 ---------------------------------------------------------------------
      1          1           0       -1.525817   -0.569261   -0.851411
      2          6           0       -1.202366   -0.000251   -0.000397
      3         17           0        0.689537   -0.000529   -0.000775
      4          1           0       -1.491233   -0.452223    0.929374
      5          1           0       -1.490873    1.031991   -0.062402
 ---------------------------------------------------------------------

 SCF Done:  E(RHF) =  -496.689416840     A.U. after   11 cycles

 The electronic state is 1-A.
 Alpha  occ. eigenvalues -- -104.08773 -11.25001 -10.48162  -7.94537  -7.94133
 Alpha  occ. eigenvalues --   -7.94133  -1.11281  -0.93337  -0.63254  -0.63237
 Alpha  occ. eigenvalues --   -0.51321  -0.43739  -0.43714
 Alpha virt. eigenvalues --    0.16601   0.27332   0.31375   0.31383   0.73826
 Alpha virt. eigenvalues --    0.80609   0.80753   0.85501   0.93499   0.93823
 Alpha virt. eigenvalues --    0.99537   1.31205   1.31239   1.32204   1.91999

 Mulliken charges:
               1
     1  H    0.269073
     2  C   -0.702639
     3  Cl  -0.107048
     4  H    0.270317
     5  H    0.270296
 Sum of Mulliken charges =  -0.00000

 Dipole moment (field-independent basis, Debye):
    X=             -2.8661    Y=              0.0068    Z=              0.0102  Tot=              2.8661
 Quadrupole moment (field-independent basis, Debye-Ang):
   XX=            -18.5698   YY=            -20.1800   ZZ=            -20.1819
   XY=              0.0200   XZ=              0.0287   YZ=             -0.0005

 Normal termination of Gaussian 16 at Fri Sep 22 17:16:20 2023.
