 Gaussian 16, Revision A.03,
 Gaussian 16:  ES64L-G16RevA.03 25-Dec-2016

 ----------
 # hf/3-21g
 ----------

 ------------------------
 tmpdir/M2_conf_151_9.gjf
 ------------------------
 Symbolic Z-matrix:
 Charge =  0 Multiplicity = 1

                         Standard orientation:
 ---------------------------------------------------------------------
 Center     Atomic      Atomic             Coordinates (Angstroms)
 Number     Number       Type             X           Y           Z
 ---------------------------------------------------------------------
      1          1           0        1.154781   -0.004181    1.064244
      2          6           0        1.204219    0.000034   -0.008209
      3         17           0       -0.687676    0.000047   -0.012814
      4          1           0        1.655272   -0.890945   -0.401787
      5          1           0        1.655125    0.894124   -0.395369
 ---------------------------------------------------------------------

 SCF Done:  E(RHF) =  -496.673872686     A.U. after   11 cycles

 The electronic state is 1-A.
 Alpha  occ. eigenvalues -- -104.08941 -11.24927 -10.48344  -7.94715  -7.94309
 Alpha  occ. eigenvalues --   -7.94304  -1.11710  -0.93227  -0.63810  -0.63156
 Alpha  occ. eigenvalues --   -0.50846  -0.44057  -0.43209
 Alpha virt. eigenvalues --    0.15717   0.27467   0.31417   0.31512   0.74003
 Alpha virt. eigenvalues --    0.79660   0.80994   0.85525   0.92560   0.95847
 Alpha virt. eigenvalues --    1.00897   1.30025   1.31171   1.32288   1.89719

 Mulliken charges:
               1
     1  H    0.281769
     2  C   -0.705887
     3  Cl  -0.108342
     4  H    0.266244
     5  H    0.266216
 Sum of Mulliken charges =  -0.00000

 Dipole moment (field-independent basis, Debye):
    X=              2.8141    Y=             -0.0008    Z=              0.1936  Tot=              2.8208
 Quadrupole moment (field-independent basis, Debye-Ang):
   XX=            -18.5309   YY=            -20.1821   ZZ=            -20.3697
   XY=              0.0015   XZ=             -0.4773   YZ=             -0.0001

 Normal termination of Gaussian 16 at Fri Sep 22 17:17:53 2023.
