 Gaussian 16, Revision A.03,
 Gaussian 16:  ES64L-G16RevA.03 25-Dec-2016

 ----------
 # hf/3-21g
 ----------

 -----------------------
 tmpdir/M2_conf_52_9.gjf
 -----------------------
 Symbolic Z-matrix:
 Charge =  0 Multiplicity = 1

                         Standard orientation:
 ---------------------------------------------------------------------
 Center     Atomic      Atomic             Coordinates (Angstroms)
 Number     Number       Type             X           Y           Z
 ---------------------------------------------------------------------
      1          1           0        1.581553   -0.060188    1.004294
      2          6           0        1.202458   -0.000086    0.001651
      3         17           0       -0.689440   -0.000202    0.003209
      4          1           0        1.462286   -0.858883   -0.587545
      5          1           0        1.461897    0.923027   -0.481214
 ---------------------------------------------------------------------

 SCF Done:  E(RHF) =  -496.688698595     A.U. after   11 cycles

 The electronic state is 1-A.
 Alpha  occ. eigenvalues -- -104.08779 -11.24999 -10.48169  -7.94543  -7.94139
 Alpha  occ. eigenvalues --   -7.94139  -1.11299  -0.93331  -0.63278  -0.63239
 Alpha  occ. eigenvalues --   -0.51291  -0.43759  -0.43685
 Alpha virt. eigenvalues --    0.16551   0.27332   0.31366   0.31402   0.73835
 Alpha virt. eigenvalues --    0.80417   0.80930   0.85540   0.93102   0.94178
 Alpha virt. eigenvalues --    0.99669   1.31070   1.31263   1.32274   1.91897

 Mulliken charges:
               1
     1  H    0.267201
     2  C   -0.702997
     3  Cl  -0.106964
     4  H    0.271390
     5  H    0.271370
 Sum of Mulliken charges =  -0.00000

 Dipole moment (field-independent basis, Debye):
    X=              2.8640    Y=              0.0024    Z=             -0.0415  Tot=              2.8643
 Quadrupole moment (field-independent basis, Debye-Ang):
   XX=            -18.5671   YY=            -20.1789   ZZ=            -20.1925
   XY=             -0.0079   XZ=              0.1200   YZ=              0.0001

 Normal termination of Gaussian 16 at Fri Sep 22 17:15:25 2023.
