 Gaussian 16, Revision A.03,
 Gaussian 16:  ES64L-G16RevA.03 25-Dec-2016

 ----------
 # hf/3-21g
 ----------

 ------------------------
 tmpdir/M2_conf_160_0.gjf
 ------------------------
 Symbolic Z-matrix:
 Charge =  0 Multiplicity = 1

                         Standard orientation:
 ---------------------------------------------------------------------
 Center     Atomic      Atomic             Coordinates (Angstroms)
 Number     Number       Type             X           Y           Z
 ---------------------------------------------------------------------
      1          6           0       -0.032258    0.000055    0.014371
      2          1           0       -0.146008   -0.001173    0.989659
      3          1           0       -0.411849    0.894418   -0.442411
      4          1           0       -0.416699   -0.890958   -0.444873
      5          1           0        1.168104   -0.002617   -0.188600
 ---------------------------------------------------------------------

 SCF Done:  E(RHF) =  -39.9589403791     A.U. after    9 cycles

 The electronic state is 1-A.
 Alpha  occ. eigenvalues --  -11.14665  -0.94981  -0.57651  -0.55514  -0.50289
 Alpha virt. eigenvalues --    0.28543   0.32615   0.35680   0.37748   0.87753
 Alpha virt. eigenvalues --    0.92145   0.97566   1.25403   1.34191   1.37109
 Alpha virt. eigenvalues --    1.45813   1.96095

 Mulliken charges:
               1
     1  C   -0.780646
     2  H    0.227843
     3  H    0.202755
     4  H    0.202748
     5  H    0.147300
 Sum of Mulliken charges =   0.00000

 Dipole moment (field-independent basis, Debye):
    X=             -0.0846    Y=              0.0002    Z=              0.0615  Tot=              0.1046
 Quadrupole moment (field-independent basis, Debye-Ang):
   XX=             -8.5585   YY=             -8.2972   ZZ=             -8.3761
   XY=              0.0011   XZ=              0.0457   YZ=             -0.0004

 Normal termination of Gaussian 16 at Fri Sep 22 17:18:07 2023.
