 Gaussian 16, Revision A.03,
 Gaussian 16:  ES64L-G16RevA.03 25-Dec-2016

 ----------
 # hf/3-21g
 ----------

 -----------------------
 tmpdir/M2_conf_29_0.gjf
 -----------------------
 Symbolic Z-matrix:
 Charge =  0 Multiplicity = 1

                         Standard orientation:
 ---------------------------------------------------------------------
 Center     Atomic      Atomic             Coordinates (Angstroms)
 Number     Number       Type             X           Y           Z
 ---------------------------------------------------------------------
      1          6           0        0.021226   -0.021866    0.000056
      2          1           0        0.898493    0.702223    0.001894
      3          1           0       -0.022575   -0.616486    0.892879
      4          1           0       -0.017785   -0.617206   -0.892498
      5          1           0       -0.985491    0.662667   -0.002612
 ---------------------------------------------------------------------

 SCF Done:  E(RHF) =  -39.9649429839     A.U. after    9 cycles

 The electronic state is 1-A.
 Alpha  occ. eigenvalues --  -11.16472  -0.93134  -0.55745  -0.54299  -0.50199
 Alpha virt. eigenvalues --    0.28015   0.31649   0.34552   0.35686   0.91786
 Alpha virt. eigenvalues --    0.94408   0.98253   1.24610   1.28849   1.34630
 Alpha virt. eigenvalues --    1.36779   1.93915

 Mulliken charges:
               1
     1  C   -0.760467
     2  H    0.189366
     3  H    0.208593
     4  H    0.208590
     5  H    0.153918
 Sum of Mulliken charges =  -0.00000

 Dipole moment (field-independent basis, Debye):
    X=              0.0197    Y=             -0.0638    Z=              0.0001  Tot=              0.0668
 Quadrupole moment (field-independent basis, Debye-Ang):
   XX=             -8.6080   YY=             -8.5124   ZZ=             -8.4512
   XY=              0.1469   XZ=             -0.0012   YZ=              0.0005

 Normal termination of Gaussian 16 at Fri Sep 22 17:14:50 2023.
