 Gaussian 16, Revision A.03,
 Gaussian 16:  ES64L-G16RevA.03 25-Dec-2016

 ----------
 # hf/3-21g
 ----------

 -----------------------
 tmpdir/M2_conf_29_4.gjf
 -----------------------
 Symbolic Z-matrix:
 Charge =  0 Multiplicity = 1

                         Standard orientation:
 ---------------------------------------------------------------------
 Center     Atomic      Atomic             Coordinates (Angstroms)
 Number     Number       Type             X           Y           Z
 ---------------------------------------------------------------------
      1          1           0        0.517419   -0.106075    0.916396
      2          6           0        0.005621    0.026399   -0.017788
      3          1           0        0.807307   -0.239642   -0.680463
      4          1           0       -0.469337    0.986264   -0.093138
      5          1           0       -0.889115   -0.798940   -0.036067
 ---------------------------------------------------------------------

 SCF Done:  E(RHF) =  -39.9611252356     A.U. after    9 cycles

 The electronic state is 1-A.
 Alpha  occ. eigenvalues --  -11.15727  -0.93939  -0.57806  -0.52663  -0.50754
 Alpha virt. eigenvalues --    0.28133   0.32312   0.34574   0.36409   0.90131
 Alpha virt. eigenvalues --    0.93994   0.98832   1.24673   1.32430   1.34705
 Alpha virt. eigenvalues --    1.39686   1.93756

 Mulliken charges:
               1
     1  H    0.203588
     2  C   -0.776976
     3  H    0.207835
     4  H    0.209728
     5  H    0.155824
 Sum of Mulliken charges =  -0.00000

 Dipole moment (field-independent basis, Debye):
    X=              0.1285    Y=              0.0295    Z=              0.0905  Tot=              0.1600
 Quadrupole moment (field-independent basis, Debye-Ang):
   XX=             -8.1196   YY=             -8.4385   ZZ=             -8.8848
   XY=             -0.2376   XZ=             -0.0237   YZ=             -0.0142

 Normal termination of Gaussian 16 at Fri Sep 22 17:14:51 2023.
