 Gaussian 16, Revision A.03,
 Gaussian 16:  ES64L-G16RevA.03 25-Dec-2016

 ----------
 # hf/3-21g
 ----------

 ------------------------
 tmpdir/M2_conf_176_8.gjf
 ------------------------
 Symbolic Z-matrix:
 Charge =  0 Multiplicity = 1

                         Standard orientation:
 ---------------------------------------------------------------------
 Center     Atomic      Atomic             Coordinates (Angstroms)
 Number     Number       Type             X           Y           Z
 ---------------------------------------------------------------------
      1          1           0       -1.071884   -0.001062    1.054428
      2          6           0       -1.205200   -0.000005   -0.010862
      3         17           0        0.686696    0.000022   -0.015266
      4          1           0       -1.685241   -0.892118   -0.365647
      5          1           0       -1.685502    0.892831   -0.364094
 ---------------------------------------------------------------------

 SCF Done:  E(RHF) =  -496.664953117     A.U. after   11 cycles

 The electronic state is 1-A.
 Alpha  occ. eigenvalues -- -104.09049 -11.24865 -10.48465  -7.94834  -7.94426
 Alpha  occ. eigenvalues --   -7.94418  -1.11981  -0.93163  -0.64072  -0.63129
 Alpha  occ. eigenvalues --   -0.50666  -0.44198  -0.42942
 Alpha virt. eigenvalues --    0.15284   0.27587   0.31457   0.31562   0.74073
 Alpha virt. eigenvalues --    0.79413   0.80884   0.85301   0.92914   0.96295
 Alpha virt. eigenvalues --    1.01372   1.29515   1.31184   1.32150   1.88549

 Mulliken charges:
               1
     1  H    0.284362
     2  C   -0.706937
     3  Cl  -0.109593
     4  H    0.266107
     5  H    0.266062
 Sum of Mulliken charges =  -0.00000

 Dipole moment (field-independent basis, Debye):
    X=             -2.7810    Y=             -0.0004    Z=              0.2421  Tot=              2.7915
 Quadrupole moment (field-independent basis, Debye-Ang):
   XX=            -18.5192   YY=            -20.1798   ZZ=            -20.4700
   XY=             -0.0007   XZ=              0.5672   YZ=              0.0000

 Normal termination of Gaussian 16 at Fri Sep 22 17:18:31 2023.
