 Gaussian 16, Revision A.03,
 Gaussian 16:  ES64L-G16RevA.03 25-Dec-2016

 ----------
 # hf/3-21g
 ----------

 ------------------------
 tmpdir/M2_conf_143_4.gjf
 ------------------------
 Symbolic Z-matrix:
 Charge =  0 Multiplicity = 1

                         Standard orientation:
 ---------------------------------------------------------------------
 Center     Atomic      Atomic             Coordinates (Angstroms)
 Number     Number       Type             X           Y           Z
 ---------------------------------------------------------------------
      1          1           0       -1.044569    0.096221   -0.330850
      2          6           0       -0.023824   -0.028518   -0.023103
      3          1           0        0.759510   -0.304327   -0.703494
      4          1           0        0.073355   -0.686428    0.819698
      5          1           0        0.354647    1.065640    0.353265
 ---------------------------------------------------------------------

 SCF Done:  E(RHF) =  -39.9624189397     A.U. after    9 cycles

 The electronic state is 1-A.
 Alpha  occ. eigenvalues --  -11.15755  -0.93848  -0.57626  -0.54199  -0.49560
 Alpha virt. eigenvalues --    0.28318   0.31686   0.35035   0.36446   0.90575
 Alpha virt. eigenvalues --    0.94520   0.97330   1.25308   1.31596   1.35706
 Alpha virt. eigenvalues --    1.39047   1.94576

 Mulliken charges:
               1
     1  H    0.211358
     2  C   -0.778124
     3  H    0.211365
     4  H    0.206072
     5  H    0.149329
 Sum of Mulliken charges =   0.00000

 Dipole moment (field-independent basis, Debye):
    X=              0.0341    Y=             -0.0662    Z=              0.0187  Tot=              0.0767
 Quadrupole moment (field-independent basis, Debye-Ang):
   XX=             -8.0790   YY=             -8.6424   ZZ=             -8.7406
   XY=             -0.1422   XZ=             -0.0369   YZ=             -0.1359

 Normal termination of Gaussian 16 at Fri Sep 22 17:17:41 2023.
