 Gaussian 16, Revision A.03,
 Gaussian 16:  ES64L-G16RevA.03 25-Dec-2016

 ----------
 # hf/3-21g
 ----------

 ------------------------
 tmpdir/M2_conf_227_4.gjf
 ------------------------
 Symbolic Z-matrix:
 Charge =  0 Multiplicity = 1

                         Standard orientation:
 ---------------------------------------------------------------------
 Center     Atomic      Atomic             Coordinates (Angstroms)
 Number     Number       Type             X           Y           Z
 ---------------------------------------------------------------------
      1          1           0       -0.852830    0.590118   -0.347434
      2          6           0       -0.031177   -0.015926   -0.016096
      3          1           0        0.441817   -0.679154   -0.715399
      4          1           0       -0.262837   -0.570800    0.873316
      5          1           0        0.860914    0.755390    0.286093
 ---------------------------------------------------------------------

 SCF Done:  E(RHF) =  -39.9649579818     A.U. after    9 cycles

 The electronic state is 1-A.
 Alpha  occ. eigenvalues --  -11.15741  -0.93804  -0.56916  -0.54695  -0.49874
 Alpha virt. eigenvalues --    0.28331   0.31956   0.35262   0.36178   0.91007
 Alpha virt. eigenvalues --    0.93423   0.97408   1.25235   1.31945   1.36081
 Alpha virt. eigenvalues --    1.38252   1.94643

 Mulliken charges:
               1
     1  H    0.209093
     2  C   -0.773860
     3  H    0.208759
     4  H    0.206039
     5  H    0.149969
 Sum of Mulliken charges =  -0.00000

 Dipole moment (field-independent basis, Debye):
    X=             -0.0206    Y=             -0.0631    Z=              0.0083  Tot=              0.0669
 Quadrupole moment (field-independent basis, Debye-Ang):
   XX=             -8.4233   YY=             -8.4229   ZZ=             -8.6046
   XY=             -0.2514   XZ=             -0.0835   YZ=             -0.0795

 Normal termination of Gaussian 16 at Fri Sep 22 17:19:53 2023.
