 Gaussian 16, Revision A.03,
 Gaussian 16:  ES64L-G16RevA.03 25-Dec-2016

 ----------
 # hf/3-21g
 ----------

 -----------------------
 tmpdir/M2_conf_98_7.gjf
 -----------------------
 Symbolic Z-matrix:
 Charge =  0 Multiplicity = 1

                         Standard orientation:
 ---------------------------------------------------------------------
 Center     Atomic      Atomic             Coordinates (Angstroms)
 Number     Number       Type             X           Y           Z
 ---------------------------------------------------------------------
      1          1           0       -0.528347    0.888713   -0.349544
      2          6           0       -0.034198   -0.002959   -0.012860
      3          1           0        0.071944   -0.806740   -0.716618
      4          1           0       -0.450165   -0.383102    0.900724
      5          1           0        1.111758    0.318884    0.242599
 ---------------------------------------------------------------------

 SCF Done:  E(RHF) =  -39.9656842390     A.U. after    9 cycles

 The electronic state is 1-A.
 Alpha  occ. eigenvalues --  -11.15737  -0.93793  -0.56624  -0.54906  -0.49980
 Alpha virt. eigenvalues --    0.28332   0.32038   0.35362   0.36065   0.91193
 Alpha virt. eigenvalues --    0.93042   0.97448   1.25200   1.32071   1.36266
 Alpha virt. eigenvalues --    1.37938   1.94660

 Mulliken charges:
               1
     1  H    0.208309
     2  C   -0.772685
     3  H    0.207984
     4  H    0.206135
     5  H    0.150256
 Sum of Mulliken charges =  -0.00000

 Dipole moment (field-independent basis, Debye):
    X=             -0.0501    Y=             -0.0416    Z=              0.0052  Tot=              0.0653
 Quadrupole moment (field-independent basis, Debye-Ang):
   XX=             -8.6270   YY=             -8.2695   ZZ=             -8.5506
   XY=             -0.1390   XZ=             -0.0937   YZ=             -0.0304

 Normal termination of Gaussian 16 at Fri Sep 22 17:16:34 2023.
