 Gaussian 16, Revision A.03,
 Gaussian 16:  ES64L-G16RevA.03 25-Dec-2016

 ----------
 # hf/3-21g
 ----------

 -----------------------
 tmpdir/M2_conf_87_9.gjf
 -----------------------
 Symbolic Z-matrix:
 Charge =  0 Multiplicity = 1

                         Standard orientation:
 ---------------------------------------------------------------------
 Center     Atomic      Atomic             Coordinates (Angstroms)
 Number     Number       Type             X           Y           Z
 ---------------------------------------------------------------------
      1          1           0       -1.506425   -0.817258   -0.626409
      2          6           0       -1.202357   -0.000047   -0.000050
      3         17           0        0.689545   -0.000125   -0.000085
      4          1           0       -1.501020   -0.133325    1.022317
      5          1           0       -1.500671    0.952994   -0.394165
 ---------------------------------------------------------------------

 SCF Done:  E(RHF) =  -496.689481917     A.U. after   10 cycles

 The electronic state is 1-A.
 Alpha  occ. eigenvalues -- -104.08772 -11.25001 -10.48162  -7.94536  -7.94132
 Alpha  occ. eigenvalues --   -7.94132  -1.11280  -0.93337  -0.63247  -0.63242
 Alpha  occ. eigenvalues --   -0.51324  -0.43729  -0.43725
 Alpha virt. eigenvalues --    0.16606   0.27332   0.31378   0.31379   0.73825
 Alpha virt. eigenvalues --    0.80671   0.80693   0.85498   0.93634   0.93691
 Alpha virt. eigenvalues --    0.99526   1.31224   1.31232   1.32197   1.92008

 Mulliken charges:
               1
     1  H    0.269744
     2  C   -0.702610
     3  Cl  -0.107052
     4  H    0.269970
     5  H    0.269949
 Sum of Mulliken charges =   0.00000

 Dipole moment (field-independent basis, Debye):
    X=             -2.8663    Y=              0.0016    Z=              0.0013  Tot=              2.8663
 Quadrupole moment (field-independent basis, Debye-Ang):
   XX=            -18.5700   YY=            -20.1798   ZZ=            -20.1812
   XY=              0.0048   XZ=              0.0029   YZ=             -0.0001

 Normal termination of Gaussian 16 at Fri Sep 22 17:16:17 2023.
