 Gaussian 16, Revision A.03,
 Gaussian 16:  ES64L-G16RevA.03 25-Dec-2016

 ----------
 # hf/3-21g
 ----------

 ------------------------
 tmpdir/M2_conf_126_7.gjf
 ------------------------
 Symbolic Z-matrix:
 Charge =  0 Multiplicity = 1

                         Standard orientation:
 ---------------------------------------------------------------------
 Center     Atomic      Atomic             Coordinates (Angstroms)
 Number     Number       Type             X           Y           Z
 ---------------------------------------------------------------------
      1          1           0       -1.042855    0.102798   -0.332440
      2          6           0       -0.023462   -0.028491   -0.022251
      3          1           0        0.752580   -0.317498   -0.705516
      4          1           0        0.067121   -0.679864    0.826090
      5          1           0        0.363926    1.065512    0.345373
 ---------------------------------------------------------------------

 SCF Done:  E(RHF) =  -39.9627699159     A.U. after    9 cycles

 The electronic state is 1-A.
 Alpha  occ. eigenvalues --  -11.15753  -0.93842  -0.57541  -0.54256  -0.49602
 Alpha virt. eigenvalues --    0.28321   0.31721   0.35064   0.36412   0.90614
 Alpha virt. eigenvalues --    0.94393   0.97335   1.25302   1.31630   1.35758
 Alpha virt. eigenvalues --    1.38949   1.94586

 Mulliken charges:
               1
     1  H    0.211014
     2  C   -0.777536
     3  H    0.210996
     4  H    0.206126
     5  H    0.149400
 Sum of Mulliken charges =  -0.00000

 Dipole moment (field-independent basis, Debye):
    X=              0.0312    Y=             -0.0663    Z=              0.0177  Tot=              0.0754
 Quadrupole moment (field-independent basis, Debye-Ang):
   XX=             -8.0964   YY=             -8.6399   ZZ=             -8.7242
   XY=             -0.1459   XZ=             -0.0375   YZ=             -0.1329

 Normal termination of Gaussian 16 at Fri Sep 22 17:17:16 2023.
