 Gaussian 16, Revision A.03,
 Gaussian 16:  ES64L-G16RevA.03 25-Dec-2016

 ----------
 # hf/3-21g
 ----------

 -----------------------
 tmpdir/M2_conf_12_3.gjf
 -----------------------
 Symbolic Z-matrix:
 Charge =  0 Multiplicity = 1

                         Standard orientation:
 ---------------------------------------------------------------------
 Center     Atomic      Atomic             Coordinates (Angstroms)
 Number     Number       Type             X           Y           Z
 ---------------------------------------------------------------------
      1          6           0       -1.321357    0.000017    0.000010
      2         17           0        0.752543   -0.000013   -0.000003
      3          1           0       -1.621724   -0.278185    0.992268
      4          1           0       -1.621404    0.998729   -0.255258
      5          1           0       -1.621972   -0.720424   -0.737021
 ---------------------------------------------------------------------

 SCF Done:  E(RHF) =  -496.680704377     A.U. after   10 cycles

 The electronic state is 1-A.
 Alpha  occ. eigenvalues -- -104.08587 -11.26942 -10.47580  -7.93926  -7.93595
 Alpha  occ. eigenvalues --   -7.93595  -1.07459  -0.95057  -0.63296  -0.63291
 Alpha  occ. eigenvalues --   -0.48229  -0.43335  -0.43335
 Alpha virt. eigenvalues --    0.10883   0.26619   0.31093   0.31097   0.73506
 Alpha virt. eigenvalues --    0.79814   0.79819   0.85950   0.93658   0.93668
 Alpha virt. eigenvalues --    1.02988   1.30144   1.30302   1.30312   1.86495

 Mulliken charges:
               1
     1  C   -0.596187
     2  Cl  -0.213389
     3  H    0.269880
     4  H    0.269864
     5  H    0.269833
 Sum of Mulliken charges =  -0.00000

 Dipole moment (field-independent basis, Debye):
    X=             -3.5329    Y=              0.0001    Z=              0.0001  Tot=              3.5329
 Quadrupole moment (field-independent basis, Debye-Ang):
   XX=            -17.3798   YY=            -20.3100   ZZ=            -20.3114
   XY=              0.0006   XZ=             -0.0001   YZ=             -0.0001

 Normal termination of Gaussian 16 at Fri Sep 22 17:14:25 2023.
