 Gaussian 16, Revision A.03,
 Gaussian 16:  ES64L-G16RevA.03 25-Dec-2016

 ----------
 # hf/3-21g
 ----------

 ------------------------
 tmpdir/M2_conf_190_7.gjf
 ------------------------
 Symbolic Z-matrix:
 Charge =  0 Multiplicity = 1

                         Standard orientation:
 ---------------------------------------------------------------------
 Center     Atomic      Atomic             Coordinates (Angstroms)
 Number     Number       Type             X           Y           Z
 ---------------------------------------------------------------------
      1          1           0       -0.598277    0.844292   -0.348949
      2          6           0       -0.034084   -0.005352   -0.013676
      3          1           0        0.148295   -0.796023   -0.716672
      4          1           0       -0.424316   -0.425452    0.893743
      5          1           0        1.078802    0.409294    0.253933
 ---------------------------------------------------------------------

 SCF Done:  E(RHF) =  -39.9655164108     A.U. after    9 cycles

 The electronic state is 1-A.
 Alpha  occ. eigenvalues --  -11.15738  -0.93795  -0.56697  -0.54853  -0.49955
 Alpha virt. eigenvalues --    0.28332   0.32018   0.35337   0.36093   0.91144
 Alpha virt. eigenvalues --    0.93138   0.97437   1.25209   1.32038   1.36221
 Alpha virt. eigenvalues --    1.38015   1.94656

 Mulliken charges:
               1
     1  H    0.208486
     2  C   -0.772955
     3  H    0.208161
     4  H    0.206125
     5  H    0.150183
 Sum of Mulliken charges =  -0.00000

 Dipole moment (field-independent basis, Debye):
    X=             -0.0452    Y=             -0.0472    Z=              0.0060  Tot=              0.0656
 Quadrupole moment (field-independent basis, Debye-Ang):
   XX=             -8.5985   YY=             -8.2854   ZZ=             -8.5640
   XY=             -0.1724   XZ=             -0.0949   YZ=             -0.0399

 Normal termination of Gaussian 16 at Fri Sep 22 17:18:57 2023.
