 Gaussian 16, Revision A.03,
 Gaussian 16:  ES64L-G16RevA.03 25-Dec-2016

 ----------
 # hf/3-21g
 ----------

 -----------------------
 tmpdir/M2_conf_79_2.gjf
 -----------------------
 Symbolic Z-matrix:
 Charge =  0 Multiplicity = 1

                         Standard orientation:
 ---------------------------------------------------------------------
 Center     Atomic      Atomic             Coordinates (Angstroms)
 Number     Number       Type             X           Y           Z
 ---------------------------------------------------------------------
      1          6           0        0.032186    0.000014    0.007399
      2          1           0        0.214094   -0.006096    1.024035
      3          1           0        0.387806   -0.888585   -0.478529
      4          1           0        0.383266    0.896537   -0.467587
      5          1           0       -1.178280   -0.001942   -0.122312
 ---------------------------------------------------------------------

 SCF Done:  E(RHF) =  -39.9653038057     A.U. after    9 cycles

 The electronic state is 1-A.
 Alpha  occ. eigenvalues --  -11.15249  -0.94268  -0.56527  -0.55579  -0.50284
 Alpha virt. eigenvalues --    0.28439   0.32447   0.35687   0.36575   0.90071
 Alpha virt. eigenvalues --    0.92012   0.97554   1.25239   1.33545   1.37030
 Alpha virt. eigenvalues --    1.40291   1.95199

 Mulliken charges:
               1
     1  C   -0.775825
     2  H    0.216437
     3  H    0.204917
     4  H    0.204871
     5  H    0.149600
 Sum of Mulliken charges =  -0.00000

 Dipole moment (field-independent basis, Debye):
    X=              0.0787    Y=             -0.0001    Z=              0.0310  Tot=              0.0846
 Quadrupole moment (field-independent basis, Debye-Ang):
   XX=             -8.6147   YY=             -8.3497   ZZ=             -8.3838
   XY=             -0.0011   XZ=             -0.0305   YZ=             -0.0005

 Normal termination of Gaussian 16 at Fri Sep 22 17:16:05 2023.
