 Gaussian 16, Revision A.03,
 Gaussian 16:  ES64L-G16RevA.03 25-Dec-2016

 ----------
 # hf/3-21g
 ----------

 ------------------------
 tmpdir/M2_conf_124_8.gjf
 ------------------------
 Symbolic Z-matrix:
 Charge =  0 Multiplicity = 1

                         Standard orientation:
 ---------------------------------------------------------------------
 Center     Atomic      Atomic             Coordinates (Angstroms)
 Number     Number       Type             X           Y           Z
 ---------------------------------------------------------------------
      1          1           0       -1.338815   -0.008751    1.061479
      2          6           0       -1.202782    0.000016   -0.003432
      3         17           0        0.689116    0.000058   -0.006429
      4          1           0       -1.579632   -0.888613   -0.473008
      5          1           0       -1.579825    0.896279   -0.458591
 ---------------------------------------------------------------------

 SCF Done:  E(RHF) =  -496.686129394     A.U. after   11 cycles

 The electronic state is 1-A.
 Alpha  occ. eigenvalues -- -104.08805 -11.24990 -10.48196  -7.94570  -7.94166
 Alpha  occ. eigenvalues --   -7.94165  -1.11366  -0.93313  -0.63406  -0.63196
 Alpha  occ. eigenvalues --   -0.51198  -0.43843  -0.43572
 Alpha virt. eigenvalues --    0.16395   0.27347   0.31373   0.31426   0.73869
 Alpha virt. eigenvalues --    0.80193   0.81025   0.85611   0.92668   0.94743
 Alpha virt. eigenvalues --    0.99937   1.30887   1.31182   1.32335   1.91498

 Mulliken charges:
               1
     1  H    0.275642
     2  C   -0.703656
     3  Cl  -0.107101
     4  H    0.267581
     5  H    0.267533
 Sum of Mulliken charges =  -0.00000

 Dipole moment (field-independent basis, Debye):
    X=             -2.8558    Y=             -0.0009    Z=              0.0890  Tot=              2.8572
 Quadrupole moment (field-independent basis, Debye-Ang):
   XX=            -18.5594   YY=            -20.1835   ZZ=            -20.2208
   XY=             -0.0020   XZ=              0.2403   YZ=              0.0000

 Normal termination of Gaussian 16 at Fri Sep 22 17:17:12 2023.
