 Gaussian 16, Revision A.03,
 Gaussian 16:  ES64L-G16RevA.03 25-Dec-2016

 ----------
 # hf/3-21g
 ----------

 ------------------------
 tmpdir/M2_conf_257_6.gjf
 ------------------------
 Symbolic Z-matrix:
 Charge =  0 Multiplicity = 1

                         Standard orientation:
 ---------------------------------------------------------------------
 Center     Atomic      Atomic             Coordinates (Angstroms)
 Number     Number       Type             X           Y           Z
 ---------------------------------------------------------------------
      1          1           0       -1.225658   -0.003673    1.066960
      2          6           0       -1.203549    0.000037   -0.006206
      3         17           0        0.688351    0.000026   -0.010490
      4          1           0       -1.627303    0.894189   -0.422784
      5          1           0       -1.627704   -0.891181   -0.428616
 ---------------------------------------------------------------------

 SCF Done:  E(RHF) =  -496.679743683     A.U. after   11 cycles

 The electronic state is 1-A.
 Alpha  occ. eigenvalues -- -104.08874 -11.24960 -10.48270  -7.94642  -7.94237
 Alpha  occ. eigenvalues --   -7.94234  -1.11541  -0.93268  -0.63626  -0.63172
 Alpha  occ. eigenvalues --   -0.50998  -0.43961  -0.43379
 Alpha virt. eigenvalues --    0.16027   0.27402   0.31394   0.31472   0.73945
 Alpha virt. eigenvalues --    0.79868   0.81048   0.85628   0.92429   0.95447
 Alpha virt. eigenvalues --    1.00500   1.30386   1.31164   1.32371   1.90548

 Mulliken charges:
               1
     1  H    0.279523
     2  C   -0.705006
     3  Cl  -0.107639
     4  H    0.266569
     5  H    0.266552
 Sum of Mulliken charges =   0.00000

 Dipole moment (field-independent basis, Debye):
    X=             -2.8347    Y=             -0.0005    Z=              0.1529  Tot=              2.8388
 Quadrupole moment (field-independent basis, Debye-Ang):
   XX=            -18.5426   YY=            -20.1824   ZZ=            -20.3006
   XY=             -0.0009   XZ=              0.3909   YZ=             -0.0001

 Normal termination of Gaussian 16 at Fri Sep 22 17:20:39 2023.
