 Gaussian 16, Revision A.03,
 Gaussian 16:  ES64L-G16RevA.03 25-Dec-2016

 ----------
 # hf/3-21g
 ----------

 ------------------------
 tmpdir/M2_conf_205_8.gjf
 ------------------------
 Symbolic Z-matrix:
 Charge =  0 Multiplicity = 1

                         Standard orientation:
 ---------------------------------------------------------------------
 Center     Atomic      Atomic             Coordinates (Angstroms)
 Number     Number       Type             X           Y           Z
 ---------------------------------------------------------------------
      1          1           0       -0.878865   -0.000398    1.002607
      2          6           0       -1.208322   -0.000010   -0.019193
      3         17           0        0.683581    0.000016   -0.019551
      4          1           0       -1.745891   -0.892378   -0.277799
      5          1           0       -1.746191    0.892572   -0.277287
 ---------------------------------------------------------------------

 SCF Done:  E(RHF) =  -496.633557049     A.U. after   11 cycles

 The electronic state is 1-A.
 Alpha  occ. eigenvalues -- -104.09473 -11.24549 -10.48961  -7.95322  -7.94906
 Alpha  occ. eigenvalues --   -7.94885  -1.13052  -0.92925  -0.64863  -0.63016
 Alpha  occ. eigenvalues --   -0.50412  -0.44715  -0.41882
 Alpha virt. eigenvalues --    0.14014   0.28138   0.31627   0.31740   0.74187
 Alpha virt. eigenvalues --    0.78773   0.80537   0.84685   0.93987   0.97239
 Alpha virt. eigenvalues --    1.02370   1.27780   1.31314   1.31631   1.85289

 Mulliken charges:
               1
     1  H    0.290136
     2  C   -0.710657
     3  Cl  -0.113105
     4  H    0.266835
     5  H    0.266791
 Sum of Mulliken charges =  -0.00000

 Dipole moment (field-independent basis, Debye):
    X=             -2.6443    Y=             -0.0002    Z=              0.3632  Tot=              2.6692
 Quadrupole moment (field-independent basis, Debye-Ang):
   XX=            -18.5223   YY=            -20.1626   ZZ=            -20.7831
   XY=             -0.0004   XZ=              0.7105   YZ=              0.0000

 Normal termination of Gaussian 16 at Fri Sep 22 17:19:20 2023.
