 Gaussian 16, Revision A.03,
 Gaussian 16:  ES64L-G16RevA.03 25-Dec-2016

 ----------
 # hf/3-21g
 ----------

 ------------------------
 tmpdir/M2_conf_245_9.gjf
 ------------------------
 Symbolic Z-matrix:
 Charge =  0 Multiplicity = 1

                         Standard orientation:
 ---------------------------------------------------------------------
 Center     Atomic      Atomic             Coordinates (Angstroms)
 Number     Number       Type             X           Y           Z
 ---------------------------------------------------------------------
      1          1           0        1.062596   -0.002669    1.052829
      2          6           0        1.205321    0.000028   -0.011238
      3         17           0       -0.686573    0.000037   -0.015516
      4          1           0        1.688654   -0.891604   -0.362775
      5          1           0        1.688563    0.893472   -0.358858
 ---------------------------------------------------------------------

 SCF Done:  E(RHF) =  -496.663794746     A.U. after   11 cycles

 The electronic state is 1-A.
 Alpha  occ. eigenvalues -- -104.09064 -11.24855 -10.48482  -7.94850  -7.94442
 Alpha  occ. eigenvalues --   -7.94434  -1.12017  -0.93155  -0.64101  -0.63128
 Alpha  occ. eigenvalues --   -0.50647  -0.44217  -0.42906
 Alpha virt. eigenvalues --    0.15231   0.27605   0.31461   0.31569   0.74081
 Alpha virt. eigenvalues --    0.79385   0.80868   0.85271   0.92964   0.96348
 Alpha virt. eigenvalues --    1.01422   1.29450   1.31189   1.32131   1.88410

 Mulliken charges:
               1
     1  H    0.284640
     2  C   -0.707082
     3  Cl  -0.109743
     4  H    0.266107
     5  H    0.266078
 Sum of Mulliken charges =   0.00000

 Dipole moment (field-independent basis, Debye):
    X=              2.7765    Y=             -0.0007    Z=              0.2479  Tot=              2.7875
 Quadrupole moment (field-independent basis, Debye-Ang):
   XX=            -18.5181   YY=            -20.1789   ZZ=            -20.4830
   XY=              0.0012   XZ=             -0.5759   YZ=             -0.0001

 Normal termination of Gaussian 16 at Fri Sep 22 17:20:21 2023.
