 Gaussian 16, Revision A.03,
 Gaussian 16:  ES64L-G16RevA.03 25-Dec-2016

 ----------
 # hf/3-21g
 ----------

 ------------------------
 tmpdir/M2_conf_100_8.gjf
 ------------------------
 Symbolic Z-matrix:
 Charge =  0 Multiplicity = 1

                         Standard orientation:
 ---------------------------------------------------------------------
 Center     Atomic      Atomic             Coordinates (Angstroms)
 Number     Number       Type             X           Y           Z
 ---------------------------------------------------------------------
      1          1           0       -1.422974   -0.040853    1.048293
      2          6           0       -1.202462    0.000052   -0.001620
      3         17           0        0.689437    0.000129   -0.003185
      4          1           0       -1.541255   -0.872627   -0.526814
      5          1           0       -1.541424    0.910981   -0.457615
 ---------------------------------------------------------------------

 SCF Done:  E(RHF) =  -496.688692804     A.U. after   11 cycles

 The electronic state is 1-A.
 Alpha  occ. eigenvalues -- -104.08780 -11.24999 -10.48169  -7.94544  -7.94140
 Alpha  occ. eigenvalues --   -7.94139  -1.11300  -0.93331  -0.63300  -0.63218
 Alpha  occ. eigenvalues --   -0.51292  -0.43777  -0.43667
 Alpha virt. eigenvalues --    0.16554   0.27334   0.31369   0.31398   0.73835
 Alpha virt. eigenvalues --    0.80440   0.80894   0.85534   0.93125   0.94197
 Alpha virt. eigenvalues --    0.99638   1.31145   1.31203   1.32249   1.91889

 Mulliken charges:
               1
     1  H    0.272685
     2  C   -0.702901
     3  Cl  -0.107039
     4  H    0.268652
     5  H    0.268604
 Sum of Mulliken charges =  -0.00000

 Dipole moment (field-independent basis, Debye):
    X=             -2.8639    Y=             -0.0018    Z=              0.0427  Tot=              2.8642
 Quadrupole moment (field-independent basis, Debye-Ang):
   XX=            -18.5676   YY=            -20.1825   ZZ=            -20.1887
   XY=             -0.0046   XZ=              0.1192   YZ=             -0.0001

 Normal termination of Gaussian 16 at Fri Sep 22 17:16:37 2023.
