 Gaussian 16, Revision A.03,
 Gaussian 16:  ES64L-G16RevA.03 25-Dec-2016

 ----------
 # hf/3-21g
 ----------

 ------------------------
 tmpdir/M2_conf_298_3.gjf
 ------------------------
 Symbolic Z-matrix:
 Charge =  0 Multiplicity = 1

                         Standard orientation:
 ---------------------------------------------------------------------
 Center     Atomic      Atomic             Coordinates (Angstroms)
 Number     Number       Type             X           Y           Z
 ---------------------------------------------------------------------
      1          6           0       -2.564318    0.000006    0.000008
      2         17           0        1.410582   -0.000007   -0.000001
      3          1           0       -2.864687   -0.278197    0.992265
      4          1           0       -2.864375    0.998714   -0.255263
      5          1           0       -2.864922   -0.720440   -0.737023
 ---------------------------------------------------------------------

 SCF Done:  E(RHF) =  -496.489077367     A.U. after   10 cycles

 The electronic state is 1-A.
 Alpha  occ. eigenvalues -- -103.98084 -11.39188 -10.36876  -7.83195  -7.83020
 Alpha  occ. eigenvalues --   -7.83020  -1.07365  -0.92153  -0.72611  -0.72606
 Alpha  occ. eigenvalues --   -0.34113  -0.34113  -0.30230
 Alpha virt. eigenvalues --   -0.12229   0.19298   0.23875   0.23879   0.75425
 Alpha virt. eigenvalues --    0.78145   0.78159   0.83614   0.90486   0.90486
 Alpha virt. eigenvalues --    0.94365   1.08659   1.20668   1.20677   1.61071

 Mulliken charges:
               1
     1  C   -0.335683
     2  Cl  -0.613475
     3  H    0.316388
     4  H    0.316398
     5  H    0.316372
 Sum of Mulliken charges =  -0.00000

 Dipole moment (field-independent basis, Debye):
    X=            -12.1115    Y=              0.0001    Z=              0.0000  Tot=             12.1115
 Quadrupole moment (field-independent basis, Debye-Ang):
   XX=             -3.3810   YY=            -20.3759   ZZ=            -20.3775
   XY=              0.0002   XZ=              0.0000   YZ=             -0.0001

 Normal termination of Gaussian 16 at Fri Sep 22 17:21:46 2023.
