 Gaussian 16, Revision A.03,
 Gaussian 16:  ES64L-G16RevA.03 25-Dec-2016

 ----------
 # hf/3-21g
 ----------

 -----------------------
 tmpdir/M2_conf_98_4.gjf
 -----------------------
 Symbolic Z-matrix:
 Charge =  0 Multiplicity = 1

                         Standard orientation:
 ---------------------------------------------------------------------
 Center     Atomic      Atomic             Coordinates (Angstroms)
 Number     Number       Type             X           Y           Z
 ---------------------------------------------------------------------
      1          1           0       -0.360080    0.963705   -0.353073
      2          6           0       -0.033319    0.001207   -0.008093
      3          1           0       -0.150593   -0.803426   -0.709110
      4          1           0       -0.457317   -0.259601    0.943121
      5          1           0        1.167905    0.092082    0.167622
 ---------------------------------------------------------------------

 SCF Done:  E(RHF) =  -39.9664298423     A.U. after    9 cycles

 The electronic state is 1-A.
 Alpha  occ. eigenvalues --  -11.15731  -0.93781  -0.56218  -0.55205  -0.50112
 Alpha virt. eigenvalues --    0.28329   0.32134   0.35496   0.35911   0.91492
 Alpha virt. eigenvalues --    0.92530   0.97518   1.25146   1.32247   1.36520
 Alpha virt. eigenvalues --    1.37520   1.94668

 Mulliken charges:
               1
     1  H    0.207470
     2  C   -0.771489
     3  H    0.207158
     4  H    0.206173
     5  H    0.150688
 Sum of Mulliken charges =  -0.00000

 Dipole moment (field-independent basis, Debye):
    X=             -0.0622    Y=             -0.0202    Z=              0.0012  Tot=              0.0654
 Quadrupole moment (field-independent basis, Debye-Ang):
   XX=             -8.6671   YY=             -8.2976   ZZ=             -8.4779
   XY=             -0.0433   XZ=             -0.0681   YZ=             -0.0072

 Normal termination of Gaussian 16 at Fri Sep 22 17:16:34 2023.
