 Gaussian 16, Revision A.03,
 Gaussian 16:  ES64L-G16RevA.03 25-Dec-2016

 ----------
 # hf/3-21g
 ----------

 ----------------------
 tmpdir/M2_conf_8_5.gjf
 ----------------------
 Symbolic Z-matrix:
 Charge =  0 Multiplicity = 1

                         Standard orientation:
 ---------------------------------------------------------------------
 Center     Atomic      Atomic             Coordinates (Angstroms)
 Number     Number       Type             X           Y           Z
 ---------------------------------------------------------------------
      1          1           0        1.072787    0.012841   -0.288013
      2          6           0        0.030662   -0.029701   -0.034335
      3          1           0       -0.826825   -0.169098   -0.665134
      4          1           0       -0.172623   -0.732835    0.751088
      5          1           0       -0.257313    1.067300    0.408067
 ---------------------------------------------------------------------

 SCF Done:  E(RHF) =  -39.9550019869     A.U. after    9 cycles

 The electronic state is 1-A.
 Alpha  occ. eigenvalues --  -11.15786  -0.93982  -0.58876  -0.53428  -0.48768
 Alpha virt. eigenvalues --    0.28256   0.30939   0.34703   0.36900   0.90024
 Alpha virt. eigenvalues --    0.96925   0.97333   1.25327   1.30952   1.35210
 Alpha virt. eigenvalues --    1.40629   1.94400

 Mulliken charges:
               1
     1  H    0.217368
     2  C   -0.791113
     3  H    0.218923
     4  H    0.206439
     5  H    0.148383
 Sum of Mulliken charges =   0.00000

 Dipole moment (field-independent basis, Debye):
    X=             -0.0776    Y=             -0.0641    Z=              0.0427  Tot=              0.1094
 Quadrupole moment (field-independent basis, Debye-Ang):
   XX=             -7.8219   YY=             -8.6765   ZZ=             -8.9908
   XY=              0.1014   XZ=              0.0251   YZ=             -0.1598

 Normal termination of Gaussian 16 at Fri Sep 22 17:14:19 2023.
