 Gaussian 16, Revision A.03,
 Gaussian 16:  ES64L-G16RevA.03 25-Dec-2016

 ----------
 # hf/3-21g
 ----------

 -----------------------
 tmpdir/M2_conf_89_6.gjf
 -----------------------
 Symbolic Z-matrix:
 Charge =  0 Multiplicity = 1

                         Standard orientation:
 ---------------------------------------------------------------------
 Center     Atomic      Atomic             Coordinates (Angstroms)
 Number     Number       Type             X           Y           Z
 ---------------------------------------------------------------------
      1          1           0       -1.324624   -0.007714    1.062661
      2          6           0       -1.202853    0.000045   -0.003781
      3         17           0        0.689041    0.000039   -0.006956
      4          1           0       -1.585760    0.896055   -0.454515
      5          1           0       -1.586194   -0.889280   -0.467202
 ---------------------------------------------------------------------

 SCF Done:  E(RHF) =  -496.685517379     A.U. after   11 cycles

 The electronic state is 1-A.
 Alpha  occ. eigenvalues -- -104.08812 -11.24987 -10.48203  -7.94577  -7.94173
 Alpha  occ. eigenvalues --   -7.94171  -1.11383  -0.93309  -0.63427  -0.63194
 Alpha  occ. eigenvalues --   -0.51178  -0.43856  -0.43552
 Alpha virt. eigenvalues --    0.16358   0.27352   0.31374   0.31430   0.73877
 Alpha virt. eigenvalues --    0.80153   0.81035   0.85622   0.92601   0.94844
 Alpha virt. eigenvalues --    1.00000   1.30821   1.31175   1.32363   1.91407

 Mulliken charges:
               1
     1  H    0.276175
     2  C   -0.703827
     3  Cl  -0.107128
     4  H    0.267400
     5  H    0.267381
 Sum of Mulliken charges =  -0.00000

 Dipole moment (field-independent basis, Debye):
    X=             -2.8538    Y=             -0.0007    Z=              0.0972  Tot=              2.8555
 Quadrupole moment (field-independent basis, Debye-Ang):
   XX=            -18.5575   YY=            -20.1825   ZZ=            -20.2296
   XY=             -0.0014   XZ=              0.2594   YZ=             -0.0002

 Normal termination of Gaussian 16 at Fri Sep 22 17:16:20 2023.
