 Gaussian 16, Revision A.03,
 Gaussian 16:  ES64L-G16RevA.03 25-Dec-2016

 ----------
 # hf/3-21g
 ----------

 ------------------------
 tmpdir/M2_conf_169_5.gjf
 ------------------------
 Symbolic Z-matrix:
 Charge =  0 Multiplicity = 1

                         Standard orientation:
 ---------------------------------------------------------------------
 Center     Atomic      Atomic             Coordinates (Angstroms)
 Number     Number       Type             X           Y           Z
 ---------------------------------------------------------------------
      1          1           0       -0.475716   -0.158999    0.941178
      2          6           0       -0.014971    0.022731   -0.011123
      3          1           0       -0.738109   -0.348467   -0.712482
      4          1           0        0.315998    1.038185   -0.120306
      5          1           0        0.987654   -0.667104   -0.041653
 ---------------------------------------------------------------------

 SCF Done:  E(RHF) =  -39.9646899395     A.U. after    9 cycles

 The electronic state is 1-A.
 Alpha  occ. eigenvalues --  -11.15720  -0.93845  -0.57051  -0.53723  -0.50625
 Alpha virt. eigenvalues --    0.28224   0.32338   0.34961   0.36211   0.90537
 Alpha virt. eigenvalues --    0.93340   0.98281   1.24813   1.32706   1.35309
 Alpha virt. eigenvalues --    1.38620   1.94249

 Mulliken charges:
               1
     1  H    0.204488
     2  C   -0.773386
     3  H    0.206689
     4  H    0.208170
     5  H    0.154039
 Sum of Mulliken charges =  -0.00000

 Dipole moment (field-independent basis, Debye):
    X=             -0.1029    Y=              0.0226    Z=              0.0570  Tot=              0.1198
 Quadrupole moment (field-independent basis, Debye-Ang):
   XX=             -8.3221   YY=             -8.4034   ZZ=             -8.7097
   XY=              0.2231   XZ=              0.0237   YZ=             -0.0115

 Normal termination of Gaussian 16 at Fri Sep 22 17:18:20 2023.
