 Gaussian 16, Revision A.03,
 Gaussian 16:  ES64L-G16RevA.03 25-Dec-2016

 ----------
 # hf/3-21g
 ----------

 -----------------------
 tmpdir/M2_conf_41_6.gjf
 -----------------------
 Symbolic Z-matrix:
 Charge =  0 Multiplicity = 1

                         Standard orientation:
 ---------------------------------------------------------------------
 Center     Atomic      Atomic             Coordinates (Angstroms)
 Number     Number       Type             X           Y           Z
 ---------------------------------------------------------------------
      1          1           0       -1.643063   -0.005953    0.981952
      2          6           0       -1.202693    0.000003    0.003062
      3         17           0        0.689206   -0.000048    0.005733
      4          1           0       -1.428385    0.896053   -0.543535
      5          1           0       -1.428898   -0.889295   -0.554244
 ---------------------------------------------------------------------

 SCF Done:  E(RHF) =  -496.686957611     A.U. after   11 cycles

 The electronic state is 1-A.
 Alpha  occ. eigenvalues -- -104.08794 -11.24995 -10.48184  -7.94558  -7.94154
 Alpha  occ. eigenvalues --   -7.94154  -1.11340  -0.93319  -0.63308  -0.63270
 Alpha  occ. eigenvalues --   -0.51218  -0.43766  -0.43655
 Alpha virt. eigenvalues --    0.16427   0.27328   0.31360   0.31439   0.73856
 Alpha virt. eigenvalues --    0.80196   0.81134   0.85634   0.92659   0.94485
 Alpha virt. eigenvalues --    1.00012   1.30838   1.31286   1.32400   1.91661

 Mulliken charges:
               1
     1  H    0.265315
     2  C   -0.703958
     3  Cl  -0.106694
     4  H    0.272681
     5  H    0.272656
 Sum of Mulliken charges =  -0.00000

 Dipole moment (field-independent basis, Debye):
    X=             -2.8589    Y=              0.0005    Z=             -0.0731  Tot=              2.8598
 Quadrupole moment (field-independent basis, Debye-Ang):
   XX=            -18.5604   YY=            -20.1768   ZZ=            -20.2176
   XY=              0.0019   XZ=             -0.2153   YZ=             -0.0001

 Normal termination of Gaussian 16 at Fri Sep 22 17:15:09 2023.
