 Gaussian 16, Revision A.03,
 Gaussian 16:  ES64L-G16RevA.03 25-Dec-2016

 ----------
 # hf/3-21g
 ----------

 ------------------------
 tmpdir/M2_conf_296_1.gjf
 ------------------------
 Symbolic Z-matrix:
 Charge =  0 Multiplicity = 1

                         Standard orientation:
 ---------------------------------------------------------------------
 Center     Atomic      Atomic             Coordinates (Angstroms)
 Number     Number       Type             X           Y           Z
 ---------------------------------------------------------------------
      1          6           0       -0.030939   -0.004191    0.000058
      2          1           0       -0.421364    1.013881   -0.008401
      3          1           0       -0.287010   -0.534890    0.897257
      4          1           0       -0.288265   -0.550470   -0.887618
      5          1           0        1.182275    0.096623   -0.001587
 ---------------------------------------------------------------------

 SCF Done:  E(RHF) =  -39.9669027686     A.U. after    9 cycles

 The electronic state is 1-A.
 Alpha  occ. eigenvalues --  -11.15922  -0.93593  -0.55662  -0.55279  -0.50258
 Alpha virt. eigenvalues --    0.28255   0.32110   0.35351   0.35687   0.91875
 Alpha virt. eigenvalues --    0.92654   0.97717   1.24981   1.31689   1.36016
 Alpha virt. eigenvalues --    1.36903   1.94449

 Mulliken charges:
               1
     1  C   -0.768253
     2  H    0.202096
     3  H    0.207080
     4  H    0.207025
     5  H    0.152053
 Sum of Mulliken charges =   0.00000

 Dipole moment (field-independent basis, Debye):
    X=             -0.0650    Y=             -0.0157    Z=              0.0003  Tot=              0.0669
 Quadrupole moment (field-independent basis, Debye-Ang):
   XX=             -8.6703   YY=             -8.3961   ZZ=             -8.4073
   XY=             -0.0248   XZ=              0.0004   YZ=              0.0002

 Normal termination of Gaussian 16 at Fri Sep 22 17:21:43 2023.
