 Gaussian 16, Revision A.03,
 Gaussian 16:  ES64L-G16RevA.03 25-Dec-2016

 ----------
 # hf/3-21g
 ----------

 ------------------------
 tmpdir/M2_conf_213_8.gjf
 ------------------------
 Symbolic Z-matrix:
 Charge =  0 Multiplicity = 1

                         Standard orientation:
 ---------------------------------------------------------------------
 Center     Atomic      Atomic             Coordinates (Angstroms)
 Number     Number       Type             X           Y           Z
 ---------------------------------------------------------------------
      1          1           0       -0.704926   -0.000167    0.916081
      2          6           0       -1.212258   -0.000014   -0.030086
      3         17           0        0.679626    0.000012   -0.021171
      4          1           0       -1.787421   -0.892456   -0.187924
      5          1           0       -1.787751    0.892494   -0.187742
 ---------------------------------------------------------------------

 SCF Done:  E(RHF) =  -496.587637300     A.U. after   12 cycles

 The electronic state is 1-A.
 Alpha  occ. eigenvalues -- -104.10205 -11.23842 -10.49853  -7.96207  -7.95771
 Alpha  occ. eigenvalues --   -7.95730  -1.14950  -0.92522  -0.65849  -0.62743
 Alpha  occ. eigenvalues --   -0.50719  -0.45561  -0.40081
 Alpha virt. eigenvalues --    0.12626   0.29170   0.32022   0.32049   0.74093
 Alpha virt. eigenvalues --    0.78032   0.80226   0.84491   0.94038   0.97962
 Alpha virt. eigenvalues --    1.03121   1.24699   1.31141   1.31664   1.82417

 Mulliken charges:
               1
     1  H    0.294576
     2  C   -0.720721
     3  Cl  -0.110908
     4  H    0.268547
     5  H    0.268506
 Sum of Mulliken charges =   0.00000

 Dipole moment (field-independent basis, Debye):
    X=             -2.3819    Y=             -0.0002    Z=              0.4948  Tot=              2.4327
 Quadrupole moment (field-independent basis, Debye-Ang):
   XX=            -18.6177   YY=            -20.1180   ZZ=            -21.1534
   XY=             -0.0003   XZ=              0.7094   YZ=              0.0000

 Normal termination of Gaussian 16 at Fri Sep 22 17:19:32 2023.
