 Gaussian 16, Revision A.03,
 Gaussian 16:  ES64L-G16RevA.03 25-Dec-2016

 ----------
 # hf/3-21g
 ----------

 -----------------------
 tmpdir/M2_conf_93_0.gjf
 -----------------------
 Symbolic Z-matrix:
 Charge =  0 Multiplicity = 1

                         Standard orientation:
 ---------------------------------------------------------------------
 Center     Atomic      Atomic             Coordinates (Angstroms)
 Number     Number       Type             X           Y           Z
 ---------------------------------------------------------------------
      1          6           0       -0.032258    0.000055    0.014246
      2          1           0       -0.146908   -0.001187    0.990435
      3          1           0       -0.411480    0.894425   -0.442829
      4          1           0       -0.416332   -0.890951   -0.445318
      5          1           0        1.168267   -0.002617   -0.187762
 ---------------------------------------------------------------------

 SCF Done:  E(RHF) =  -39.9591199381     A.U. after    9 cycles

 The electronic state is 1-A.
 Alpha  occ. eigenvalues --  -11.14676  -0.94966  -0.57628  -0.55515  -0.50289
 Alpha virt. eigenvalues --    0.28541   0.32612   0.35680   0.37724   0.87798
 Alpha virt. eigenvalues --    0.92143   0.97565   1.25400   1.34181   1.37108
 Alpha virt. eigenvalues --    1.45695   1.96074

 Mulliken charges:
               1
     1  C   -0.780568
     2  H    0.227631
     3  H    0.202798
     4  H    0.202791
     5  H    0.147347
 Sum of Mulliken charges =  -0.00000

 Dipole moment (field-independent basis, Debye):
    X=             -0.0845    Y=              0.0002    Z=              0.0610  Tot=              0.1042
 Quadrupole moment (field-independent basis, Debye-Ang):
   XX=             -8.5596   YY=             -8.2983   ZZ=             -8.3763
   XY=              0.0011   XZ=              0.0456   YZ=             -0.0004

 Normal termination of Gaussian 16 at Fri Sep 22 17:16:26 2023.
