 Gaussian 16, Revision A.03,
 Gaussian 16:  ES64L-G16RevA.03 25-Dec-2016

 ----------
 # hf/3-21g
 ----------

 ------------------------
 tmpdir/M2_conf_233_9.gjf
 ------------------------
 Symbolic Z-matrix:
 Charge =  0 Multiplicity = 1

                         Standard orientation:
 ---------------------------------------------------------------------
 Center     Atomic      Atomic             Coordinates (Angstroms)
 Number     Number       Type             X           Y           Z
 ---------------------------------------------------------------------
      1          1           0        1.105647   -0.003253    1.059254
      2          6           0        1.204772    0.000030   -0.009755
      3         17           0       -0.687119    0.000041   -0.014303
      4          1           0        1.673431   -0.891352   -0.381229
      5          1           0        1.673313    0.893721   -0.376350
 ---------------------------------------------------------------------

 SCF Done:  E(RHF) =  -496.668867472     A.U. after   11 cycles

 The electronic state is 1-A.
 Alpha  occ. eigenvalues -- -104.09001 -11.24893 -10.48411  -7.94780  -7.94374
 Alpha  occ. eigenvalues --   -7.94367  -1.11860  -0.93191  -0.63958  -0.63142
 Alpha  occ. eigenvalues --   -0.50738  -0.44136  -0.43061
 Alpha virt. eigenvalues --    0.15469   0.27532   0.31438   0.31541   0.74045
 Alpha virt. eigenvalues --    0.79515   0.80933   0.85402   0.92748   0.96118
 Alpha virt. eigenvalues --    1.01178   1.29733   1.31178   1.32214   1.89051

 Mulliken charges:
               1
     1  H    0.283313
     2  C   -0.706514
     3  Cl  -0.109025
     4  H    0.266127
     5  H    0.266099
 Sum of Mulliken charges =   0.00000

 Dipole moment (field-independent basis, Debye):
    X=              2.7958    Y=             -0.0007    Z=              0.2223  Tot=              2.8046
 Quadrupole moment (field-independent basis, Debye-Ang):
   XX=            -18.5235   YY=            -20.1807   ZZ=            -20.4269
   XY=              0.0013   XZ=             -0.5319   YZ=             -0.0001

 Normal termination of Gaussian 16 at Fri Sep 22 17:20:02 2023.
