 Gaussian 16, Revision A.03,
 Gaussian 16:  ES64L-G16RevA.03 25-Dec-2016

 ----------
 # hf/3-21g
 ----------

 ------------------------
 tmpdir/M2_conf_252_0.gjf
 ------------------------
 Symbolic Z-matrix:
 Charge =  0 Multiplicity = 1

                         Standard orientation:
 ---------------------------------------------------------------------
 Center     Atomic      Atomic             Coordinates (Angstroms)
 Number     Number       Type             X           Y           Z
 ---------------------------------------------------------------------
      1          6           0        0.023862   -0.019068    0.000056
      2          1           0        0.818088    0.784596    0.002141
      3          1           0        0.040299   -0.615256    0.892756
      4          1           0        0.045339   -0.615114   -0.892621
      5          1           0       -1.046901    0.560182   -0.002612
 ---------------------------------------------------------------------

 SCF Done:  E(RHF) =  -39.9654226510     A.U. after    9 cycles

 The electronic state is 1-A.
 Alpha  occ. eigenvalues --  -11.16384  -0.93203  -0.55731  -0.54451  -0.50212
 Alpha virt. eigenvalues --    0.28061   0.31736   0.34663   0.35686   0.91802
 Alpha virt. eigenvalues --    0.94167   0.98124   1.24690   1.29324   1.34773
 Alpha virt. eigenvalues --    1.36799   1.93999

 Mulliken charges:
               1
     1  C   -0.761809
     2  H    0.191474
     3  H    0.208355
     4  H    0.208352
     5  H    0.153628
 Sum of Mulliken charges =   0.00000

 Dipole moment (field-independent basis, Debye):
    X=              0.0306    Y=             -0.0579    Z=              0.0001  Tot=              0.0655
 Quadrupole moment (field-independent basis, Debye-Ang):
   XX=             -8.6320   YY=             -8.4801   ZZ=             -8.4441
   XY=              0.1317   XZ=             -0.0012   YZ=              0.0003

 Normal termination of Gaussian 16 at Fri Sep 22 17:20:31 2023.
