 Gaussian 16, Revision A.03,
 Gaussian 16:  ES64L-G16RevA.03 25-Dec-2016

 ----------
 # hf/3-21g
 ----------

 ------------------------
 tmpdir/M2_conf_135_1.gjf
 ------------------------
 Symbolic Z-matrix:
 Charge =  0 Multiplicity = 1

                         Standard orientation:
 ---------------------------------------------------------------------
 Center     Atomic      Atomic             Coordinates (Angstroms)
 Number     Number       Type             X           Y           Z
 ---------------------------------------------------------------------
      1          6           0       -0.026141   -0.015993    0.000059
      2          1           0       -0.730616    0.857914   -0.002958
      3          1           0       -0.104947   -0.604051    0.894574
      4          1           0       -0.105015   -0.610588   -0.890357
      5          1           0        1.097424    0.452681   -0.001612
 ---------------------------------------------------------------------

 SCF Done:  E(RHF) =  -39.9658310701     A.U. after    9 cycles

 The electronic state is 1-A.
 Alpha  occ. eigenvalues --  -11.16296  -0.93274  -0.55716  -0.54608  -0.50222
 Alpha virt. eigenvalues --    0.28104   0.31816   0.34783   0.35687   0.91806
 Alpha virt. eigenvalues --    0.93918   0.98014   1.24760   1.29793   1.34949
 Alpha virt. eigenvalues --    1.36823   1.94084

 Mulliken charges:
               1
     1  C   -0.763115
     2  H    0.193511
     3  H    0.208162
     4  H    0.208107
     5  H    0.153335
 Sum of Mulliken charges =  -0.00000

 Dipole moment (field-independent basis, Debye):
    X=             -0.0403    Y=             -0.0507    Z=              0.0003  Tot=              0.0648
 Quadrupole moment (field-independent basis, Debye-Ang):
   XX=             -8.6522   YY=             -8.4505   ZZ=             -8.4379
   XY=             -0.1111   XZ=              0.0004   YZ=              0.0003

 Normal termination of Gaussian 16 at Fri Sep 22 17:17:29 2023.
