 Gaussian 16, Revision A.03,
 Gaussian 16:  ES64L-G16RevA.03 25-Dec-2016

 ----------
 # hf/3-21g
 ----------

 -----------------------
 tmpdir/M2_conf_35_9.gjf
 -----------------------
 Symbolic Z-matrix:
 Charge =  0 Multiplicity = 1

                         Standard orientation:
 ---------------------------------------------------------------------
 Center     Atomic      Atomic             Coordinates (Angstroms)
 Number     Number       Type             X           Y           Z
 ---------------------------------------------------------------------
      1          1           0        1.624363   -0.023437    0.989620
      2          6           0        1.202606   -0.000048    0.002608
      3         17           0       -0.689295   -0.000128    0.004967
      4          1           0        1.439214   -0.879343   -0.565769
      5          1           0        1.438802    0.905247   -0.523945
 ---------------------------------------------------------------------

 SCF Done:  E(RHF) =  -496.687597658     A.U. after   11 cycles

 The electronic state is 1-A.
 Alpha  occ. eigenvalues -- -104.08789 -11.24996 -10.48178  -7.94553  -7.94148
 Alpha  occ. eigenvalues --   -7.94148  -1.11325  -0.93323  -0.63299  -0.63256
 Alpha  occ. eigenvalues --   -0.51245  -0.43766  -0.43664
 Alpha virt. eigenvalues --    0.16473   0.27330   0.31363   0.31424   0.73848
 Alpha virt. eigenvalues --    0.80264   0.81070   0.85600   0.92790   0.94406
 Alpha virt. eigenvalues --    0.99886   1.30904   1.31282   1.32365   1.91746

 Mulliken charges:
               1
     1  H    0.265842
     2  C   -0.703595
     3  Cl  -0.106802
     4  H    0.272287
     5  H    0.272268
 Sum of Mulliken charges =  -0.00000

 Dipole moment (field-independent basis, Debye):
    X=              2.8608    Y=              0.0015    Z=             -0.0636  Tot=              2.8615
 Quadrupole moment (field-independent basis, Debye-Ang):
   XX=            -18.5627   YY=            -20.1779   ZZ=            -20.2082
   XY=             -0.0051   XZ=              0.1861   YZ=              0.0001

 Normal termination of Gaussian 16 at Fri Sep 22 17:14:59 2023.
