 Gaussian 16, Revision A.03,
 Gaussian 16:  ES64L-G16RevA.03 25-Dec-2016

 ----------
 # hf/3-21g
 ----------

 ------------------------
 tmpdir/M2_conf_197_8.gjf
 ------------------------
 Symbolic Z-matrix:
 Charge =  0 Multiplicity = 1

                         Standard orientation:
 ---------------------------------------------------------------------
 Center     Atomic      Atomic             Coordinates (Angstroms)
 Number     Number       Type             X           Y           Z
 ---------------------------------------------------------------------
      1          1           0        0.603695    0.000092    0.844049
      2          6           0        1.215125    0.000016   -0.038431
      3         17           0       -0.676689   -0.000011   -0.020808
      4          1           0        1.804467    0.892476   -0.129911
      5          1           0        1.804809   -0.892474   -0.129823
 ---------------------------------------------------------------------

 SCF Done:  E(RHF) =  -496.549712571     A.U. after   12 cycles

 The electronic state is 1-A.
 Alpha  occ. eigenvalues -- -104.10928 -11.23066 -10.50737  -7.97092  -7.96628
 Alpha  occ. eigenvalues --   -7.96571  -1.16831  -0.92134  -0.66596  -0.62426
 Alpha  occ. eigenvalues --   -0.51297  -0.46333  -0.38507
 Alpha virt. eigenvalues --    0.11770   0.30133   0.32371   0.32566   0.73850
 Alpha virt. eigenvalues --    0.77457   0.79920   0.84472   0.92864   0.98346
 Alpha virt. eigenvalues --    1.03619   1.21996   1.31231   1.32078   1.81297

 Mulliken charges:
               1
     1  H    0.294884
     2  C   -0.734787
     3  Cl  -0.099630
     4  H    0.269786
     5  H    0.269747
 Sum of Mulliken charges =  -0.00000

 Dipole moment (field-independent basis, Debye):
    X=              2.1032    Y=              0.0001    Z=              0.5965  Tot=              2.1862
 Quadrupole moment (field-independent basis, Debye-Ang):
   XX=            -18.7493   YY=            -20.0623   ZZ=            -21.4045
   XY=             -0.0003   XZ=             -0.6006   YZ=             -0.0000

 Normal termination of Gaussian 16 at Fri Sep 22 17:19:08 2023.
