 Gaussian 16, Revision A.03,
 Gaussian 16:  ES64L-G16RevA.03 25-Dec-2016

 ----------
 # hf/3-21g
 ----------

 ----------------------
 tmpdir/M2_conf_8_9.gjf
 ----------------------
 Symbolic Z-matrix:
 Charge =  0 Multiplicity = 1

                         Standard orientation:
 ---------------------------------------------------------------------
 Center     Atomic      Atomic             Coordinates (Angstroms)
 Number     Number       Type             X           Y           Z
 ---------------------------------------------------------------------
      1          1           0        1.358773   -0.022147    1.058933
      2          6           0        1.202682    0.000071   -0.003027
      3         17           0       -0.689215    0.000112   -0.005672
      4          1           0        1.571030   -0.882441   -0.490561
      5          1           0        1.570762    0.902260   -0.453779
 ---------------------------------------------------------------------

 SCF Done:  E(RHF) =  -496.686898161     A.U. after   11 cycles

 The electronic state is 1-A.
 Alpha  occ. eigenvalues -- -104.08798 -11.24992 -10.48188  -7.94562  -7.94158
 Alpha  occ. eigenvalues --   -7.94157  -1.11346  -0.93319  -0.63373  -0.63203
 Alpha  occ. eigenvalues --   -0.51226  -0.43827  -0.43597
 Alpha virt. eigenvalues --    0.16441   0.27343   0.31370   0.31420   0.73859
 Alpha virt. eigenvalues --    0.80251   0.81002   0.85593   0.92757   0.94620
 Alpha virt. eigenvalues --    0.99854   1.30954   1.31188   1.32321   1.91616

 Mulliken charges:
               1
     1  H    0.274940
     2  C   -0.703457
     3  Cl  -0.107055
     4  H    0.267798
     5  H    0.267774
 Sum of Mulliken charges =   0.00000

 Dipole moment (field-independent basis, Debye):
    X=              2.8582    Y=             -0.0017    Z=              0.0781  Tot=              2.8593
 Quadrupole moment (field-independent basis, Debye-Ang):
   XX=            -18.5615   YY=            -20.1829   ZZ=            -20.2117
   XY=              0.0039   XZ=             -0.2119   YZ=             -0.0002

 Normal termination of Gaussian 16 at Fri Sep 22 17:14:19 2023.
