 Gaussian 16, Revision A.03,
 Gaussian 16:  ES64L-G16RevA.03 25-Dec-2016

 ----------
 # hf/3-21g
 ----------

 ------------------------
 tmpdir/M2_conf_269_3.gjf
 ------------------------
 Symbolic Z-matrix:
 Charge =  0 Multiplicity = 1

                         Standard orientation:
 ---------------------------------------------------------------------
 Center     Atomic      Atomic             Coordinates (Angstroms)
 Number     Number       Type             X           Y           Z
 ---------------------------------------------------------------------
      1          6           0       -2.497037    0.000007    0.000008
      2         17           0        1.374963   -0.000007   -0.000002
      3          1           0       -2.797406   -0.278197    0.992265
      4          1           0       -2.797094    0.998714   -0.255263
      5          1           0       -2.797642   -0.720439   -0.737023
 ---------------------------------------------------------------------

 SCF Done:  E(RHF) =  -496.494787307     A.U. after   10 cycles

 The electronic state is 1-A.
 Alpha  occ. eigenvalues -- -103.98529 -11.38924 -10.37308  -7.83627  -7.83449
 Alpha  occ. eigenvalues --   -7.83449  -1.07073  -0.92515  -0.72316  -0.72311
 Alpha  occ. eigenvalues --   -0.34465  -0.34465  -0.30701
 Alpha virt. eigenvalues --   -0.11727   0.19539   0.24132   0.24136   0.74828
 Alpha virt. eigenvalues --    0.78393   0.78406   0.83532   0.90233   0.90233
 Alpha virt. eigenvalues --    0.95061   1.09186   1.20939   1.20948   1.61491

 Mulliken charges:
               1
     1  C   -0.336442
     2  Cl  -0.608191
     3  H    0.314880
     4  H    0.314889
     5  H    0.314863
 Sum of Mulliken charges =   0.00000

 Dipole moment (field-independent basis, Debye):
    X=            -11.6969    Y=              0.0001    Z=              0.0000  Tot=             11.6969
 Quadrupole moment (field-independent basis, Debye-Ang):
   XX=             -4.2014   YY=            -20.3785   ZZ=            -20.3801
   XY=              0.0002   XZ=              0.0000   YZ=             -0.0001

 Normal termination of Gaussian 16 at Fri Sep 22 17:20:57 2023.
