 Gaussian 16, Revision A.03,
 Gaussian 16:  ES64L-G16RevA.03 25-Dec-2016

 ----------
 # hf/3-21g
 ----------

 ------------------------
 tmpdir/M2_conf_264_8.gjf
 ------------------------
 Symbolic Z-matrix:
 Charge =  0 Multiplicity = 1

                         Standard orientation:
 ---------------------------------------------------------------------
 Center     Atomic      Atomic             Coordinates (Angstroms)
 Number     Number       Type             X           Y           Z
 ---------------------------------------------------------------------
      1          1           0        0.371020    0.000000    0.585954
      2          6           0        1.224046    0.000021   -0.065939
      3         17           0       -0.667151   -0.000009   -0.014513
      4          1           0        1.812956    0.892490    0.028205
      5          1           0        1.813311   -0.892460    0.028199
 ---------------------------------------------------------------------

 SCF Done:  E(RHF) =  -496.405412483     A.U. after   12 cycles

 The electronic state is 1-A.
 Alpha  occ. eigenvalues -- -104.14636 -11.19454 -10.54983  -8.01412  -8.00733
 Alpha  occ. eigenvalues --   -8.00675  -1.26296  -0.90610  -0.69269  -0.61028
 Alpha  occ. eigenvalues --   -0.54173  -0.49258  -0.33310
 Alpha virt. eigenvalues --    0.10270   0.32783   0.33976   0.37516   0.69802
 Alpha virt. eigenvalues --    0.73097   0.75230   0.79097   0.92753   0.99394
 Alpha virt. eigenvalues --    1.05622   1.22389   1.34211   1.35518   1.82553

 Mulliken charges:
               1
     1  H    0.248106
     2  C   -0.818380
     3  Cl   0.029609
     4  H    0.270348
     5  H    0.270317
 Sum of Mulliken charges =  -0.00000

 Dipole moment (field-independent basis, Debye):
    X=              0.6563    Y=              0.0000    Z=              1.0716  Tot=              1.2566
 Quadrupole moment (field-independent basis, Debye-Ang):
   XX=            -19.2741   YY=            -19.7332   ZZ=            -22.1520
   XY=             -0.0003   XZ=              0.4525   YZ=              0.0001

 Normal termination of Gaussian 16 at Fri Sep 22 17:20:50 2023.
