 Gaussian 16, Revision A.03,
 Gaussian 16:  ES64L-G16RevA.03 25-Dec-2016

 ----------
 # hf/3-21g
 ----------

 ------------------------
 tmpdir/M2_conf_145_6.gjf
 ------------------------
 Symbolic Z-matrix:
 Charge =  0 Multiplicity = 1

                         Standard orientation:
 ---------------------------------------------------------------------
 Center     Atomic      Atomic             Coordinates (Angstroms)
 Number     Number       Type             X           Y           Z
 ---------------------------------------------------------------------
      1          1           0       -1.184863   -0.002926    1.065902
      2          6           0       -1.203918    0.000035   -0.007324
      3         17           0        0.687980    0.000023   -0.011850
      4          1           0       -1.643451    0.893850   -0.407970
      5          1           0       -1.643839   -0.891524   -0.412541
 ---------------------------------------------------------------------

 SCF Done:  E(RHF) =  -496.676552332     A.U. after   11 cycles

 The electronic state is 1-A.
 Alpha  occ. eigenvalues -- -104.08910 -11.24943 -10.48310  -7.94681  -7.94276
 Alpha  occ. eigenvalues --   -7.94272  -1.11633  -0.93246  -0.63728  -0.63163
 Alpha  occ. eigenvalues --   -0.50911  -0.44013  -0.43287
 Alpha virt. eigenvalues --    0.15856   0.27437   0.31406   0.31493   0.73978
 Alpha virt. eigenvalues --    0.79750   0.81021   0.85580   0.92476   0.95684
 Alpha virt. eigenvalues --    1.00726   1.30178   1.31163   1.32341   1.90092

 Mulliken charges:
               1
     1  H    0.280855
     2  C   -0.705515
     3  Cl  -0.108014
     4  H    0.266345
     5  H    0.266329
 Sum of Mulliken charges =  -0.00000

 Dipole moment (field-independent basis, Debye):
    X=             -2.8237    Y=             -0.0004    Z=              0.1763  Tot=              2.8292
 Quadrupole moment (field-independent basis, Debye-Ang):
   XX=            -18.5359   YY=            -20.1820   ZZ=            -20.3388
   XY=             -0.0008   XZ=              0.4413   YZ=             -0.0001

 Normal termination of Gaussian 16 at Fri Sep 22 17:17:44 2023.
