 Gaussian 16, Revision A.03,
 Gaussian 16:  ES64L-G16RevA.03 25-Dec-2016

 ----------
 # hf/3-21g
 ----------

 ------------------------
 tmpdir/M2_conf_266_8.gjf
 ------------------------
 Symbolic Z-matrix:
 Charge =  0 Multiplicity = 1

                         Standard orientation:
 ---------------------------------------------------------------------
 Center     Atomic      Atomic             Coordinates (Angstroms)
 Number     Number       Type             X           Y           Z
 ---------------------------------------------------------------------
      1          1           0        0.412818    0.000011    0.645560
      2          6           0        1.222126    0.000020   -0.059875
      3         17           0       -0.669275   -0.000010   -0.016390
      4          1           0        1.815873    0.892490   -0.003838
      5          1           0        1.816228   -0.892460   -0.003836
 ---------------------------------------------------------------------

 SCF Done:  E(RHF) =  -496.440898613     A.U. after   12 cycles

 The electronic state is 1-A.
 Alpha  occ. eigenvalues -- -104.13660 -11.20307 -10.53897  -8.00298  -7.99686
 Alpha  occ. eigenvalues --   -7.99620  -1.23751  -0.90923  -0.68645  -0.61315
 Alpha  occ. eigenvalues --   -0.53474  -0.48625  -0.34359
 Alpha virt. eigenvalues --    0.10411   0.32332   0.33572   0.36034   0.72161
 Alpha virt. eigenvalues --    0.75195   0.75767   0.79949   0.91788   0.99163
 Alpha virt. eigenvalues --    1.05127   1.20811   1.33684   1.33935   1.81783

 Mulliken charges:
               1
     1  H    0.267307
     2  C   -0.797192
     3  Cl  -0.012150
     4  H    0.271034
     5  H    0.271001
 Sum of Mulliken charges =  -0.00000

 Dipole moment (field-independent basis, Debye):
    X=              1.0321    Y=              0.0000    Z=              0.9377  Tot=              1.3944
 Quadrupole moment (field-independent basis, Debye-Ang):
   XX=            -19.1805   YY=            -19.8210   ZZ=            -21.9845
   XY=             -0.0003   XZ=              0.1209   YZ=              0.0000

 Normal termination of Gaussian 16 at Fri Sep 22 17:20:53 2023.
