 Gaussian 16, Revision A.03,
 Gaussian 16:  ES64L-G16RevA.03 25-Dec-2016

 ----------
 # hf/3-21g
 ----------

 ------------------------
 tmpdir/M2_conf_161_4.gjf
 ------------------------
 Symbolic Z-matrix:
 Charge =  0 Multiplicity = 1

                         Standard orientation:
 ---------------------------------------------------------------------
 Center     Atomic      Atomic             Coordinates (Angstroms)
 Number     Number       Type             X           Y           Z
 ---------------------------------------------------------------------
      1          1           0       -1.019578    0.218272   -0.340247
      2          6           0       -0.024753   -0.026123   -0.019648
      3          1           0        0.695252   -0.421536   -0.710927
      4          1           0       -0.016804   -0.662382    0.845058
      5          1           0        0.489649    1.022384    0.324003
 ---------------------------------------------------------------------

 SCF Done:  E(RHF) =  -39.9638445189     A.U. after    9 cycles

 The electronic state is 1-A.
 Alpha  occ. eigenvalues --  -11.15748  -0.93823  -0.57266  -0.54447  -0.49729
 Alpha virt. eigenvalues --    0.28326   0.31835   0.35148   0.36311   0.90785
 Alpha virt. eigenvalues --    0.93938   0.97366   1.25274   1.31776   1.35887
 Alpha virt. eigenvalues --    1.38637   1.94614

 Mulliken charges:
               1
     1  H    0.210123
     2  C   -0.775710
     3  H    0.209908
     4  H    0.206036
     5  H    0.149643
 Sum of Mulliken charges =  -0.00000

 Dipole moment (field-independent basis, Debye):
    X=              0.0155    Y=             -0.0678    Z=              0.0131  Tot=              0.0708
 Quadrupole moment (field-independent basis, Debye-Ang):
   XX=             -8.1838   YY=             -8.6011   ZZ=             -8.6711
   XY=             -0.1906   XZ=             -0.0504   YZ=             -0.1196

 Normal termination of Gaussian 16 at Fri Sep 22 17:18:08 2023.
