 Gaussian 16, Revision A.03,
 Gaussian 16:  ES64L-G16RevA.03 25-Dec-2016

 ----------
 # hf/3-21g
 ----------

 ------------------------
 tmpdir/M2_conf_277_4.gjf
 ------------------------
 Symbolic Z-matrix:
 Charge =  0 Multiplicity = 1

                         Standard orientation:
 ---------------------------------------------------------------------
 Center     Atomic      Atomic             Coordinates (Angstroms)
 Number     Number       Type             X           Y           Z
 ---------------------------------------------------------------------
      1          1           0       -1.033728    0.153778   -0.336761
      2          6           0       -0.023949   -0.027447   -0.021023
      3          1           0        0.729060   -0.363962   -0.708303
      4          1           0        0.028876   -0.673617    0.834710
      5          1           0        0.419484    1.048483    0.336490
 ---------------------------------------------------------------------

 SCF Done:  E(RHF) =  -39.9633203081     A.U. after    9 cycles

 The electronic state is 1-A.
 Alpha  occ. eigenvalues --  -11.15750  -0.93832  -0.57407  -0.54349  -0.49666
 Alpha virt. eigenvalues --    0.28324   0.31780   0.35103   0.36364   0.90700
 Alpha virt. eigenvalues --    0.94160   0.97351   1.25289   1.31706   1.35814
 Alpha virt. eigenvalues --    1.38796   1.94600

 Mulliken charges:
               1
     1  H    0.210584
     2  C   -0.776592
     3  H    0.210446
     4  H    0.206046
     5  H    0.149517
 Sum of Mulliken charges =  -0.00000

 Dipole moment (field-independent basis, Debye):
    X=              0.0239    Y=             -0.0672    Z=              0.0153  Tot=              0.0729
 Quadrupole moment (field-independent basis, Debye-Ang):
   XX=             -8.1361   YY=             -8.6239   ZZ=             -8.6982
   XY=             -0.1666   XZ=             -0.0435   YZ=             -0.1273

 Normal termination of Gaussian 16 at Fri Sep 22 17:21:10 2023.
