 Gaussian 16, Revision A.03,
 Gaussian 16:  ES64L-G16RevA.03 25-Dec-2016

 ----------
 # hf/3-21g
 ----------

 ------------------------
 tmpdir/M2_conf_253_0.gjf
 ------------------------
 Symbolic Z-matrix:
 Charge =  0 Multiplicity = 1

                         Standard orientation:
 ---------------------------------------------------------------------
 Center     Atomic      Atomic             Coordinates (Angstroms)
 Number     Number       Type             X           Y           Z
 ---------------------------------------------------------------------
      1          6           0       -0.031803    0.000057    0.001443
      2          1           0       -0.304721   -0.016222    1.032511
      3          1           0       -0.342265    0.901833   -0.491545
      4          1           0       -0.347414   -0.883305   -0.520730
      5          1           0        1.185220   -0.002649   -0.028894
 ---------------------------------------------------------------------

 SCF Done:  E(RHF) =  -39.9668553610     A.U. after    9 cycles

 The electronic state is 1-A.
 Alpha  occ. eigenvalues --  -11.15647  -0.93852  -0.55782  -0.55626  -0.50273
 Alpha virt. eigenvalues --    0.28341   0.32273   0.35685   0.35828   0.91613
 Alpha virt. eigenvalues --    0.91940   0.97615   1.25099   1.32697   1.36952
 Alpha virt. eigenvalues --    1.37399   1.94733

 Mulliken charges:
               1
     1  C   -0.771599
     2  H    0.208172
     3  H    0.206179
     4  H    0.206175
     5  H    0.151074
 Sum of Mulliken charges =   0.00000

 Dipole moment (field-independent basis, Debye):
    X=             -0.0725    Y=              0.0001    Z=              0.0059  Tot=              0.0728
 Quadrupole moment (field-independent basis, Debye-Ang):
   XX=             -8.6505   YY=             -8.3834   ZZ=             -8.3893
   XY=              0.0012   XZ=              0.0073   YZ=             -0.0003

 Normal termination of Gaussian 16 at Fri Sep 22 17:20:33 2023.
