 Gaussian 16, Revision A.03,
 Gaussian 16:  ES64L-G16RevA.03 25-Dec-2016

 ----------
 # hf/3-21g
 ----------

 ------------------------
 tmpdir/M2_conf_242_5.gjf
 ------------------------
 Symbolic Z-matrix:
 Charge =  0 Multiplicity = 1

                         Standard orientation:
 ---------------------------------------------------------------------
 Center     Atomic      Atomic             Coordinates (Angstroms)
 Number     Number       Type             X           Y           Z
 ---------------------------------------------------------------------
      1          1           0        0.654310    0.802313   -0.348264
      2          6           0        0.033832   -0.007388   -0.014230
      3          1           0       -0.209027   -0.781949   -0.716856
      4          1           0        0.397976   -0.458264    0.889495
      5          1           0       -1.046252    0.482228    0.261007
 ---------------------------------------------------------------------

 SCF Done:  E(RHF) =  -39.9654047638     A.U. after    9 cycles

 The electronic state is 1-A.
 Alpha  occ. eigenvalues --  -11.15739  -0.93797  -0.56748  -0.54816  -0.49938
 Alpha virt. eigenvalues --    0.28332   0.32006   0.35318   0.36113   0.91120
 Alpha virt. eigenvalues --    0.93191   0.97430   1.25215   1.32022   1.36180
 Alpha virt. eigenvalues --    1.38072   1.94656

 Mulliken charges:
               1
     1  H    0.208655
     2  C   -0.773139
     3  H    0.208289
     4  H    0.206062
     5  H    0.150133
 Sum of Mulliken charges =   0.00000

 Dipole moment (field-independent basis, Debye):
    X=              0.0408    Y=             -0.0512    Z=              0.0064  Tot=              0.0658
 Quadrupole moment (field-independent basis, Debye-Ang):
   XX=             -8.5704   YY=             -8.3059   ZZ=             -8.5722
   XY=              0.1967   XZ=              0.0941   YZ=             -0.0477

 Normal termination of Gaussian 16 at Fri Sep 22 17:20:16 2023.
