 Gaussian 16, Revision A.03,
 Gaussian 16:  ES64L-G16RevA.03 25-Dec-2016

 ----------
 # hf/3-21g
 ----------

 ------------------------
 tmpdir/M2_conf_124_3.gjf
 ------------------------
 Symbolic Z-matrix:
 Charge =  0 Multiplicity = 1

                         Standard orientation:
 ---------------------------------------------------------------------
 Center     Atomic      Atomic             Coordinates (Angstroms)
 Number     Number       Type             X           Y           Z
 ---------------------------------------------------------------------
      1          6           0       -1.395830    0.000016    0.000010
      2         17           0        0.791970   -0.000012   -0.000003
      3          1           0       -1.696197   -0.278186    0.992268
      4          1           0       -1.695878    0.998727   -0.255259
      5          1           0       -1.696443   -0.720426   -0.737021
 ---------------------------------------------------------------------

 SCF Done:  E(RHF) =  -496.669188083     A.U. after   10 cycles

 The electronic state is 1-A.
 Alpha  occ. eigenvalues -- -104.08236 -11.28109 -10.47069  -7.93403  -7.93105
 Alpha  occ. eigenvalues --   -7.93105  -1.05666  -0.95986  -0.63653  -0.63648
 Alpha  occ. eigenvalues --   -0.46394  -0.42864  -0.42864
 Alpha virt. eigenvalues --    0.07900   0.26161   0.30790   0.30793   0.73390
 Alpha virt. eigenvalues --    0.79332   0.79337   0.86870   0.93624   0.93634
 Alpha virt. eigenvalues --    1.03083   1.28997   1.29609   1.29619   1.83782

 Mulliken charges:
               1
     1  C   -0.540972
     2  Cl  -0.269479
     3  H    0.270168
     4  H    0.270158
     5  H    0.270125
 Sum of Mulliken charges =  -0.00000

 Dipole moment (field-independent basis, Debye):
    X=             -3.9914    Y=              0.0001    Z=              0.0001  Tot=              3.9914
 Quadrupole moment (field-independent basis, Debye-Ang):
   XX=            -16.5922   YY=            -20.3616   ZZ=            -20.3630
   XY=              0.0005   XZ=             -0.0001   YZ=             -0.0001

 Normal termination of Gaussian 16 at Fri Sep 22 17:17:12 2023.
