 Gaussian 16, Revision A.03,
 Gaussian 16:  ES64L-G16RevA.03 25-Dec-2016

 ----------
 # hf/3-21g
 ----------

 ------------------------
 tmpdir/M2_conf_118_5.gjf
 ------------------------
 Symbolic Z-matrix:
 Charge =  0 Multiplicity = 1

                         Standard orientation:
 ---------------------------------------------------------------------
 Center     Atomic      Atomic             Coordinates (Angstroms)
 Number     Number       Type             X           Y           Z
 ---------------------------------------------------------------------
      1          1           0        0.330023    0.974499   -0.344498
      2          6           0        0.032538    0.001029   -0.003841
      3          1           0        0.256601   -0.787964   -0.696592
      4          1           0        0.399592   -0.219659    0.980627
      5          1           0       -1.181446    0.026951    0.083510
 ---------------------------------------------------------------------

 SCF Done:  E(RHF) =  -39.9667853392     A.U. after    9 cycles

 The electronic state is 1-A.
 Alpha  occ. eigenvalues --  -11.15728  -0.93777  -0.55906  -0.55437  -0.50201
 Alpha virt. eigenvalues --    0.28324   0.32191   0.35599   0.35791   0.91722
 Alpha virt. eigenvalues --    0.92185   0.97577   1.25104   1.32363   1.36739
 Alpha virt. eigenvalues --    1.37207   1.94664

 Mulliken charges:
               1
     1  H    0.206905
     2  C   -0.770938
     3  H    0.206698
     4  H    0.206296
     5  H    0.151039
 Sum of Mulliken charges =  -0.00000

 Dipole moment (field-independent basis, Debye):
    X=              0.0671    Y=             -0.0085    Z=              0.0001  Tot=              0.0676
 Quadrupole moment (field-independent basis, Debye-Ang):
   XX=             -8.6669   YY=             -8.3461   ZZ=             -8.4268
   XY=              0.0134   XZ=              0.0342   YZ=             -0.0016

 Normal termination of Gaussian 16 at Fri Sep 22 17:17:04 2023.
