 Gaussian 16, Revision A.03,
 Gaussian 16:  ES64L-G16RevA.03 25-Dec-2016

 ----------
 # hf/3-21g
 ----------

 ------------------------
 tmpdir/M2_conf_212_4.gjf
 ------------------------
 Symbolic Z-matrix:
 Charge =  0 Multiplicity = 1

                         Standard orientation:
 ---------------------------------------------------------------------
 Center     Atomic      Atomic             Coordinates (Angstroms)
 Number     Number       Type             X           Y           Z
 ---------------------------------------------------------------------
      1          1           0       -0.346353    0.967919   -0.352811
      2          6           0       -0.033091    0.001274   -0.006904
      3          1           0       -0.183307   -0.799927   -0.705570
      4          1           0       -0.444603   -0.244123    0.953847
      5          1           0        1.172807    0.068489    0.145957
 ---------------------------------------------------------------------

 SCF Done:  E(RHF) =  -39.9665542767     A.U. after    9 cycles

 The electronic state is 1-A.
 Alpha  occ. eigenvalues --  -11.15730  -0.93780  -0.56125  -0.55274  -0.50139
 Alpha virt. eigenvalues --    0.28328   0.32152   0.35526   0.35875   0.91559
 Alpha virt. eigenvalues --    0.92424   0.97535   1.25133   1.32283   1.36583
 Alpha virt. eigenvalues --    1.37426   1.94668

 Mulliken charges:
               1
     1  H    0.207292
     2  C   -0.771293
     3  H    0.207006
     4  H    0.206205
     5  H    0.150790
 Sum of Mulliken charges =   0.00000

 Dipole moment (field-independent basis, Debye):
    X=             -0.0638    Y=             -0.0165    Z=              0.0006  Tot=              0.0659
 Quadrupole moment (field-independent basis, Debye-Ang):
   XX=             -8.6681   YY=             -8.3113   ZZ=             -8.4622
   XY=             -0.0326   XZ=             -0.0595   YZ=             -0.0050

 Normal termination of Gaussian 16 at Fri Sep 22 17:19:31 2023.
