 Gaussian 16, Revision A.03,
 Gaussian 16:  ES64L-G16RevA.03 25-Dec-2016

 ----------
 # hf/3-21g
 ----------

 ------------------------
 tmpdir/M2_conf_249_7.gjf
 ------------------------
 Symbolic Z-matrix:
 Charge =  0 Multiplicity = 1

                         Standard orientation:
 ---------------------------------------------------------------------
 Center     Atomic      Atomic             Coordinates (Angstroms)
 Number     Number       Type             X           Y           Z
 ---------------------------------------------------------------------
      1          1           0       -1.027906    0.181651   -0.338395
      2          6           0       -0.024064   -0.026971   -0.019969
      3          1           0        0.711530   -0.394217   -0.710373
      4          1           0        0.009034   -0.664569    0.842904
      5          1           0        0.451726    1.038962    0.325675
 ---------------------------------------------------------------------

 SCF Done:  E(RHF) =  -39.9636960110     A.U. after    9 cycles

 The electronic state is 1-A.
 Alpha  occ. eigenvalues --  -11.15748  -0.93826  -0.57304  -0.54420  -0.49712
 Alpha virt. eigenvalues --    0.28326   0.31818   0.35138   0.36323   0.90753
 Alpha virt. eigenvalues --    0.94012   0.97359   1.25279   1.31749   1.35877
 Alpha virt. eigenvalues --    1.38679   1.94611

 Mulliken charges:
               1
     1  H    0.210208
     2  C   -0.775968
     3  H    0.210050
     4  H    0.206103
     5  H    0.149607
 Sum of Mulliken charges =  -0.00000

 Dipole moment (field-independent basis, Debye):
    X=              0.0192    Y=             -0.0675    Z=              0.0141  Tot=              0.0716
 Quadrupole moment (field-independent basis, Debye-Ang):
   XX=             -8.1641   YY=             -8.6139   ZZ=             -8.6786
   XY=             -0.1780   XZ=             -0.0462   YZ=             -0.1222

 Normal termination of Gaussian 16 at Fri Sep 22 17:20:27 2023.
