 Gaussian 16, Revision A.03,
 Gaussian 16:  ES64L-G16RevA.03 25-Dec-2016

 ----------
 # hf/3-21g
 ----------

 ------------------------
 tmpdir/M2_conf_240_7.gjf
 ------------------------
 Symbolic Z-matrix:
 Charge =  0 Multiplicity = 1

                         Standard orientation:
 ---------------------------------------------------------------------
 Center     Atomic      Atomic             Coordinates (Angstroms)
 Number     Number       Type             X           Y           Z
 ---------------------------------------------------------------------
      1          1           0        0.504826   -0.122051    0.924964
      2          6           0        0.008548    0.025552   -0.015536
      3          1           0        0.789372   -0.267797   -0.691465
      4          1           0       -0.429005    1.002044   -0.100301
      5          1           0       -0.916483   -0.765509   -0.039984
 ---------------------------------------------------------------------

 SCF Done:  E(RHF) =  -39.9624990295     A.U. after    9 cycles

 The electronic state is 1-A.
 Alpha  occ. eigenvalues --  -11.15724  -0.93903  -0.57557  -0.53017  -0.50715
 Alpha virt. eigenvalues --    0.28167   0.32328   0.34699   0.36352   0.90251
 Alpha virt. eigenvalues --    0.93777   0.98633   1.24721   1.32575   1.34864
 Alpha virt. eigenvalues --    1.39323   1.93947

 Mulliken charges:
               1
     1  H    0.203848
     2  C   -0.775675
     3  H    0.207413
     4  H    0.209209
     5  H    0.155206
 Sum of Mulliken charges =   0.00000

 Dipole moment (field-independent basis, Debye):
    X=              0.1192    Y=              0.0276    Z=              0.0789  Tot=              0.1456
 Quadrupole moment (field-independent basis, Debye-Ang):
   XX=             -8.1838   YY=             -8.4300   ZZ=             -8.8258
   XY=             -0.2357   XZ=             -0.0246   YZ=             -0.0139

 Normal termination of Gaussian 16 at Fri Sep 22 17:20:13 2023.
