 Gaussian 16, Revision A.03,
 Gaussian 16:  ES64L-G16RevA.03 25-Dec-2016

 ----------
 # hf/3-21g
 ----------

 -----------------------
 tmpdir/M2_conf_78_2.gjf
 -----------------------
 Symbolic Z-matrix:
 Charge =  0 Multiplicity = 1

                         Standard orientation:
 ---------------------------------------------------------------------
 Center     Atomic      Atomic             Coordinates (Angstroms)
 Number     Number       Type             X           Y           Z
 ---------------------------------------------------------------------
      1          6           0        0.032216    0.000014    0.008500
      2          1           0        0.200866   -0.005150    1.020024
      3          1           0        0.393469   -0.889063   -0.472371
      4          1           0        0.388998    0.896068   -0.463110
      5          1           0       -1.176629   -0.001939   -0.135541
 ---------------------------------------------------------------------

 SCF Done:  E(RHF) =  -39.9647120258     A.U. after    9 cycles

 The electronic state is 1-A.
 Alpha  occ. eigenvalues --  -11.15164  -0.94364  -0.56688  -0.55569  -0.50285
 Alpha virt. eigenvalues --    0.28457   0.32477   0.35686   0.36741   0.89736
 Alpha virt. eigenvalues --    0.92030   0.97550   1.25266   1.33668   1.37044
 Alpha virt. eigenvalues --    1.41013   1.95310

 Mulliken charges:
               1
     1  C   -0.776628
     2  H    0.218150
     3  H    0.204624
     4  H    0.204578
     5  H    0.149276
 Sum of Mulliken charges =  -0.00000

 Dipole moment (field-independent basis, Debye):
    X=              0.0797    Y=             -0.0001    Z=              0.0359  Tot=              0.0874
 Quadrupole moment (field-independent basis, Debye-Ang):
   XX=             -8.6067   YY=             -8.3423   ZZ=             -8.3828
   XY=             -0.0011   XZ=             -0.0337   YZ=             -0.0005

 Normal termination of Gaussian 16 at Fri Sep 22 17:16:04 2023.
