 Gaussian 16, Revision A.03,
 Gaussian 16:  ES64L-G16RevA.03 25-Dec-2016

 ----------
 # hf/3-21g
 ----------

 ------------------------
 tmpdir/M2_conf_189_8.gjf
 ------------------------
 Symbolic Z-matrix:
 Charge =  0 Multiplicity = 1

                         Standard orientation:
 ---------------------------------------------------------------------
 Center     Atomic      Atomic             Coordinates (Angstroms)
 Number     Number       Type             X           Y           Z
 ---------------------------------------------------------------------
      1          1           0       -0.809793   -0.000285    0.973254
      2          6           0       -1.209747   -0.000012   -0.023066
      3         17           0        0.682155    0.000014   -0.020490
      4          1           0       -1.764026   -0.892418   -0.243437
      5          1           0       -1.764339    0.892532   -0.243092
 ---------------------------------------------------------------------

 SCF Done:  E(RHF) =  -496.617745984     A.U. after   11 cycles

 The electronic state is 1-A.
 Alpha  occ. eigenvalues -- -104.09710 -11.24337 -10.49246  -7.95604  -7.95183
 Alpha  occ. eigenvalues --   -7.95155  -1.13660  -0.92794  -0.65218  -0.62937
 Alpha  occ. eigenvalues --   -0.50449  -0.44994  -0.41286
 Alpha virt. eigenvalues --    0.13484   0.28468   0.31740   0.31838   0.74184
 Alpha virt. eigenvalues --    0.78506   0.80415   0.84546   0.94209   0.97540
 Alpha virt. eigenvalues --    1.02675   1.26811   1.31403   1.31415   1.84077

 Mulliken charges:
               1
     1  H    0.292101
     2  C   -0.713329
     3  Cl  -0.113563
     4  H    0.267417
     5  H    0.267375
 Sum of Mulliken charges =  -0.00000

 Dipole moment (field-independent basis, Debye):
    X=             -2.5628    Y=             -0.0002    Z=              0.4115  Tot=              2.5956
 Quadrupole moment (field-independent basis, Debye-Ang):
   XX=            -18.5450   YY=            -20.1500   ZZ=            -20.9207
   XY=             -0.0004   XZ=              0.7301   YZ=              0.0000

 Normal termination of Gaussian 16 at Fri Sep 22 17:18:56 2023.
