 Gaussian 16, Revision A.03,
 Gaussian 16:  ES64L-G16RevA.03 25-Dec-2016

 ----------
 # hf/3-21g
 ----------

 ------------------------
 tmpdir/M2_conf_193_9.gjf
 ------------------------
 Symbolic Z-matrix:
 Charge =  0 Multiplicity = 1

                         Standard orientation:
 ---------------------------------------------------------------------
 Center     Atomic      Atomic             Coordinates (Angstroms)
 Number     Number       Type             X           Y           Z
 ---------------------------------------------------------------------
      1          1           0        0.933414   -0.001601    1.021526
      2          6           0        1.207317    0.000021   -0.016545
      3         17           0       -0.684585    0.000029   -0.018565
      4          1           0        1.730320   -0.892051   -0.304418
      5          1           0        1.730311    0.893028   -0.302241
 ---------------------------------------------------------------------

 SCF Done:  E(RHF) =  -496.644157626     A.U. after   11 cycles

 The electronic state is 1-A.
 Alpha  occ. eigenvalues -- -104.09323 -11.24671 -10.48782  -7.95146  -7.94733
 Alpha  occ. eigenvalues --   -7.94717  -1.12670  -0.93008  -0.64608  -0.63062
 Alpha  occ. eigenvalues --   -0.50442  -0.44536  -0.42261
 Alpha virt. eigenvalues --    0.14406   0.27935   0.31562   0.31679   0.74169
 Alpha virt. eigenvalues --    0.78967   0.80637   0.84839   0.93713   0.96992
 Alpha virt. eigenvalues --    1.02107   1.28381   1.31261   1.31801   1.86257

 Mulliken charges:
               1
     1  H    0.288525
     2  C   -0.709258
     3  Cl  -0.112213
     4  H    0.266489
     5  H    0.266457
 Sum of Mulliken charges =   0.00000

 Dipole moment (field-independent basis, Debye):
    X=              2.6941    Y=             -0.0006    Z=              0.3277  Tot=              2.7139
 Quadrupole moment (field-independent basis, Debye-Ang):
   XX=            -18.5145   YY=            -20.1692   ZZ=            -20.6842
   XY=              0.0009   XZ=             -0.6809   YZ=             -0.0000

 Normal termination of Gaussian 16 at Fri Sep 22 17:19:02 2023.
