 Gaussian 16, Revision A.03,
 Gaussian 16:  ES64L-G16RevA.03 25-Dec-2016

 ----------
 # hf/3-21g
 ----------

 -----------------------
 tmpdir/M2_conf_63_4.gjf
 -----------------------
 Symbolic Z-matrix:
 Charge =  0 Multiplicity = 1

                         Standard orientation:
 ---------------------------------------------------------------------
 Center     Atomic      Atomic             Coordinates (Angstroms)
 Number     Number       Type             X           Y           Z
 ---------------------------------------------------------------------
      1          1           0       -0.338080    0.970166   -0.352451
      2          6           0       -0.032881    0.001208   -0.005808
      3          1           0       -0.210385   -0.796987   -0.701513
      4          1           0       -0.430664   -0.231982    0.963726
      5          1           0        1.176418    0.051556    0.125085
 ---------------------------------------------------------------------

 SCF Done:  E(RHF) =  -39.9666521900     A.U. after    9 cycles

 The electronic state is 1-A.
 Alpha  occ. eigenvalues --  -11.15729  -0.93778  -0.56042  -0.55335  -0.50163
 Alpha virt. eigenvalues --    0.28327   0.32167   0.35554   0.35843   0.91620
 Alpha virt. eigenvalues --    0.92332   0.97551   1.25122   1.32314   1.36641
 Alpha virt. eigenvalues --    1.37342   1.94667

 Mulliken charges:
               1
     1  H    0.207139
     2  C   -0.771140
     3  H    0.206882
     4  H    0.206235
     5  H    0.150884
 Sum of Mulliken charges =   0.00000

 Dipole moment (field-independent basis, Debye):
    X=             -0.0651    Y=             -0.0134    Z=              0.0002  Tot=              0.0665
 Quadrupole moment (field-independent basis, Debye-Ang):
   XX=             -8.6680   YY=             -8.3243   ZZ=             -8.4486
   XY=             -0.0248   XZ=             -0.0511   YZ=             -0.0035

 Normal termination of Gaussian 16 at Fri Sep 22 17:15:41 2023.
