 Gaussian 16, Revision A.03,
 Gaussian 16:  ES64L-G16RevA.03 25-Dec-2016

 ----------
 # hf/3-21g
 ----------

 ------------------------
 tmpdir/M2_conf_130_2.gjf
 ------------------------
 Symbolic Z-matrix:
 Charge =  0 Multiplicity = 1

                         Standard orientation:
 ---------------------------------------------------------------------
 Center     Atomic      Atomic             Coordinates (Angstroms)
 Number     Number       Type             X           Y           Z
 ---------------------------------------------------------------------
      1          6           0        0.014486   -0.026709   -0.000015
      2          1           0        1.041374    0.505471   -0.003175
      3          1           0       -0.148340   -0.599215    0.893251
      4          1           0       -0.154048   -0.600085   -0.891900
      5          1           0       -0.825903    0.854085    0.001915
 ---------------------------------------------------------------------

 SCF Done:  E(RHF) =  -39.9634929329     A.U. after    9 cycles

 The electronic state is 1-A.
 Alpha  occ. eigenvalues --  -11.16689  -0.92974  -0.55782  -0.53928  -0.50157
 Alpha virt. eigenvalues --    0.27883   0.31412   0.34305   0.35687   0.91741
 Alpha virt. eigenvalues --    0.94916   0.98671   1.24345   1.27725   1.34345
 Alpha virt. eigenvalues --    1.36736   1.93707

 Mulliken charges:
               1
     1  C   -0.756976
     2  H    0.183984
     3  H    0.209212
     4  H    0.209162
     5  H    0.154618
 Sum of Mulliken charges =   0.00000

 Dipole moment (field-independent basis, Debye):
    X=             -0.0085    Y=             -0.0720    Z=              0.0001  Tot=              0.0725
 Quadrupole moment (field-independent basis, Debye-Ang):
   XX=             -8.5500   YY=             -8.5905   ZZ=             -8.4689
   XY=              0.1596   XZ=              0.0011   YZ=             -0.0005

 Normal termination of Gaussian 16 at Fri Sep 22 17:17:22 2023.
