 Gaussian 16, Revision A.03,
 Gaussian 16:  ES64L-G16RevA.03 25-Dec-2016

 ----------
 # hf/3-21g
 ----------

 ------------------------
 tmpdir/M2_conf_293_0.gjf
 ------------------------
 Symbolic Z-matrix:
 Charge =  0 Multiplicity = 1

                         Standard orientation:
 ---------------------------------------------------------------------
 Center     Atomic      Atomic             Coordinates (Angstroms)
 Number     Number       Type             X           Y           Z
 ---------------------------------------------------------------------
      1          6           0       -0.027429   -0.013802   -0.000056
      2          1           0       -0.670096    0.899918   -0.002750
      3          1           0       -0.142288   -0.599518   -0.892450
      4          1           0       -0.147574   -0.597544    0.892925
      5          1           0        1.124534    0.379956    0.002610
 ---------------------------------------------------------------------

 SCF Done:  E(RHF) =  -39.9660962905     A.U. after    9 cycles

 The electronic state is 1-A.
 Alpha  occ. eigenvalues --  -11.16235  -0.93322  -0.55709  -0.54712  -0.50231
 Alpha virt. eigenvalues --    0.28132   0.31872   0.34866   0.35686   0.91828
 Alpha virt. eigenvalues --    0.93718   0.97950   1.24802   1.30132   1.35066
 Alpha virt. eigenvalues --    1.36832   1.94141

 Mulliken charges:
               1
     1  C   -0.763991
     2  H    0.194979
     3  H    0.207942
     4  H    0.207939
     5  H    0.153132
 Sum of Mulliken charges =  -0.00000

 Dipole moment (field-independent basis, Debye):
    X=             -0.0463    Y=             -0.0450    Z=             -0.0001  Tot=              0.0645
 Quadrupole moment (field-independent basis, Debye-Ang):
   XX=             -8.6616   YY=             -8.4362   ZZ=             -8.4321
   XY=             -0.0956   XZ=             -0.0012   YZ=             -0.0001

 Normal termination of Gaussian 16 at Fri Sep 22 17:21:38 2023.
