 Gaussian 16, Revision A.03,
 Gaussian 16:  ES64L-G16RevA.03 25-Dec-2016

 ----------
 # hf/3-21g
 ----------

 ------------------------
 tmpdir/M2_conf_299_4.gjf
 ------------------------
 Symbolic Z-matrix:
 Charge =  0 Multiplicity = 1

                         Standard orientation:
 ---------------------------------------------------------------------
 Center     Atomic      Atomic             Coordinates (Angstroms)
 Number     Number       Type             X           Y           Z
 ---------------------------------------------------------------------
      1          1           0       -0.808723    0.648313   -0.348087
      2          6           0       -0.032042   -0.013847   -0.015675
      3          1           0        0.387839   -0.711191   -0.715691
      4          1           0       -0.300883   -0.546596    0.876798
      5          1           0        0.914020    0.692556    0.281030
 ---------------------------------------------------------------------

 SCF Done:  E(RHF) =  -39.9650686218     A.U. after    9 cycles

 The electronic state is 1-A.
 Alpha  occ. eigenvalues --  -11.15741  -0.93802  -0.56876  -0.54724  -0.49889
 Alpha virt. eigenvalues --    0.28331   0.31968   0.35275   0.36163   0.91033
 Alpha virt. eigenvalues --    0.93367   0.97413   1.25230   1.31963   1.36104
 Alpha virt. eigenvalues --    1.38209   1.94646

 Mulliken charges:
               1
     1  H    0.208985
     2  C   -0.773679
     3  H    0.208645
     4  H    0.206042
     5  H    0.150007
 Sum of Mulliken charges =  -0.00000

 Dipole moment (field-independent basis, Debye):
    X=             -0.0260    Y=             -0.0608    Z=              0.0078  Tot=              0.0666
 Quadrupole moment (field-independent basis, Debye-Ang):
   XX=             -8.4629   YY=             -8.3902   ZZ=             -8.5971
   XY=             -0.2452   XZ=             -0.0875   YZ=             -0.0720

 Normal termination of Gaussian 16 at Fri Sep 22 17:21:47 2023.
