 Gaussian 16, Revision A.03,
 Gaussian 16:  ES64L-G16RevA.03 25-Dec-2016

 ----------
 # hf/3-21g
 ----------

 ------------------------
 tmpdir/M2_conf_277_7.gjf
 ------------------------
 Symbolic Z-matrix:
 Charge =  0 Multiplicity = 1

                         Standard orientation:
 ---------------------------------------------------------------------
 Center     Atomic      Atomic             Coordinates (Angstroms)
 Number     Number       Type             X           Y           Z
 ---------------------------------------------------------------------
      1          1           0        0.386707   -0.275833    0.966178
      2          6           0        0.027092    0.011174   -0.003832
      3          1           0        0.535595   -0.569338   -0.750184
      4          1           0        0.066072    1.072598   -0.158866
      5          1           0       -1.150924   -0.294472   -0.034135
 ---------------------------------------------------------------------

 SCF Done:  E(RHF) =  -39.9667758629     A.U. after    9 cycles

 The electronic state is 1-A.
 Alpha  occ. eigenvalues --  -11.15721  -0.93787  -0.56180  -0.54908  -0.50430
 Alpha virt. eigenvalues --    0.28293   0.32304   0.35406   0.35910   0.91290
 Alpha virt. eigenvalues --    0.92465   0.97833   1.24969   1.32644   1.36256
 Alpha virt. eigenvalues --    1.37532   1.94565

 Mulliken charges:
               1
     1  H    0.205499
     2  C   -0.770888
     3  H    0.206121
     4  H    0.206974
     5  H    0.152294
 Sum of Mulliken charges =  -0.00000

 Dipole moment (field-independent basis, Debye):
    X=              0.0817    Y=              0.0067    Z=              0.0220  Tot=              0.0849
 Quadrupole moment (field-independent basis, Debye-Ang):
   XX=             -8.5763   YY=             -8.3457   ZZ=             -8.5123
   XY=             -0.1163   XZ=             -0.0181   YZ=             -0.0030

 Normal termination of Gaussian 16 at Fri Sep 22 17:21:09 2023.
