 Gaussian 16, Revision A.03,
 Gaussian 16:  ES64L-G16RevA.03 25-Dec-2016

 ----------
 # hf/3-21g
 ----------

 ------------------------
 tmpdir/M2_conf_126_5.gjf
 ------------------------
 Symbolic Z-matrix:
 Charge =  0 Multiplicity = 1

                         Standard orientation:
 ---------------------------------------------------------------------
 Center     Atomic      Atomic             Coordinates (Angstroms)
 Number     Number       Type             X           Y           Z
 ---------------------------------------------------------------------
      1          1           0       -0.379800   -0.282740    0.967644
      2          6           0       -0.027871    0.009831   -0.003301
      3          1           0       -0.511785   -0.587310   -0.752874
      4          1           0       -0.100669    1.068708   -0.164825
      5          1           0        1.159479   -0.257643   -0.030137
 ---------------------------------------------------------------------

 SCF Done:  E(RHF) =  -39.9668438380     A.U. after    9 cycles

 The electronic state is 1-A.
 Alpha  occ. eigenvalues --  -11.15721  -0.93785  -0.56109  -0.55003  -0.50410
 Alpha virt. eigenvalues --    0.28297   0.32296   0.35444   0.35881   0.91353
 Alpha virt. eigenvalues --    0.92406   0.97804   1.24982   1.32620   1.36350
 Alpha virt. eigenvalues --    1.37448   1.94579

 Mulliken charges:
               1
     1  H    0.205660
     2  C   -0.770799
     3  H    0.206127
     4  H    0.206847
     5  H    0.152164
 Sum of Mulliken charges =  -0.00000

 Dipole moment (field-independent basis, Debye):
    X=             -0.0802    Y=              0.0055    Z=              0.0192  Tot=              0.0827
 Quadrupole moment (field-independent basis, Debye-Ang):
   XX=             -8.5912   YY=             -8.3464   ZZ=             -8.4970
   XY=              0.1028   XZ=              0.0159   YZ=             -0.0023

 Normal termination of Gaussian 16 at Fri Sep 22 17:17:15 2023.
