 Gaussian 16, Revision A.03,
 Gaussian 16:  ES64L-G16RevA.03 25-Dec-2016

 ----------
 # hf/3-21g
 ----------

 ------------------------
 tmpdir/M2_conf_232_0.gjf
 ------------------------
 Symbolic Z-matrix:
 Charge =  0 Multiplicity = 1

                         Standard orientation:
 ---------------------------------------------------------------------
 Center     Atomic      Atomic             Coordinates (Angstroms)
 Number     Number       Type             X           Y           Z
 ---------------------------------------------------------------------
      1          6           0       -0.026692   -0.015090   -0.000056
      2          1           0       -0.705785    0.875794   -0.002572
      3          1           0       -0.119074   -0.604634   -0.892540
      4          1           0       -0.124321   -0.603152    0.892836
      5          1           0        1.109334    0.422529    0.002611
 ---------------------------------------------------------------------

 SCF Done:  E(RHF) =  -39.9659491493     A.U. after    9 cycles

 The electronic state is 1-A.
 Alpha  occ. eigenvalues --  -11.16271  -0.93293  -0.55714  -0.54649  -0.50227
 Alpha virt. eigenvalues --    0.28116   0.31840   0.34815   0.35686   0.91822
 Alpha virt. eigenvalues --    0.93831   0.97987   1.24777   1.29937   1.34988
 Alpha virt. eigenvalues --    1.36824   1.94107

 Mulliken charges:
               1
     1  C   -0.763472
     2  H    0.194135
     3  H    0.208043
     4  H    0.208040
     5  H    0.153253
 Sum of Mulliken charges =  -0.00000

 Dipole moment (field-independent basis, Debye):
    X=             -0.0429    Y=             -0.0483    Z=             -0.0001  Tot=              0.0646
 Quadrupole moment (field-independent basis, Debye-Ang):
   XX=             -8.6561   YY=             -8.4452   ZZ=             -8.4350
   XY=             -0.1049   XZ=             -0.0012   YZ=             -0.0002

 Normal termination of Gaussian 16 at Fri Sep 22 17:20:01 2023.
