 Gaussian 16, Revision A.03,
 Gaussian 16:  ES64L-G16RevA.03 25-Dec-2016

 ----------
 # hf/3-21g
 ----------

 ------------------------
 tmpdir/M2_conf_274_8.gjf
 ------------------------
 Symbolic Z-matrix:
 Charge =  0 Multiplicity = 1

                         Standard orientation:
 ---------------------------------------------------------------------
 Center     Atomic      Atomic             Coordinates (Angstroms)
 Number     Number       Type             X           Y           Z
 ---------------------------------------------------------------------
      1          1           0       -0.659238   -0.000130    0.885826
      2          6           0       -1.213493   -0.000015   -0.033641
      3         17           0        0.678367    0.000012   -0.021144
      4          1           0       -1.795856   -0.892466   -0.162333
      5          1           0       -1.796191    0.892484   -0.162200
 ---------------------------------------------------------------------

 SCF Done:  E(RHF) =  -496.571750900     A.U. after   12 cycles

 The electronic state is 1-A.
 Alpha  occ. eigenvalues -- -104.10493 -11.23537 -10.50207  -7.96560  -7.96114
 Alpha  occ. eigenvalues --   -7.96066  -1.15702  -0.92365  -0.66166  -0.62620
 Alpha  occ. eigenvalues --   -0.50937  -0.45878  -0.39424
 Alpha virt. eigenvalues --    0.12240   0.29568   0.32176   0.32219   0.74008
 Alpha virt. eigenvalues --    0.77790   0.80117   0.84510   0.93656   0.98136
 Alpha virt. eigenvalues --    1.03331   1.23520   1.31119   1.31824   1.81831

 Mulliken charges:
               1
     1  H    0.295143
     2  C   -0.725962
     3  Cl  -0.107341
     4  H    0.269100
     5  H    0.269060
 Sum of Mulliken charges =  -0.00000

 Dipole moment (field-independent basis, Debye):
    X=             -2.2722    Y=             -0.0002    Z=              0.5372  Tot=              2.3348
 Quadrupole moment (field-independent basis, Debye-Ang):
   XX=            -18.6684   YY=            -20.0968   ZZ=            -21.2634
   XY=             -0.0003   XZ=              0.6741   YZ=              0.0000

 Normal termination of Gaussian 16 at Fri Sep 22 17:21:05 2023.
