 Gaussian 16, Revision A.03,
 Gaussian 16:  ES64L-G16RevA.03 25-Dec-2016

 ----------
 # hf/3-21g
 ----------

 ------------------------
 tmpdir/M2_conf_125_1.gjf
 ------------------------
 Symbolic Z-matrix:
 Charge =  0 Multiplicity = 1

                         Standard orientation:
 ---------------------------------------------------------------------
 Center     Atomic      Atomic             Coordinates (Angstroms)
 Number     Number       Type             X           Y           Z
 ---------------------------------------------------------------------
      1          6           0       -0.020713   -0.022356    0.000059
      2          1           0       -0.912546    0.685967   -0.002228
      3          1           0        0.031741   -0.613895    0.894213
      4          1           0        0.032376   -0.619262   -0.890722
      5          1           0        0.972705    0.681329   -0.001616
 ---------------------------------------------------------------------

 SCF Done:  E(RHF) =  -39.9648461184     A.U. after    9 cycles

 The electronic state is 1-A.
 Alpha  occ. eigenvalues --  -11.16485  -0.93125  -0.55746  -0.54278  -0.50195
 Alpha virt. eigenvalues --    0.28007   0.31631   0.34537   0.35686   0.91772
 Alpha virt. eigenvalues --    0.94455   0.98276   1.24597   1.28762   1.34621
 Alpha virt. eigenvalues --    1.36781   1.93903

 Mulliken charges:
               1
     1  C   -0.760248
     2  H    0.188980
     3  H    0.208680
     4  H    0.208625
     5  H    0.153963
 Sum of Mulliken charges =   0.00000

 Dipole moment (field-independent basis, Debye):
    X=             -0.0175    Y=             -0.0648    Z=              0.0003  Tot=              0.0672
 Quadrupole moment (field-independent basis, Debye-Ang):
   XX=             -8.6035   YY=             -8.5173   ZZ=             -8.4532
   XY=             -0.1493   XZ=              0.0003   YZ=              0.0004

 Normal termination of Gaussian 16 at Fri Sep 22 17:17:14 2023.
