 Gaussian 16, Revision A.03,
 Gaussian 16:  ES64L-G16RevA.03 25-Dec-2016

 ----------
 # hf/3-21g
 ----------

 ------------------------
 tmpdir/M2_conf_227_3.gjf
 ------------------------
 Symbolic Z-matrix:
 Charge =  0 Multiplicity = 1

                         Standard orientation:
 ---------------------------------------------------------------------
 Center     Atomic      Atomic             Coordinates (Angstroms)
 Number     Number       Type             X           Y           Z
 ---------------------------------------------------------------------
      1          6           0       -2.069030    0.000009    0.000008
      2         17           0        1.148370   -0.000008   -0.000002
      3          1           0       -2.369398   -0.278194    0.992266
      4          1           0       -2.369085    0.998718   -0.255262
      5          1           0       -2.369636   -0.720436   -0.737023
 ---------------------------------------------------------------------

 SCF Done:  E(RHF) =  -496.543930540     A.U. after   10 cycles

 The electronic state is 1-A.
 Alpha  occ. eigenvalues -- -104.02000 -11.36295 -10.40687  -7.87005  -7.86804
 Alpha  occ. eigenvalues --   -7.86804  -1.04505  -0.95372  -0.69644  -0.69639
 Alpha  occ. eigenvalues --   -0.37246  -0.37246  -0.34664
 Alpha virt. eigenvalues --   -0.07228   0.21609   0.26345   0.26349   0.72319
 Alpha virt. eigenvalues --    0.79394   0.79404   0.84360   0.89729   0.89732
 Alpha virt. eigenvalues --    0.98348   1.15996   1.23390   1.23400   1.66938

 Mulliken charges:
               1
     1  C   -0.349908
     2  Cl  -0.546826
     3  H    0.298917
     4  H    0.298923
     5  H    0.298894
 Sum of Mulliken charges =   0.00000

 Dipole moment (field-independent basis, Debye):
    X=             -8.7949    Y=              0.0001    Z=              0.0001  Tot=              8.7949
 Quadrupole moment (field-independent basis, Debye-Ang):
   XX=             -9.1268   YY=            -20.4025   ZZ=            -20.4040
   XY=              0.0002   XZ=              0.0000   YZ=             -0.0001

 Normal termination of Gaussian 16 at Fri Sep 22 17:19:53 2023.
