 Gaussian 16, Revision A.03,
 Gaussian 16:  ES64L-G16RevA.03 25-Dec-2016

 ----------
 # hf/3-21g
 ----------

 ----------------------
 tmpdir/M2_conf_8_4.gjf
 ----------------------
 Symbolic Z-matrix:
 Charge =  0 Multiplicity = 1

                         Standard orientation:
 ---------------------------------------------------------------------
 Center     Atomic      Atomic             Coordinates (Angstroms)
 Number     Number       Type             X           Y           Z
 ---------------------------------------------------------------------
      1          1           0        0.491512   -0.136183    0.933251
      2          6           0        0.011616    0.024337   -0.013385
      3          1           0        0.767042   -0.305209   -0.701383
      4          1           0       -0.379836    1.019174   -0.111715
      5          1           0       -0.948412   -0.723807   -0.039840
 ---------------------------------------------------------------------

 SCF Done:  E(RHF) =  -39.9636755330     A.U. after    9 cycles

 The electronic state is 1-A.
 Alpha  occ. eigenvalues --  -11.15722  -0.93872  -0.57304  -0.53368  -0.50674
 Alpha virt. eigenvalues --    0.28197   0.32335   0.34830   0.36284   0.90376
 Alpha virt. eigenvalues --    0.93574   0.98448   1.24767   1.32655   1.35079
 Alpha virt. eigenvalues --    1.38969   1.94111

 Mulliken charges:
               1
     1  H    0.204198
     2  C   -0.774490
     3  H    0.207035
     4  H    0.208643
     5  H    0.154614
 Sum of Mulliken charges =  -0.00000

 Dipole moment (field-independent basis, Debye):
    X=              0.1109    Y=              0.0255    Z=              0.0679  Tot=              0.1325
 Quadrupole moment (field-independent basis, Debye-Ang):
   XX=             -8.2510   YY=             -8.4179   ZZ=             -8.7681
   XY=             -0.2314   XZ=             -0.0237   YZ=             -0.0127

 Normal termination of Gaussian 16 at Fri Sep 22 17:14:19 2023.
