 Gaussian 16, Revision A.03,
 Gaussian 16:  ES64L-G16RevA.03 25-Dec-2016

 ----------
 # hf/3-21g
 ----------

 ------------------------
 tmpdir/M2_conf_189_1.gjf
 ------------------------
 Symbolic Z-matrix:
 Charge =  0 Multiplicity = 1

                         Standard orientation:
 ---------------------------------------------------------------------
 Center     Atomic      Atomic             Coordinates (Angstroms)
 Number     Number       Type             X           Y           Z
 ---------------------------------------------------------------------
      1          6           0       -0.017017   -0.025211    0.000059
      2          1           0       -0.996066    0.576172   -0.001936
      3          1           0        0.106266   -0.606356    0.894068
      4          1           0        0.107200   -0.611235   -0.890869
      5          1           0        0.884704    0.792683   -0.001617
 ---------------------------------------------------------------------

 SCF Done:  E(RHF) =  -39.9641090055     A.U. after    9 cycles

 The electronic state is 1-A.
 Alpha  occ. eigenvalues --  -11.16601  -0.93037  -0.55764  -0.54080  -0.50173
 Alpha virt. eigenvalues --    0.27939   0.31507   0.34402   0.35686   0.91751
 Alpha virt. eigenvalues --    0.94738   0.98484   1.24466   1.28155   1.34459
 Alpha virt. eigenvalues --    1.36754   1.93791

 Mulliken charges:
               1
     1  C   -0.758404
     2  H    0.186144
     3  H    0.208987
     4  H    0.208932
     5  H    0.154341
 Sum of Mulliken charges =  -0.00000

 Dipole moment (field-independent basis, Debye):
    X=             -0.0023    Y=             -0.0698    Z=              0.0003  Tot=              0.0698
 Quadrupole moment (field-independent basis, Debye-Ang):
   XX=             -8.5710   YY=             -8.5608   ZZ=             -8.4625
   XY=             -0.1586   XZ=              0.0002   YZ=              0.0004

 Normal termination of Gaussian 16 at Fri Sep 22 17:18:56 2023.
