 Gaussian 16, Revision A.03,
 Gaussian 16:  ES64L-G16RevA.03 25-Dec-2016

 ----------
 # hf/3-21g
 ----------

 ----------------------
 tmpdir/M2_conf_7_9.gjf
 ----------------------
 Symbolic Z-matrix:
 Charge =  0 Multiplicity = 1

                         Standard orientation:
 ---------------------------------------------------------------------
 Center     Atomic      Atomic             Coordinates (Angstroms)
 Number     Number       Type             X           Y           Z
 ---------------------------------------------------------------------
      1          1           0        1.343491   -0.018265    1.060812
      2          6           0        1.202753    0.000065   -0.003365
      3         17           0       -0.689142    0.000101   -0.006251
      4          1           0        1.577832   -0.884335   -0.482268
      5          1           0        1.577574    0.900490   -0.452086
 ---------------------------------------------------------------------

 SCF Done:  E(RHF) =  -496.686316815     A.U. after   11 cycles

 The electronic state is 1-A.
 Alpha  occ. eigenvalues -- -104.08804 -11.24990 -10.48195  -7.94568  -7.94164
 Alpha  occ. eigenvalues --   -7.94163  -1.11361  -0.93315  -0.63396  -0.63199
 Alpha  occ. eigenvalues --   -0.51206  -0.43840  -0.43578
 Alpha virt. eigenvalues --    0.16406   0.27346   0.31371   0.31425   0.73867
 Alpha virt. eigenvalues --    0.80206   0.81019   0.85606   0.92686   0.94717
 Alpha virt. eigenvalues --    0.99917   1.30900   1.31185   1.32334   1.91528

 Mulliken charges:
               1
     1  H    0.275473
     2  C   -0.703616
     3  Cl  -0.107077
     4  H    0.267622
     5  H    0.267598
 Sum of Mulliken charges =  -0.00000

 Dipole moment (field-independent basis, Debye):
    X=              2.8564    Y=             -0.0015    Z=              0.0865  Tot=              2.8577
 Quadrupole moment (field-independent basis, Debye-Ang):
   XX=            -18.5597   YY=            -20.1830   ZZ=            -20.2190
   XY=              0.0035   XZ=             -0.2335   YZ=             -0.0002

 Normal termination of Gaussian 16 at Fri Sep 22 17:14:18 2023.
