 Gaussian 16, Revision A.03,
 Gaussian 16:  ES64L-G16RevA.03 25-Dec-2016

 ----------
 # hf/3-21g
 ----------

 ------------------------
 tmpdir/M2_conf_257_1.gjf
 ------------------------
 Symbolic Z-matrix:
 Charge =  0 Multiplicity = 1

                         Standard orientation:
 ---------------------------------------------------------------------
 Center     Atomic      Atomic             Coordinates (Angstroms)
 Number     Number       Type             X           Y           Z
 ---------------------------------------------------------------------
      1          6           0       -0.015583   -0.026105    0.000059
      2          1           0       -1.022668    0.535513   -0.001839
      3          1           0        0.132124   -0.601603    0.894020
      4          1           0        0.133144   -0.606318   -0.890917
      5          1           0        0.850897    0.829037   -0.001617
 ---------------------------------------------------------------------

 SCF Done:  E(RHF) =  -39.9637831272     A.U. after    9 cycles

 The electronic state is 1-A.
 Alpha  occ. eigenvalues --  -11.16648  -0.93003  -0.55772  -0.54001  -0.50164
 Alpha virt. eigenvalues --    0.27910   0.31455   0.34351   0.35686   0.91743
 Alpha virt. eigenvalues --    0.94841   0.98580   1.24404   1.27919   1.34399
 Alpha virt. eigenvalues --    1.36743   1.93746

 Mulliken charges:
               1
     1  C   -0.757639
     2  H    0.184983
     3  H    0.209109
     4  H    0.209054
     5  H    0.154493
 Sum of Mulliken charges =  -0.00000

 Dipole moment (field-independent basis, Debye):
    X=              0.0036    Y=             -0.0711    Z=              0.0003  Tot=              0.0711
 Quadrupole moment (field-independent basis, Debye-Ang):
   XX=             -8.5593   YY=             -8.5769   ZZ=             -8.4663
   XY=             -0.1597   XZ=              0.0002   YZ=              0.0004

 Normal termination of Gaussian 16 at Fri Sep 22 17:20:39 2023.
