 Gaussian 16, Revision A.03,
 Gaussian 16:  ES64L-G16RevA.03 25-Dec-2016

 ----------
 # hf/3-21g
 ----------

 ------------------------
 tmpdir/M2_conf_209_8.gjf
 ------------------------
 Symbolic Z-matrix:
 Charge =  0 Multiplicity = 1

                         Standard orientation:
 ---------------------------------------------------------------------
 Center     Atomic      Atomic             Coordinates (Angstroms)
 Number     Number       Type             X           Y           Z
 ---------------------------------------------------------------------
      1          1           0       -0.872517   -0.000386    1.000165
      2          6           0       -1.208443   -0.000010   -0.019527
      3         17           0        0.683456    0.000016   -0.019652
      4          1           0       -1.747637   -0.892383   -0.274710
      5          1           0       -1.747940    0.892567   -0.274216
 ---------------------------------------------------------------------

 SCF Done:  E(RHF) =  -496.632220147     A.U. after   11 cycles

 The electronic state is 1-A.
 Alpha  occ. eigenvalues -- -104.09493 -11.24532 -10.48984  -7.95345  -7.94929
 Alpha  occ. eigenvalues --   -7.94907  -1.13102  -0.92914  -0.64894  -0.63010
 Alpha  occ. eigenvalues --   -0.50411  -0.44738  -0.41833
 Alpha virt. eigenvalues --    0.13967   0.28165   0.31636   0.31748   0.74188
 Alpha virt. eigenvalues --    0.78750   0.80525   0.84669   0.94015   0.97268
 Alpha virt. eigenvalues --    1.02399   1.27701   1.31321   1.31611   1.85177

 Mulliken charges:
               1
     1  H    0.290320
     2  C   -0.710857
     3  Cl  -0.113183
     4  H    0.266882
     5  H    0.266838
 Sum of Mulliken charges =  -0.00000

 Dipole moment (field-independent basis, Debye):
    X=             -2.6378    Y=             -0.0002    Z=              0.3675  Tot=              2.6632
 Quadrupole moment (field-independent basis, Debye-Ang):
   XX=            -18.5238   YY=            -20.1617   ZZ=            -20.7952
   XY=             -0.0004   XZ=              0.7132   YZ=              0.0000

 Normal termination of Gaussian 16 at Fri Sep 22 17:19:26 2023.
