 Gaussian 16, Revision A.03,
 Gaussian 16:  ES64L-G16RevA.03 25-Dec-2016

 ----------
 # hf/3-21g
 ----------

 -----------------------
 tmpdir/M2_conf_96_1.gjf
 -----------------------
 Symbolic Z-matrix:
 Charge =  0 Multiplicity = 1

                         Standard orientation:
 ---------------------------------------------------------------------
 Center     Atomic      Atomic             Coordinates (Angstroms)
 Number     Number       Type             X           Y           Z
 ---------------------------------------------------------------------
      1          6           0       -0.005762   -0.029964    0.000059
      2          1           0       -1.148901    0.299248   -0.001273
      3          1           0        0.268777   -0.557358    0.893739
      4          1           0        0.270011   -0.561202   -0.891200
      5          1           0        0.644688    0.999097   -0.001620
 ---------------------------------------------------------------------

 SCF Done:  E(RHF) =  -39.9602705041     A.U. after    9 cycles

 The electronic state is 1-A.
 Alpha  occ. eigenvalues --  -11.17062  -0.92721  -0.55843  -0.53337  -0.50042
 Alpha virt. eigenvalues --    0.27585   0.30957   0.33976   0.35684   0.91674
 Alpha virt. eigenvalues --    0.95480   0.99684   1.23496   1.26279   1.33965
 Alpha virt. eigenvalues --    1.36641   1.93335

 Mulliken charges:
               1
     1  C   -0.750415
     2  H    0.174429
     3  H    0.210128
     4  H    0.210072
     5  H    0.155786
 Sum of Mulliken charges =   0.00000

 Dipole moment (field-independent basis, Debye):
    X=              0.0498    Y=             -0.0735    Z=              0.0003  Tot=              0.0888
 Quadrupole moment (field-independent basis, Debye-Ang):
   XX=             -8.4997   YY=             -8.6751   ZZ=             -8.4990
   XY=             -0.1472   XZ=              0.0001   YZ=              0.0005

 Normal termination of Gaussian 16 at Fri Sep 22 17:16:31 2023.
