 Gaussian 16, Revision A.03,
 Gaussian 16:  ES64L-G16RevA.03 25-Dec-2016

 ----------
 # hf/3-21g
 ----------

 ------------------------
 tmpdir/M2_conf_171_8.gjf
 ------------------------
 Symbolic Z-matrix:
 Charge =  0 Multiplicity = 1

                         Standard orientation:
 ---------------------------------------------------------------------
 Center     Atomic      Atomic             Coordinates (Angstroms)
 Number     Number       Type             X           Y           Z
 ---------------------------------------------------------------------
      1          1           0       -1.021556   -0.000810    1.044926
      2          6           0       -1.205896   -0.000006   -0.012729
      3         17           0        0.685998    0.000020   -0.016590
      4          1           0       -1.702383   -0.892221   -0.343836
      5          1           0       -1.702656    0.892729   -0.342687
 ---------------------------------------------------------------------

 SCF Done:  E(RHF) =  -496.658321324     A.U. after   11 cycles

 The electronic state is 1-A.
 Alpha  occ. eigenvalues -- -104.09133 -11.24810 -10.48561  -7.94928  -7.94519
 Alpha  occ. eigenvalues --   -7.94509  -1.12192  -0.93115  -0.64252  -0.63109
 Alpha  occ. eigenvalues --   -0.50567  -0.44304  -0.42734
 Alpha virt. eigenvalues --    0.14986   0.27689   0.31488   0.31599   0.74113
 Alpha virt. eigenvalues --    0.79257   0.80799   0.85134   0.93196   0.96556
 Alpha virt. eigenvalues --    1.01651   1.29152   1.31203   1.32040   1.87755

 Mulliken charges:
               1
     1  H    0.285893
     2  C   -0.707651
     3  Cl  -0.110513
     4  H    0.266158
     5  H    0.266113
 Sum of Mulliken charges =  -0.00000

 Dipole moment (field-independent basis, Debye):
    X=             -2.7548    Y=             -0.0003    Z=              0.2724  Tot=              2.7682
 Quadrupole moment (field-independent basis, Debye-Ang):
   XX=            -18.5145   YY=            -20.1771   ZZ=            -20.5412
   XY=             -0.0006   XZ=              0.6145   YZ=              0.0000

 Normal termination of Gaussian 16 at Fri Sep 22 17:18:24 2023.
