 Gaussian 16, Revision A.03,
 Gaussian 16:  ES64L-G16RevA.03 25-Dec-2016

 ----------
 # hf/3-21g
 ----------

 ------------------------
 tmpdir/M2_conf_156_7.gjf
 ------------------------
 Symbolic Z-matrix:
 Charge =  0 Multiplicity = 1

                         Standard orientation:
 ---------------------------------------------------------------------
 Center     Atomic      Atomic             Coordinates (Angstroms)
 Number     Number       Type             X           Y           Z
 ---------------------------------------------------------------------
      1          1           0        0.436240   -0.215362    0.955096
      2          6           0        0.021476    0.018080   -0.007241
      3          1           0        0.656274   -0.455716   -0.731927
      4          1           0       -0.145365    1.070291   -0.138353
      5          1           0       -1.076004   -0.507691   -0.041371
 ---------------------------------------------------------------------

 SCF Done:  E(RHF) =  -39.9660556228     A.U. after    9 cycles

 The electronic state is 1-A.
 Alpha  occ. eigenvalues --  -11.15720  -0.93808  -0.56596  -0.54345  -0.50531
 Alpha virt. eigenvalues --    0.28265   0.32332   0.35192   0.36064   0.90896
 Alpha virt. eigenvalues --    0.92886   0.98024   1.24895   1.32721   1.35773
 Alpha virt. eigenvalues --    1.38030   1.94446

 Mulliken charges:
               1
     1  H    0.204950
     2  C   -0.771794
     3  H    0.206258
     4  H    0.207497
     5  H    0.153089
 Sum of Mulliken charges =   0.00000

 Dipole moment (field-independent basis, Debye):
    X=              0.0910    Y=              0.0150    Z=              0.0384  Tot=              0.0999
 Quadrupole moment (field-independent basis, Debye-Ang):
   XX=             -8.4611   YY=             -8.3666   ZZ=             -8.6061
   XY=             -0.1863   XZ=             -0.0226   YZ=             -0.0076

 Normal termination of Gaussian 16 at Fri Sep 22 17:18:01 2023.
