 Gaussian 16, Revision A.03,
 Gaussian 16:  ES64L-G16RevA.03 25-Dec-2016

 ----------
 # hf/3-21g
 ----------

 ------------------------
 tmpdir/M2_conf_147_2.gjf
 ------------------------
 Symbolic Z-matrix:
 Charge =  0 Multiplicity = 1

                         Standard orientation:
 ---------------------------------------------------------------------
 Center     Atomic      Atomic             Coordinates (Angstroms)
 Number     Number       Type             X           Y           Z
 ---------------------------------------------------------------------
      1          6           0        0.009594   -0.028847   -0.000015
      2          1           0        1.108751    0.382186   -0.002658
      3          1           0       -0.221112   -0.577945    0.892993
      4          1           0       -0.226168   -0.577587   -0.892160
      5          1           0       -0.719032    0.946426    0.001917
 ---------------------------------------------------------------------

 SCF Done:  E(RHF) =  -39.9619482548     A.U. after    9 cycles

 The electronic state is 1-A.
 Alpha  occ. eigenvalues --  -11.16881  -0.92840  -0.55815  -0.53614  -0.50107
 Alpha virt. eigenvalues --    0.27742   0.31184   0.34120   0.35687   0.91708
 Alpha virt. eigenvalues --    0.95248   0.99151   1.23986   1.26885   1.34134
 Alpha virt. eigenvalues --    1.36689   1.93518

 Mulliken charges:
               1
     1  C   -0.753689
     2  H    0.179128
     3  H    0.209694
     4  H    0.209643
     5  H    0.155224
 Sum of Mulliken charges =   0.00000

 Dipole moment (field-independent basis, Debye):
    X=             -0.0306    Y=             -0.0738    Z=              0.0002  Tot=              0.0799
 Quadrupole moment (field-independent basis, Debye-Ang):
   XX=             -8.5178   YY=             -8.6407   ZZ=             -8.4841
   XY=              0.1545   XZ=              0.0010   YZ=             -0.0007

 Normal termination of Gaussian 16 at Fri Sep 22 17:17:47 2023.
