 Gaussian 16, Revision A.03,
 Gaussian 16:  ES64L-G16RevA.03 25-Dec-2016

 ----------
 # hf/3-21g
 ----------

 ------------------------
 tmpdir/M2_conf_160_8.gjf
 ------------------------
 Symbolic Z-matrix:
 Charge =  0 Multiplicity = 1

                         Standard orientation:
 ---------------------------------------------------------------------
 Center     Atomic      Atomic             Coordinates (Angstroms)
 Number     Number       Type             X           Y           Z
 ---------------------------------------------------------------------
      1          1           0       -1.223030   -0.002822    1.067178
      2          6           0       -1.203572    0.000003   -0.006242
      3         17           0        0.688327    0.000034   -0.010583
      4          1           0       -1.628437   -0.891358   -0.427128
      5          1           0       -1.628661    0.893587   -0.422685
 ---------------------------------------------------------------------

 SCF Done:  E(RHF) =  -496.679555891     A.U. after   11 cycles

 The electronic state is 1-A.
 Alpha  occ. eigenvalues -- -104.08876 -11.24959 -10.48272  -7.94645  -7.94240
 Alpha  occ. eigenvalues --   -7.94237  -1.11546  -0.93267  -0.63635  -0.63170
 Alpha  occ. eigenvalues --   -0.50992  -0.43964  -0.43374
 Alpha virt. eigenvalues --    0.16017   0.27402   0.31395   0.31475   0.73947
 Alpha virt. eigenvalues --    0.79858   0.81049   0.85626   0.92438   0.95450
 Alpha virt. eigenvalues --    1.00515   1.30387   1.31168   1.32349   1.90518

 Mulliken charges:
               1
     1  H    0.279567
     2  C   -0.705019
     3  Cl  -0.107659
     4  H    0.266579
     5  H    0.266532
 Sum of Mulliken charges =  -0.00000

 Dipole moment (field-independent basis, Debye):
    X=             -2.8340    Y=             -0.0005    Z=              0.1541  Tot=              2.8382
 Quadrupole moment (field-independent basis, Debye-Ang):
   XX=            -18.5422   YY=            -20.1835   ZZ=            -20.3018
   XY=             -0.0011   XZ=              0.3950   YZ=              0.0000

 Normal termination of Gaussian 16 at Fri Sep 22 17:18:07 2023.
