 Gaussian 16, Revision A.03,
 Gaussian 16:  ES64L-G16RevA.03 25-Dec-2016

 ----------
 # hf/3-21g
 ----------

 ------------------------
 tmpdir/M2_conf_156_0.gjf
 ------------------------
 Symbolic Z-matrix:
 Charge =  0 Multiplicity = 1

                         Standard orientation:
 ---------------------------------------------------------------------
 Center     Atomic      Atomic             Coordinates (Angstroms)
 Number     Number       Type             X           Y           Z
 ---------------------------------------------------------------------
      1          6           0        0.007919   -0.029382    0.000056
      2          1           0        1.127059    0.345313    0.001165
      3          1           0       -0.245786   -0.568337    0.893244
      4          1           0       -0.242607   -0.571450   -0.892134
      5          1           0       -0.686179    0.970765   -0.002614
 ---------------------------------------------------------------------

 SCF Done:  E(RHF) =  -39.9612761476     A.U. after    9 cycles

 The electronic state is 1-A.
 Alpha  occ. eigenvalues --  -11.16959  -0.92787  -0.55826  -0.53492  -0.50082
 Alpha virt. eigenvalues --    0.27679   0.31091   0.34053   0.35684   0.91703
 Alpha virt. eigenvalues --    0.95354   0.99365   1.23798   1.26608   1.34048
 Alpha virt. eigenvalues --    1.36663   1.93440

 Mulliken charges:
               1
     1  C   -0.752311
     2  H    0.177177
     3  H    0.209833
     4  H    0.209832
     5  H    0.155469
 Sum of Mulliken charges =  -0.00000

 Dipole moment (field-independent basis, Debye):
    X=             -0.0386    Y=             -0.0738    Z=              0.0001  Tot=              0.0833
 Quadrupole moment (field-independent basis, Debye-Ang):
   XX=             -8.5099   YY=             -8.6563   ZZ=             -8.4900
   XY=              0.1513   XZ=             -0.0009   YZ=              0.0008

 Normal termination of Gaussian 16 at Fri Sep 22 17:18:01 2023.
