 Gaussian 16, Revision A.03,
 Gaussian 16:  ES64L-G16RevA.03 25-Dec-2016

 ----------
 # hf/3-21g
 ----------

 ------------------------
 tmpdir/M2_conf_252_5.gjf
 ------------------------
 Symbolic Z-matrix:
 Charge =  0 Multiplicity = 1

                         Standard orientation:
 ---------------------------------------------------------------------
 Center     Atomic      Atomic             Coordinates (Angstroms)
 Number     Number       Type             X           Y           Z
 ---------------------------------------------------------------------
      1          1           0       -0.431941   -0.220462    0.956425
      2          6           0       -0.022233    0.017341   -0.006787
      3          1           0       -0.643801   -0.469846   -0.734053
      4          1           0        0.123428    1.072355   -0.142211
      5          1           0        1.085714   -0.486094   -0.039438
 ---------------------------------------------------------------------

 SCF Done:  E(RHF) =  -39.9661730798     A.U. after    9 cycles

 The electronic state is 1-A.
 Alpha  occ. eigenvalues --  -11.15720  -0.93805  -0.56540  -0.54421  -0.50518
 Alpha virt. eigenvalues --    0.28269   0.32328   0.35223   0.36043   0.90934
 Alpha virt. eigenvalues --    0.92843   0.97996   1.24905   1.32707   1.35845
 Alpha virt. eigenvalues --    1.37959   1.94463

 Mulliken charges:
               1
     1  H    0.205076
     2  C   -0.771649
     3  H    0.206226
     4  H    0.207370
     5  H    0.152977
 Sum of Mulliken charges =  -0.00000

 Dipole moment (field-independent basis, Debye):
    X=             -0.0897    Y=              0.0141    Z=              0.0362  Tot=              0.0978
 Quadrupole moment (field-independent basis, Debye-Ang):
   XX=             -8.4763   YY=             -8.3634   ZZ=             -8.5940
   XY=              0.1802   XZ=              0.0215   YZ=             -0.0069

 Normal termination of Gaussian 16 at Fri Sep 22 17:20:32 2023.
