 Gaussian 16, Revision A.03,
 Gaussian 16:  ES64L-G16RevA.03 25-Dec-2016

 ----------
 # hf/3-21g
 ----------

 ------------------------
 tmpdir/M2_conf_221_3.gjf
 ------------------------
 Symbolic Z-matrix:
 Charge =  0 Multiplicity = 1

                         Standard orientation:
 ---------------------------------------------------------------------
 Center     Atomic      Atomic             Coordinates (Angstroms)
 Number     Number       Type             X           Y           Z
 ---------------------------------------------------------------------
      1          6           0       -2.038626    0.000009    0.000008
      2         17           0        1.132274   -0.000008   -0.000002
      3          1           0       -2.338994   -0.278194    0.992266
      4          1           0       -2.338681    0.998718   -0.255262
      5          1           0       -2.339232   -0.720436   -0.737023
 ---------------------------------------------------------------------

 SCF Done:  E(RHF) =  -496.548399380     A.U. after   10 cycles

 The electronic state is 1-A.
 Alpha  occ. eigenvalues -- -104.02282 -11.36035 -10.40961  -7.87279  -7.87076
 Alpha  occ. eigenvalues --   -7.87076  -1.04280  -0.95605  -0.69398  -0.69393
 Alpha  occ. eigenvalues --   -0.37475  -0.37475  -0.35022
 Alpha virt. eigenvalues --   -0.06806   0.21792   0.26540   0.26544   0.72314
 Alpha virt. eigenvalues --    0.79374   0.79385   0.84616   0.89839   0.89843
 Alpha virt. eigenvalues --    0.98352   1.16678   1.23616   1.23626   1.67574

 Mulliken charges:
               1
     1  C   -0.351925
     2  Cl  -0.540168
     3  H    0.297370
     4  H    0.297376
     5  H    0.297347
 Sum of Mulliken charges =  -0.00000

 Dipole moment (field-independent basis, Debye):
    X=             -8.5755    Y=              0.0001    Z=              0.0001  Tot=              8.5755
 Quadrupole moment (field-independent basis, Debye-Ang):
   XX=             -9.4662   YY=            -20.4048   ZZ=            -20.4063
   XY=              0.0002   XZ=              0.0000   YZ=             -0.0001

 Normal termination of Gaussian 16 at Fri Sep 22 17:19:44 2023.
