 Gaussian 16, Revision A.03,
 Gaussian 16:  ES64L-G16RevA.03 25-Dec-2016

 ----------
 # hf/3-21g
 ----------

 -----------------------
 tmpdir/M2_conf_63_8.gjf
 -----------------------
 Symbolic Z-matrix:
 Charge =  0 Multiplicity = 1

                         Standard orientation:
 ---------------------------------------------------------------------
 Center     Atomic      Atomic             Coordinates (Angstroms)
 Number     Number       Type             X           Y           Z
 ---------------------------------------------------------------------
      1          1           0       -1.302973   -0.005778    1.064666
      2          6           0       -1.202985    0.000010   -0.004252
      3         17           0        0.688915    0.000048   -0.007758
      4          1           0       -1.595230   -0.890008   -0.458333
      5          1           0       -1.595434    0.894917   -0.448937
 ---------------------------------------------------------------------

 SCF Done:  E(RHF) =  -496.684483596     A.U. after   11 cycles

 The electronic state is 1-A.
 Alpha  occ. eigenvalues -- -104.08822 -11.24983 -10.48215  -7.94588  -7.94184
 Alpha  occ. eigenvalues --   -7.94182  -1.11410  -0.93302  -0.63467  -0.63188
 Alpha  occ. eigenvalues --   -0.51142  -0.43876  -0.43520
 Alpha virt. eigenvalues --    0.16296   0.27358   0.31378   0.31440   0.73890
 Alpha virt. eigenvalues --    0.80089   0.81050   0.85635   0.92540   0.94967
 Alpha virt. eigenvalues --    1.00101   1.30748   1.31176   1.32356   1.91248

 Mulliken charges:
               1
     1  H    0.276879
     2  C   -0.704055
     3  Cl  -0.107201
     4  H    0.267212
     5  H    0.267164
 Sum of Mulliken charges =   0.00000

 Dipole moment (field-independent basis, Debye):
    X=             -2.8505    Y=             -0.0007    Z=              0.1090  Tot=              2.8526
 Quadrupole moment (field-independent basis, Debye-Ang):
   XX=            -18.5546   YY=            -20.1837   ZZ=            -20.2414
   XY=             -0.0016   XZ=              0.2898   YZ=              0.0000

 Normal termination of Gaussian 16 at Fri Sep 22 17:15:41 2023.
