 Gaussian 16, Revision A.03,
 Gaussian 16:  ES64L-G16RevA.03 25-Dec-2016

 ----------
 # hf/3-21g
 ----------

 ------------------------
 tmpdir/M2_conf_199_5.gjf
 ------------------------
 Symbolic Z-matrix:
 Charge =  0 Multiplicity = 1

                         Standard orientation:
 ---------------------------------------------------------------------
 Center     Atomic      Atomic             Coordinates (Angstroms)
 Number     Number       Type             X           Y           Z
 ---------------------------------------------------------------------
      1          1           0        1.056099    0.042729   -0.317443
      2          6           0        0.025283   -0.029426   -0.026927
      3          1           0       -0.791216   -0.235958   -0.692729
      4          1           0       -0.123754   -0.704259    0.794655
      5          1           0       -0.292829    1.074044    0.377078
 ---------------------------------------------------------------------

 SCF Done:  E(RHF) =  -39.9603875926     A.U. after    9 cycles

 The electronic state is 1-A.
 Alpha  occ. eigenvalues --  -11.15764  -0.93884  -0.58044  -0.53922  -0.49335
 Alpha virt. eigenvalues --    0.28304   0.31478   0.34912   0.36600   0.90358
 Alpha virt. eigenvalues --    0.95265   0.97296   1.25337   1.31381   1.35515
 Alpha virt. eigenvalues --    1.39547   1.94526

 Mulliken charges:
               1
     1  H    0.213050
     2  C   -0.781640
     3  H    0.213432
     4  H    0.206167
     5  H    0.148991
 Sum of Mulliken charges =  -0.00000

 Dipole moment (field-independent basis, Debye):
    X=             -0.0499    Y=             -0.0647    Z=              0.0261  Tot=              0.0858
 Quadrupole moment (field-independent basis, Debye-Ang):
   XX=             -7.9882   YY=             -8.6600   ZZ=             -8.8218
   XY=              0.1170   XZ=              0.0300   YZ=             -0.1468

 Normal termination of Gaussian 16 at Fri Sep 22 17:19:11 2023.
