 Gaussian 16, Revision A.03,
 Gaussian 16:  ES64L-G16RevA.03 25-Dec-2016

 ----------
 # hf/3-21g
 ----------

 ------------------------
 tmpdir/M2_conf_187_2.gjf
 ------------------------
 Symbolic Z-matrix:
 Charge =  0 Multiplicity = 1

                         Standard orientation:
 ---------------------------------------------------------------------
 Center     Atomic      Atomic             Coordinates (Angstroms)
 Number     Number       Type             X           Y           Z
 ---------------------------------------------------------------------
      1          6           0        0.001938   -0.031191    0.000016
      2          1           0       -1.214864    0.183515    0.001683
      3          1           0        0.329568   -0.529447   -0.892507
      4          1           0        0.332969   -0.527423    0.892649
      5          1           0        0.540701    1.060499   -0.001921
 ---------------------------------------------------------------------

 SCF Done:  E(RHF) =  -39.9545335083     A.U. after    9 cycles

 The electronic state is 1-A.
 Alpha  occ. eigenvalues --  -11.17571  -0.92421  -0.55942  -0.52640  -0.49767
 Alpha virt. eigenvalues --    0.26976   0.30346   0.33664   0.35681   0.91599
 Alpha virt. eigenvalues --    0.95786   1.01449   1.21539   1.25430   1.33544
 Alpha virt. eigenvalues --    1.36509   1.92781

 Mulliken charges:
               1
     1  C   -0.740342
     2  H    0.160641
     3  H    0.211242
     4  H    0.211189
     5  H    0.157269
 Sum of Mulliken charges =   0.00000

 Dipole moment (field-independent basis, Debye):
    X=              0.0991    Y=             -0.0711    Z=             -0.0002  Tot=              0.1220
 Quadrupole moment (field-independent basis, Debye-Ang):
   XX=             -8.4807   YY=             -8.7412   ZZ=             -8.5378
   XY=             -0.1311   XZ=              0.0009   YZ=              0.0008

 Normal termination of Gaussian 16 at Fri Sep 22 17:18:53 2023.
