 Gaussian 16, Revision A.03,
 Gaussian 16:  ES64L-G16RevA.03 25-Dec-2016

 ----------
 # hf/3-21g
 ----------

 ------------------------
 tmpdir/M2_conf_284_7.gjf
 ------------------------
 Symbolic Z-matrix:
 Charge =  0 Multiplicity = 1

                         Standard orientation:
 ---------------------------------------------------------------------
 Center     Atomic      Atomic             Coordinates (Angstroms)
 Number     Number       Type             X           Y           Z
 ---------------------------------------------------------------------
      1          1           0        0.355252   -0.308088    0.971692
      2          6           0        0.029655    0.006083   -0.001910
      3          1           0        0.445227   -0.628377   -0.761772
      4          1           0        0.198807    1.052014   -0.173927
      5          1           0       -1.177218   -0.152045   -0.024535
 ---------------------------------------------------------------------

 SCF Done:  E(RHF) =  -39.9669660967     A.U. after    9 cycles

 The electronic state is 1-A.
 Alpha  occ. eigenvalues --  -11.15723  -0.93780  -0.55930  -0.55244  -0.50361
 Alpha virt. eigenvalues --    0.28306   0.32276   0.35535   0.35811   0.91564
 Alpha virt. eigenvalues --    0.92210   0.97736   1.25015   1.32567   1.36563
 Alpha virt. eigenvalues --    1.37253   1.94613

 Mulliken charges:
               1
     1  H    0.205890
     2  C   -0.770640
     3  H    0.206181
     4  H    0.206721
     5  H    0.151849
 Sum of Mulliken charges =   0.00000

 Dipole moment (field-independent basis, Debye):
    X=              0.0765    Y=              0.0026    Z=              0.0121  Tot=              0.0775
 Quadrupole moment (field-independent basis, Debye-Ang):
   XX=             -8.6249   YY=             -8.3547   ZZ=             -8.4560
   XY=             -0.0616   XZ=             -0.0126   YZ=             -0.0008

 Normal termination of Gaussian 16 at Fri Sep 22 17:21:20 2023.
