 Gaussian 16, Revision A.03,
 Gaussian 16:  ES64L-G16RevA.03 25-Dec-2016

 ----------
 # hf/3-21g
 ----------

 -----------------------
 tmpdir/M2_conf_73_3.gjf
 -----------------------
 Symbolic Z-matrix:
 Charge =  0 Multiplicity = 1

                         Standard orientation:
 ---------------------------------------------------------------------
 Center     Atomic      Atomic             Coordinates (Angstroms)
 Number     Number       Type             X           Y           Z
 ---------------------------------------------------------------------
      1          6           0       -1.376410    0.000016    0.000010
      2         17           0        0.781690   -0.000013   -0.000003
      3          1           0       -1.676778   -0.278186    0.992268
      4          1           0       -1.676458    0.998727   -0.255259
      5          1           0       -1.677024   -0.720425   -0.737021
 ---------------------------------------------------------------------

 SCF Done:  E(RHF) =  -496.672482506     A.U. after   10 cycles

 The electronic state is 1-A.
 Alpha  occ. eigenvalues -- -104.08343 -11.27809 -10.47212  -7.93549  -7.93243
 Alpha  occ. eigenvalues --   -7.93243  -1.06096  -0.95754  -0.63541  -0.63537
 Alpha  occ. eigenvalues --   -0.46864  -0.42999  -0.42999
 Alpha virt. eigenvalues --    0.08637   0.26283   0.30877   0.30881   0.73416
 Alpha virt. eigenvalues --    0.79448   0.79453   0.86591   0.93642   0.93652
 Alpha virt. eigenvalues --    1.03205   1.29289   1.29795   1.29805   1.84430

 Mulliken charges:
               1
     1  C   -0.554470
     2  Cl  -0.255575
     3  H    0.270034
     4  H    0.270022
     5  H    0.269989
 Sum of Mulliken charges =  -0.00000

 Dipole moment (field-independent basis, Debye):
    X=             -3.8691    Y=              0.0001    Z=              0.0001  Tot=              3.8691
 Quadrupole moment (field-independent basis, Debye-Ang):
   XX=            -16.7998   YY=            -20.3501   ZZ=            -20.3515
   XY=              0.0006   XZ=             -0.0001   YZ=             -0.0001

 Normal termination of Gaussian 16 at Fri Sep 22 17:15:56 2023.
