 Gaussian 16, Revision A.03,
 Gaussian 16:  ES64L-G16RevA.03 25-Dec-2016

 ----------
 # hf/3-21g
 ----------

 ------------------------
 tmpdir/M2_conf_156_4.gjf
 ------------------------
 Symbolic Z-matrix:
 Charge =  0 Multiplicity = 1

                         Standard orientation:
 ---------------------------------------------------------------------
 Center     Atomic      Atomic             Coordinates (Angstroms)
 Number     Number       Type             X           Y           Z
 ---------------------------------------------------------------------
      1          1           0       -0.358034    0.964360   -0.353054
      2          6           0       -0.033290    0.001225   -0.007944
      3          1           0       -0.154925   -0.802980   -0.708710
      4          1           0       -0.455887   -0.257494    0.944463
      5          1           0        1.168588    0.088764    0.164968
 ---------------------------------------------------------------------

 SCF Done:  E(RHF) =  -39.9664465041     A.U. after    9 cycles

 The electronic state is 1-A.
 Alpha  occ. eigenvalues --  -11.15731  -0.93781  -0.56206  -0.55214  -0.50116
 Alpha virt. eigenvalues --    0.28329   0.32136   0.35499   0.35907   0.91500
 Alpha virt. eigenvalues --    0.92516   0.97520   1.25144   1.32251   1.36528
 Alpha virt. eigenvalues --    1.37508   1.94668

 Mulliken charges:
               1
     1  H    0.207447
     2  C   -0.771463
     3  H    0.207138
     4  H    0.206177
     5  H    0.150701
 Sum of Mulliken charges =  -0.00000

 Dipole moment (field-independent basis, Debye):
    X=             -0.0624    Y=             -0.0197    Z=              0.0011  Tot=              0.0655
 Quadrupole moment (field-independent basis, Debye-Ang):
   XX=             -8.6673   YY=             -8.2993   ZZ=             -8.4759
   XY=             -0.0418   XZ=             -0.0670   YZ=             -0.0069

 Normal termination of Gaussian 16 at Fri Sep 22 17:18:01 2023.
