 Gaussian 16, Revision A.03,
 Gaussian 16:  ES64L-G16RevA.03 25-Dec-2016

 ----------
 # hf/3-21g
 ----------

 ------------------------
 tmpdir/M2_conf_156_2.gjf
 ------------------------
 Symbolic Z-matrix:
 Charge =  0 Multiplicity = 1

                         Standard orientation:
 ---------------------------------------------------------------------
 Center     Atomic      Atomic             Coordinates (Angstroms)
 Number     Number       Type             X           Y           Z
 ---------------------------------------------------------------------
      1          6           0        0.023030   -0.020039   -0.000015
      2          1           0        0.846681    0.756931   -0.004440
      3          1           0        0.024183   -0.614302    0.893881
      4          1           0        0.017833   -0.618596   -0.891264
      5          1           0       -1.026877    0.596199    0.001911
 ---------------------------------------------------------------------

 SCF Done:  E(RHF) =  -39.9652749832     A.U. after    9 cycles

 The electronic state is 1-A.
 Alpha  occ. eigenvalues --  -11.16409  -0.93183  -0.55737  -0.54405  -0.50208
 Alpha virt. eigenvalues --    0.28048   0.31710   0.34629   0.35688   0.91789
 Alpha virt. eigenvalues --    0.94244   0.98163   1.24668   1.29175   1.34736
 Alpha virt. eigenvalues --    1.36801   1.93975

 Mulliken charges:
               1
     1  C   -0.761419
     2  H    0.190810
     3  H    0.208474
     4  H    0.208424
     5  H    0.153711
 Sum of Mulliken charges =  -0.00000

 Dipole moment (field-independent basis, Debye):
    X=              0.0270    Y=             -0.0602    Z=              0.0001  Tot=              0.0660
 Quadrupole moment (field-independent basis, Debye-Ang):
   XX=             -8.6235   YY=             -8.4907   ZZ=             -8.4465
   XY=              0.1379   XZ=              0.0012   YZ=             -0.0002

 Normal termination of Gaussian 16 at Fri Sep 22 17:18:01 2023.
