 Gaussian 16, Revision A.03,
 Gaussian 16:  ES64L-G16RevA.03 25-Dec-2016

 ----------
 # hf/3-21g
 ----------

 -----------------------
 tmpdir/M2_conf_52_0.gjf
 -----------------------
 Symbolic Z-matrix:
 Charge =  0 Multiplicity = 1

                         Standard orientation:
 ---------------------------------------------------------------------
 Center     Atomic      Atomic             Coordinates (Angstroms)
 Number     Number       Type             X           Y           Z
 ---------------------------------------------------------------------
      1          6           0       -0.032251    0.000055    0.012364
      2          1           0       -0.161591   -0.001433    1.001543
      3          1           0       -0.405418    0.894547   -0.449431
      4          1           0       -0.410303   -0.890828   -0.452404
      5          1           0        1.170818   -0.002618   -0.173893
 ---------------------------------------------------------------------

 SCF Done:  E(RHF) =  -39.9614906923     A.U. after    9 cycles

 The electronic state is 1-A.
 Alpha  occ. eigenvalues --  -11.14844  -0.94748  -0.57303  -0.55532  -0.50288
 Alpha virt. eigenvalues --    0.28515   0.32571   0.35681   0.37383   0.88462
 Alpha virt. eigenvalues --    0.92106   0.97555   1.25356   1.34027   1.37085
 Alpha virt. eigenvalues --    1.44001   1.95783

 Mulliken charges:
               1
     1  C   -0.779340
     2  H    0.224466
     3  H    0.203428
     4  H    0.203422
     5  H    0.148024
 Sum of Mulliken charges =  -0.00000

 Dipole moment (field-independent basis, Debye):
    X=             -0.0829    Y=              0.0002    Z=              0.0530  Tot=              0.0984
 Quadrupole moment (field-independent basis, Debye-Ang):
   XX=             -8.5759   YY=             -8.3136   ZZ=             -8.3790
   XY=              0.0012   XZ=              0.0427   YZ=             -0.0004

 Normal termination of Gaussian 16 at Fri Sep 22 17:15:25 2023.
