 Gaussian 16, Revision A.03,
 Gaussian 16:  ES64L-G16RevA.03 25-Dec-2016

 ----------
 # hf/3-21g
 ----------

 ------------------------
 tmpdir/M2_conf_146_2.gjf
 ------------------------
 Symbolic Z-matrix:
 Charge =  0 Multiplicity = 1

                         Standard orientation:
 ---------------------------------------------------------------------
 Center     Atomic      Atomic             Coordinates (Angstroms)
 Number     Number       Type             X           Y           Z
 ---------------------------------------------------------------------
      1          6           0        0.029535   -0.009135   -0.000014
      2          1           0        0.546108    0.967651   -0.008189
      3          1           0        0.222771   -0.568135    0.895741
      4          1           0        0.216854   -0.580613   -0.889366
      5          1           0       -1.162944    0.235910    0.001899
 ---------------------------------------------------------------------

 SCF Done:  E(RHF) =  -39.9665655772     A.U. after    9 cycles

 The electronic state is 1-A.
 Alpha  occ. eigenvalues --  -11.16092  -0.93443  -0.55690  -0.54966  -0.50245
 Alpha virt. eigenvalues --    0.28192   0.31988   0.35077   0.35689   0.91847
 Alpha virt. eigenvalues --    0.93251   0.97825   1.24891   1.30876   1.35432
 Alpha virt. eigenvalues --    1.36870   1.94280

 Mulliken charges:
               1
     1  C   -0.765993
     2  H    0.198234
     3  H    0.207582
     4  H    0.207533
     5  H    0.152643
 Sum of Mulliken charges =  -0.00000

 Dipole moment (field-independent basis, Debye):
    X=              0.0567    Y=             -0.0318    Z=              0.0001  Tot=              0.0650
 Quadrupole moment (field-independent basis, Debye-Ang):
   XX=             -8.6720   YY=             -8.4117   ZZ=             -8.4207
   XY=              0.0616   XZ=              0.0012   YZ=              0.0002

 Normal termination of Gaussian 16 at Fri Sep 22 17:17:45 2023.
