 Gaussian 16, Revision A.03,
 Gaussian 16:  ES64L-G16RevA.03 25-Dec-2016

 ----------
 # hf/3-21g
 ----------

 ------------------------
 tmpdir/M2_conf_220_8.gjf
 ------------------------
 Symbolic Z-matrix:
 Charge =  0 Multiplicity = 1

                         Standard orientation:
 ---------------------------------------------------------------------
 Center     Atomic      Atomic             Coordinates (Angstroms)
 Number     Number       Type             X           Y           Z
 ---------------------------------------------------------------------
      1          1           0        0.528775    0.000053    0.777683
      2          6           0        1.217585    0.000018   -0.045820
      3         17           0       -0.674129   -0.000010   -0.019749
      4          1           0        1.812780    0.892485   -0.083534
      5          1           0        1.813130   -0.892465   -0.083491
 ---------------------------------------------------------------------

 SCF Done:  E(RHF) =  -496.514284267     A.U. after   12 cycles

 The electronic state is 1-A.
 Alpha  occ. eigenvalues -- -104.11719 -11.22218 -10.51681  -7.98043  -7.97542
 Alpha  occ. eigenvalues --   -7.97476  -1.18855  -0.91737  -0.67274  -0.62072
 Alpha  occ. eigenvalues --   -0.51966  -0.47091  -0.37054
 Alpha virt. eigenvalues --    0.11161   0.30999   0.32728   0.33371   0.73505
 Alpha virt. eigenvalues --    0.76916   0.79383   0.83713   0.91506   0.98635
 Alpha virt. eigenvalues --    1.04094   1.20304   1.31735   1.32554   1.80986

 Mulliken charges:
               1
     1  H    0.291242
     2  C   -0.752462
     3  Cl  -0.080015
     4  H    0.270636
     5  H    0.270599
 Sum of Mulliken charges =  -0.00000

 Dipole moment (field-independent basis, Debye):
    X=              1.7915    Y=              0.0001    Z=              0.6968  Tot=              1.9222
 Quadrupole moment (field-independent basis, Debye-Ang):
   XX=            -18.8946   YY=            -19.9949   ZZ=            -21.6095
   XY=             -0.0003   XZ=             -0.4276   YZ=              0.0000

 Normal termination of Gaussian 16 at Fri Sep 22 17:19:43 2023.
