 Gaussian 16, Revision A.03,
 Gaussian 16:  ES64L-G16RevA.03 25-Dec-2016

 ----------
 # hf/3-21g
 ----------

 ------------------------
 tmpdir/M2_conf_265_8.gjf
 ------------------------
 Symbolic Z-matrix:
 Charge =  0 Multiplicity = 1

                         Standard orientation:
 ---------------------------------------------------------------------
 Center     Atomic      Atomic             Coordinates (Angstroms)
 Number     Number       Type             X           Y           Z
 ---------------------------------------------------------------------
      1          1           0        0.389398    0.000005    0.613140
      2          6           0        1.223177    0.000021   -0.063195
      3         17           0       -0.668115   -0.000009   -0.015391
      4          1           0        1.814567    0.892490    0.013839
      5          1           0        1.814922   -0.892460    0.013837
 ---------------------------------------------------------------------

 SCF Done:  E(RHF) =  -496.421858030     A.U. after   12 cycles

 The electronic state is 1-A.
 Alpha  occ. eigenvalues -- -104.14189 -11.19836 -10.54486  -8.00901  -8.00254
 Alpha  occ. eigenvalues --   -8.00192  -1.25114  -0.90745  -0.68986  -0.61151
 Alpha  occ. eigenvalues --   -0.53855  -0.48978  -0.33772
 Alpha virt. eigenvalues --    0.10319   0.32588   0.33793   0.36832   0.71170
 Alpha virt. eigenvalues --    0.73791   0.75475   0.79448   0.92290   0.99290
 Alpha virt. eigenvalues --    1.05396   1.21600   1.33973   1.34744   1.82178

 Mulliken charges:
               1
     1  H    0.257479
     2  C   -0.808829
     3  Cl   0.009889
     4  H    0.270747
     5  H    0.270714
 Sum of Mulliken charges =  -0.00000

 Dipole moment (field-independent basis, Debye):
    X=              0.8281    Y=              0.0000    Z=              1.0083  Tot=              1.3048
 Quadrupole moment (field-independent basis, Debye-Ang):
   XX=            -19.2357   YY=            -19.7734   ZZ=            -22.0754
   XY=             -0.0003   XZ=              0.2954   YZ=              0.0000

 Normal termination of Gaussian 16 at Fri Sep 22 17:20:51 2023.
