 Gaussian 16, Revision A.03,
 Gaussian 16:  ES64L-G16RevA.03 25-Dec-2016

 ----------
 # hf/3-21g
 ----------

 -----------------------
 tmpdir/M2_conf_93_8.gjf
 -----------------------
 Symbolic Z-matrix:
 Charge =  0 Multiplicity = 1

                         Standard orientation:
 ---------------------------------------------------------------------
 Center     Atomic      Atomic             Coordinates (Angstroms)
 Number     Number       Type             X           Y           Z
 ---------------------------------------------------------------------
      1          1           0       -1.415947   -0.033880    1.049850
      2          6           0       -1.202482    0.000046   -0.001767
      3         17           0        0.689419    0.000116   -0.003462
      4          1           0       -1.544558   -0.876202   -0.518829
      5          1           0       -1.544729    0.907829   -0.461566
 ---------------------------------------------------------------------

 SCF Done:  E(RHF) =  -496.688547142     A.U. after   11 cycles

 The electronic state is 1-A.
 Alpha  occ. eigenvalues -- -104.08781 -11.24998 -10.48171  -7.94545  -7.94141
 Alpha  occ. eigenvalues --   -7.94141  -1.11303  -0.93330  -0.63307  -0.63216
 Alpha  occ. eigenvalues --   -0.51287  -0.43782  -0.43660
 Alpha virt. eigenvalues --    0.16545   0.27334   0.31369   0.31400   0.73837
 Alpha virt. eigenvalues --    0.80419   0.80909   0.85540   0.93081   0.94244
 Alpha virt. eigenvalues --    0.99657   1.31129   1.31201   1.32256   1.91866

 Mulliken charges:
               1
     1  H    0.272934
     2  C   -0.702949
     3  Cl  -0.107040
     4  H    0.268551
     5  H    0.268504
 Sum of Mulliken charges =  -0.00000

 Dipole moment (field-independent basis, Debye):
    X=             -2.8635    Y=             -0.0016    Z=              0.0466  Tot=              2.8638
 Quadrupole moment (field-independent basis, Debye-Ang):
   XX=            -18.5671   YY=            -20.1826   ZZ=            -20.1905
   XY=             -0.0042   XZ=              0.1296   YZ=             -0.0001

 Normal termination of Gaussian 16 at Fri Sep 22 17:16:26 2023.
