 Gaussian 16, Revision A.03,
 Gaussian 16:  ES64L-G16RevA.03 25-Dec-2016

 ----------
 # hf/3-21g
 ----------

 ------------------------
 tmpdir/M2_conf_202_9.gjf
 ------------------------
 Symbolic Z-matrix:
 Charge =  0 Multiplicity = 1

                         Standard orientation:
 ---------------------------------------------------------------------
 Center     Atomic      Atomic             Coordinates (Angstroms)
 Number     Number       Type             X           Y           Z
 ---------------------------------------------------------------------
      1          1           0        0.932880   -0.001598    1.021359
      2          6           0        1.207321    0.000021   -0.016569
      3         17           0       -0.684573    0.000029   -0.018575
      4          1           0        1.730473   -0.892052   -0.304169
      5          1           0        1.730464    0.893026   -0.301997
 ---------------------------------------------------------------------

 SCF Done:  E(RHF) =  -496.644061521     A.U. after   11 cycles

 The electronic state is 1-A.
 Alpha  occ. eigenvalues -- -104.09325 -11.24670 -10.48784  -7.95147  -7.94735
 Alpha  occ. eigenvalues --   -7.94719  -1.12674  -0.93008  -0.64611  -0.63062
 Alpha  occ. eigenvalues --   -0.50442  -0.44537  -0.42257
 Alpha virt. eigenvalues --    0.14402   0.27937   0.31562   0.31680   0.74169
 Alpha virt. eigenvalues --    0.78966   0.80636   0.84837   0.93716   0.96995
 Alpha virt. eigenvalues --    1.02110   1.28376   1.31261   1.31799   1.86248

 Mulliken charges:
               1
     1  H    0.288540
     2  C   -0.709274
     3  Cl  -0.112218
     4  H    0.266492
     5  H    0.266460
 Sum of Mulliken charges =  -0.00000

 Dipole moment (field-independent basis, Debye):
    X=              2.6936    Y=             -0.0006    Z=              0.3280  Tot=              2.7135
 Quadrupole moment (field-independent basis, Debye-Ang):
   XX=            -18.5145   YY=            -20.1691   ZZ=            -20.6852
   XY=              0.0009   XZ=             -0.6813   YZ=             -0.0000

 Normal termination of Gaussian 16 at Fri Sep 22 17:19:15 2023.
