 Gaussian 16, Revision A.03,
 Gaussian 16:  ES64L-G16RevA.03 25-Dec-2016

 ----------
 # hf/3-21g
 ----------

 ------------------------
 tmpdir/M2_conf_200_4.gjf
 ------------------------
 Symbolic Z-matrix:
 Charge =  0 Multiplicity = 1

                         Standard orientation:
 ---------------------------------------------------------------------
 Center     Atomic      Atomic             Coordinates (Angstroms)
 Number     Number       Type             X           Y           Z
 ---------------------------------------------------------------------
      1          1           0        0.363904   -0.295120    0.971585
      2          6           0        0.029144    0.007194   -0.002442
      3          1           0        0.463245   -0.622734   -0.755682
      4          1           0        0.171258    1.056776   -0.177900
      5          1           0       -1.173274   -0.182085   -0.023350
 ---------------------------------------------------------------------

 SCF Done:  E(RHF) =  -39.9669373121     A.U. after    9 cycles

 The electronic state is 1-A.
 Alpha  occ. eigenvalues --  -11.15722  -0.93781  -0.55986  -0.55168  -0.50378
 Alpha virt. eigenvalues --    0.28303   0.32283   0.35508   0.35832   0.91488
 Alpha virt. eigenvalues --    0.92280   0.97757   1.25004   1.32584   1.36501
 Alpha virt. eigenvalues --    1.37309   1.94604

 Mulliken charges:
               1
     1  H    0.205847
     2  C   -0.770677
     3  H    0.206162
     4  H    0.206719
     5  H    0.151949
 Sum of Mulliken charges =  -0.00000

 Dipole moment (field-independent basis, Debye):
    X=              0.0778    Y=              0.0031    Z=              0.0143  Tot=              0.0791
 Quadrupole moment (field-independent basis, Debye-Ang):
   XX=             -8.6160   YY=             -8.3498   ZZ=             -8.4694
   XY=             -0.0736   XZ=             -0.0124   YZ=             -0.0011

 Normal termination of Gaussian 16 at Fri Sep 22 17:19:12 2023.
