 Gaussian 16, Revision A.03,
 Gaussian 16:  ES64L-G16RevA.03 25-Dec-2016

 ----------
 # hf/3-21g
 ----------

 ------------------------
 tmpdir/M2_conf_110_6.gjf
 ------------------------
 Symbolic Z-matrix:
 Charge =  0 Multiplicity = 1

                         Standard orientation:
 ---------------------------------------------------------------------
 Center     Atomic      Atomic             Coordinates (Angstroms)
 Number     Number       Type             X           Y           Z
 ---------------------------------------------------------------------
      1          1           0       -1.639246   -0.006364    0.983559
      2          6           0       -1.202674    0.000002    0.002972
      3         17           0        0.689224   -0.000050    0.005577
      4          1           0       -1.430505    0.896270   -0.542380
      5          1           0       -1.431018   -0.889074   -0.553816
 ---------------------------------------------------------------------

 SCF Done:  E(RHF) =  -496.687095443     A.U. after   11 cycles

 The electronic state is 1-A.
 Alpha  occ. eigenvalues -- -104.08793 -11.24995 -10.48183  -7.94557  -7.94152
 Alpha  occ. eigenvalues --   -7.94152  -1.11337  -0.93320  -0.63306  -0.63267
 Alpha  occ. eigenvalues --   -0.51223  -0.43766  -0.43657
 Alpha virt. eigenvalues --    0.16437   0.27328   0.31360   0.31437   0.73854
 Alpha virt. eigenvalues --    0.80209   0.81122   0.85627   0.92687   0.94468
 Alpha virt. eigenvalues --    0.99984   1.30855   1.31284   1.32390   1.91679

 Mulliken charges:
               1
     1  H    0.265428
     2  C   -0.703878
     3  Cl  -0.106718
     4  H    0.272596
     5  H    0.272572
 Sum of Mulliken charges =  -0.00000

 Dipole moment (field-independent basis, Debye):
    X=             -2.8593    Y=              0.0005    Z=             -0.0711  Tot=              2.8601
 Quadrupole moment (field-independent basis, Debye-Ang):
   XX=            -18.5610   YY=            -20.1769   ZZ=            -20.2157
   XY=              0.0020   XZ=             -0.2094   YZ=             -0.0001

 Normal termination of Gaussian 16 at Fri Sep 22 17:16:52 2023.
