 Gaussian 16, Revision A.03,
 Gaussian 16:  ES64L-G16RevA.03 25-Dec-2016

 ----------
 # hf/3-21g
 ----------

 ------------------------
 tmpdir/M2_conf_163_7.gjf
 ------------------------
 Symbolic Z-matrix:
 Charge =  0 Multiplicity = 1

                         Standard orientation:
 ---------------------------------------------------------------------
 Center     Atomic      Atomic             Coordinates (Angstroms)
 Number     Number       Type             X           Y           Z
 ---------------------------------------------------------------------
      1          1           0       -1.055022    0.043715   -0.319554
      2          6           0       -0.024833   -0.029467   -0.026343
      3          1           0        0.788748   -0.241015   -0.694145
      4          1           0        0.120852   -0.701070    0.798218
      5          1           0        0.294422    1.075173    0.373539
 ---------------------------------------------------------------------

 SCF Done:  E(RHF) =  -39.9606996804     A.U. after    9 cycles

 The electronic state is 1-A.
 Alpha  occ. eigenvalues --  -11.15763  -0.93878  -0.57981  -0.53964  -0.49369
 Alpha virt. eigenvalues --    0.28306   0.31508   0.34933   0.36575   0.90380
 Alpha virt. eigenvalues --    0.95165   0.97300   1.25334   1.31402   1.35555
 Alpha virt. eigenvalues --    1.39470   1.94530

 Mulliken charges:
               1
     1  H    0.212745
     2  C   -0.781094
     3  H    0.213099
     4  H    0.206210
     5  H    0.149039
 Sum of Mulliken charges =  -0.00000

 Dipole moment (field-independent basis, Debye):
    X=              0.0480    Y=             -0.0648    Z=              0.0252  Tot=              0.0845
 Quadrupole moment (field-independent basis, Debye-Ang):
   XX=             -7.9997   YY=             -8.6586   ZZ=             -8.8104
   XY=             -0.1178   XZ=             -0.0301   YZ=             -0.1456

 Normal termination of Gaussian 16 at Fri Sep 22 17:18:11 2023.
