 Gaussian 16, Revision A.03,
 Gaussian 16:  ES64L-G16RevA.03 25-Dec-2016

 ----------
 # hf/3-21g
 ----------

 -----------------------
 tmpdir/M2_conf_72_7.gjf
 -----------------------
 Symbolic Z-matrix:
 Charge =  0 Multiplicity = 1

                         Standard orientation:
 ---------------------------------------------------------------------
 Center     Atomic      Atomic             Coordinates (Angstroms)
 Number     Number       Type             X           Y           Z
 ---------------------------------------------------------------------
      1          1           0        0.439275   -0.211261    0.954237
      2          6           0        0.021044    0.018473   -0.007492
      3          1           0        0.663099   -0.447814   -0.730653
      4          1           0       -0.158639    1.068764   -0.137015
      5          1           0       -1.070000   -0.520525   -0.041619
 ---------------------------------------------------------------------

 SCF Done:  E(RHF) =  -39.9659848568     A.U. after    9 cycles

 The electronic state is 1-A.
 Alpha  occ. eigenvalues --  -11.15720  -0.93810  -0.56626  -0.54305  -0.50538
 Alpha virt. eigenvalues --    0.28262   0.32333   0.35177   0.36074   0.90870
 Alpha virt. eigenvalues --    0.92915   0.98039   1.24890   1.32724   1.35740
 Alpha virt. eigenvalues --    1.38068   1.94435

 Mulliken charges:
               1
     1  H    0.204914
     2  C   -0.771881
     3  H    0.206279
     4  H    0.207540
     5  H    0.153149
 Sum of Mulliken charges =  -0.00000

 Dipole moment (field-independent basis, Debye):
    X=              0.0917    Y=              0.0156    Z=              0.0396  Tot=              0.1011
 Quadrupole moment (field-independent basis, Debye-Ang):
   XX=             -8.4521   YY=             -8.3689   ZZ=             -8.6128
   XY=             -0.1899   XZ=             -0.0228   YZ=             -0.0079

 Normal termination of Gaussian 16 at Fri Sep 22 17:15:55 2023.
