 Gaussian 16, Revision A.03,
 Gaussian 16:  ES64L-G16RevA.03 25-Dec-2016

 ----------
 # hf/3-21g
 ----------

 ------------------------
 tmpdir/M2_conf_258_9.gjf
 ------------------------
 Symbolic Z-matrix:
 Charge =  0 Multiplicity = 1

                         Standard orientation:
 ---------------------------------------------------------------------
 Center     Atomic      Atomic             Coordinates (Angstroms)
 Number     Number       Type             X           Y           Z
 ---------------------------------------------------------------------
      1          1           0        1.240598   -0.007123    1.067108
      2          6           0        1.203423    0.000043   -0.005824
      3         17           0       -0.688475    0.000062   -0.009978
      4          1           0        1.621567   -0.889615   -0.436939
      5          1           0        1.621368    0.895429   -0.425600
 ---------------------------------------------------------------------

 SCF Done:  E(RHF) =  -496.680788378     A.U. after   11 cycles

 The electronic state is 1-A.
 Alpha  occ. eigenvalues -- -104.08863 -11.24966 -10.48258  -7.94630  -7.94225
 Alpha  occ. eigenvalues --   -7.94223  -1.11512  -0.93276  -0.63591  -0.63176
 Alpha  occ. eigenvalues --   -0.51028  -0.43943  -0.43410
 Alpha virt. eigenvalues --    0.16085   0.27391   0.31389   0.31468   0.73933
 Alpha virt. eigenvalues --    0.79909   0.81054   0.85637   0.92437   0.95350
 Alpha virt. eigenvalues --    1.00419   1.30468   1.31171   1.32359   1.90700

 Mulliken charges:
               1
     1  H    0.278979
     2  C   -0.704815
     3  Cl  -0.107514
     4  H    0.266688
     5  H    0.266662
 Sum of Mulliken charges =   0.00000

 Dipole moment (field-independent basis, Debye):
    X=              2.8382    Y=             -0.0010    Z=              0.1443  Tot=              2.8418
 Quadrupole moment (field-independent basis, Debye-Ang):
   XX=            -18.5449   YY=            -20.1832   ZZ=            -20.2874
   XY=              0.0021   XZ=             -0.3723   YZ=             -0.0001

 Normal termination of Gaussian 16 at Fri Sep 22 17:20:41 2023.
