 Gaussian 16, Revision A.03,
 Gaussian 16:  ES64L-G16RevA.03 25-Dec-2016

 ----------
 # hf/3-21g
 ----------

 ------------------------
 tmpdir/M2_conf_243_9.gjf
 ------------------------
 Symbolic Z-matrix:
 Charge =  0 Multiplicity = 1

                         Standard orientation:
 ---------------------------------------------------------------------
 Center     Atomic      Atomic             Coordinates (Angstroms)
 Number     Number       Type             X           Y           Z
 ---------------------------------------------------------------------
      1          1           0        0.963405   -0.001788    1.030458
      2          6           0        1.206803    0.000023   -0.015185
      3         17           0       -0.685093    0.000031   -0.017943
      4          1           0        1.721196   -0.891975   -0.318396
      5          1           0        1.721168    0.893104   -0.315918
 ---------------------------------------------------------------------

 SCF Done:  E(RHF) =  -496.649364284     A.U. after   11 cycles

 The electronic state is 1-A.
 Alpha  occ. eigenvalues -- -104.09252 -11.24726 -10.48699  -7.95063  -7.94652
 Alpha  occ. eigenvalues --   -7.94638  -1.12490  -0.93048  -0.64480  -0.63082
 Alpha  occ. eigenvalues --   -0.50476  -0.44449  -0.42439
 Alpha virt. eigenvalues --    0.14611   0.27841   0.31533   0.31650   0.74153
 Alpha virt. eigenvalues --    0.79069   0.80692   0.84935   0.93541   0.96849
 Alpha virt. eigenvalues --    1.01957   1.28666   1.31238   1.31888   1.86780

 Mulliken charges:
               1
     1  H    0.287632
     2  C   -0.708647
     3  Cl  -0.111640
     4  H    0.266343
     5  H    0.266312
 Sum of Mulliken charges =  -0.00000

 Dipole moment (field-independent basis, Debye):
    X=              2.7171    Y=             -0.0006    Z=              0.3086  Tot=              2.7346
 Quadrupole moment (field-independent basis, Debye-Ang):
   XX=            -18.5130   YY=            -20.1722   ZZ=            -20.6332
   XY=              0.0010   XZ=             -0.6607   YZ=             -0.0000

 Normal termination of Gaussian 16 at Fri Sep 22 17:20:18 2023.
