 Gaussian 16, Revision A.03,
 Gaussian 16:  ES64L-G16RevA.03 25-Dec-2016

 ----------
 # hf/3-21g
 ----------

 ------------------------
 tmpdir/M2_conf_214_2.gjf
 ------------------------
 Symbolic Z-matrix:
 Charge =  0 Multiplicity = 1

                         Standard orientation:
 ---------------------------------------------------------------------
 Center     Atomic      Atomic             Coordinates (Angstroms)
 Number     Number       Type             X           Y           Z
 ---------------------------------------------------------------------
      1          6           0        0.032001    0.000015    0.003596
      2          1           0        0.268745   -0.013918    1.032109
      3          1           0        0.363719   -0.884594   -0.505942
      4          1           0        0.358903    0.900389   -0.481257
      5          1           0       -1.183376   -0.001967   -0.066488
 ---------------------------------------------------------------------

 SCF Done:  E(RHF) =  -39.9665474695     A.U. after    9 cycles

 The electronic state is 1-A.
 Alpha  occ. eigenvalues --  -11.15514  -0.93986  -0.56029  -0.55611  -0.50278
 Alpha virt. eigenvalues --    0.28377   0.32338   0.35688   0.36070   0.91108
 Alpha virt. eigenvalues --    0.91959   0.97584   1.25150   1.33046   1.36984
 Alpha virt. eigenvalues --    1.38257   1.94881

 Mulliken charges:
               1
     1  C   -0.773098
     2  H    0.210956
     3  H    0.205801
     4  H    0.205754
     5  H    0.150588
 Sum of Mulliken charges =  -0.00000

 Dipole moment (field-independent basis, Debye):
    X=              0.0750    Y=             -0.0001    Z=              0.0146  Tot=              0.0764
 Quadrupole moment (field-independent basis, Debye-Ang):
   XX=             -8.6391   YY=             -8.3725   ZZ=             -8.3869
   XY=             -0.0011   XZ=             -0.0166   YZ=             -0.0004

 Normal termination of Gaussian 16 at Fri Sep 22 17:19:34 2023.
