 Gaussian 16, Revision A.03,
 Gaussian 16:  ES64L-G16RevA.03 25-Dec-2016

 ----------
 # hf/3-21g
 ----------

 ------------------------
 tmpdir/M2_conf_186_8.gjf
 ------------------------
 Symbolic Z-matrix:
 Charge =  0 Multiplicity = 1

                         Standard orientation:
 ---------------------------------------------------------------------
 Center     Atomic      Atomic             Coordinates (Angstroms)
 Number     Number       Type             X           Y           Z
 ---------------------------------------------------------------------
      1          1           0       -0.952051   -0.000569    1.027247
      2          6           0       -1.206995   -0.000008   -0.015643
      3         17           0        0.684906    0.000018   -0.018190
      4          1           0       -1.724550   -0.892315   -0.312468
      5          1           0       -1.724836    0.892635   -0.311696
 ---------------------------------------------------------------------

 SCF Done:  E(RHF) =  -496.647452077     A.U. after   11 cycles

 The electronic state is 1-A.
 Alpha  occ. eigenvalues -- -104.09278 -11.24706 -10.48729  -7.95093  -7.94682
 Alpha  occ. eigenvalues --   -7.94667  -1.12555  -0.93034  -0.64530  -0.63073
 Alpha  occ. eigenvalues --   -0.50461  -0.44481  -0.42374
 Alpha virt. eigenvalues --    0.14535   0.27875   0.31545   0.31660   0.74159
 Alpha virt. eigenvalues --    0.79031   0.80672   0.84899   0.93607   0.96900
 Alpha virt. eigenvalues --    1.02017   1.28561   1.31244   1.31857   1.86580

 Mulliken charges:
               1
     1  H    0.287977
     2  C   -0.708845
     3  Cl  -0.111873
     4  H    0.266393
     5  H    0.266348
 Sum of Mulliken charges =   0.00000

 Dipole moment (field-independent basis, Debye):
    X=             -2.7088    Y=             -0.0003    Z=              0.3156  Tot=              2.7271
 Quadrupole moment (field-independent basis, Debye-Ang):
   XX=            -18.5133   YY=            -20.1716   ZZ=            -20.6518
   XY=             -0.0005   XZ=              0.6692   YZ=              0.0000

 Normal termination of Gaussian 16 at Fri Sep 22 17:18:51 2023.
