 Gaussian 16, Revision A.03,
 Gaussian 16:  ES64L-G16RevA.03 25-Dec-2016

 ----------
 # hf/3-21g
 ----------

 -----------------------
 tmpdir/M2_conf_38_7.gjf
 -----------------------
 Symbolic Z-matrix:
 Charge =  0 Multiplicity = 1

                         Standard orientation:
 ---------------------------------------------------------------------
 Center     Atomic      Atomic             Coordinates (Angstroms)
 Number     Number       Type             X           Y           Z
 ---------------------------------------------------------------------
      1          1           0       -0.325730    0.976694   -0.340806
      2          6           0       -0.032308    0.000852   -0.002794
      3          1           0       -0.279727   -0.782993   -0.693432
      4          1           0       -0.383956   -0.213453    0.988463
      5          1           0        1.183259    0.014640    0.062541
 ---------------------------------------------------------------------

 SCF Done:  E(RHF) =  -39.9668430884     A.U. after    9 cycles

 The electronic state is 1-A.
 Alpha  occ. eigenvalues --  -11.15727  -0.93777  -0.55830  -0.55494  -0.50221
 Alpha virt. eigenvalues --    0.28323   0.32203   0.35626   0.35760   0.91767
 Alpha virt. eigenvalues --    0.92118   0.97594   1.25094   1.32388   1.36802
 Alpha virt. eigenvalues --    1.37126   1.94661

 Mulliken charges:
               1
     1  H    0.206728
     2  C   -0.770849
     3  H    0.206611
     4  H    0.206384
     5  H    0.151127
 Sum of Mulliken charges =  -0.00000

 Dipole moment (field-independent basis, Debye):
    X=             -0.0681    Y=             -0.0059    Z=              0.0000  Tot=              0.0684
 Quadrupole moment (field-independent basis, Debye-Ang):
   XX=             -8.6648   YY=             -8.3578   ZZ=             -8.4165
   XY=             -0.0074   XZ=             -0.0258   YZ=             -0.0009

 Normal termination of Gaussian 16 at Fri Sep 22 17:15:04 2023.
