 Gaussian 16, Revision A.03,
 Gaussian 16:  ES64L-G16RevA.03 25-Dec-2016

 ----------
 # hf/3-21g
 ----------

 -----------------------
 tmpdir/M2_conf_51_2.gjf
 -----------------------
 Symbolic Z-matrix:
 Charge =  0 Multiplicity = 1

                         Standard orientation:
 ---------------------------------------------------------------------
 Center     Atomic      Atomic             Coordinates (Angstroms)
 Number     Number       Type             X           Y           Z
 ---------------------------------------------------------------------
      1          6           0        0.030733   -0.005143   -0.000014
      2          1           0        0.446399    1.005648   -0.013165
      3          1           0        0.277284   -0.538656    0.898193
      4          1           0        0.271703   -0.560223   -0.886829
      5          1           0       -1.179785    0.124088    0.001883
 ---------------------------------------------------------------------

 SCF Done:  E(RHF) =  -39.9668622163     A.U. after    9 cycles

 The electronic state is 1-A.
 Alpha  occ. eigenvalues --  -11.15952  -0.93566  -0.55670  -0.55220  -0.50256
 Alpha virt. eigenvalues --    0.28244   0.32090   0.35299   0.35689   0.91873
 Alpha virt. eigenvalues --    0.92759   0.97734   1.24966   1.31554   1.35894
 Alpha virt. eigenvalues --    1.36899   1.94418

 Mulliken charges:
               1
     1  C   -0.767858
     2  H    0.201409
     3  H    0.207169
     4  H    0.207121
     5  H    0.152159
 Sum of Mulliken charges =   0.00000

 Dipole moment (field-independent basis, Debye):
    X=              0.0637    Y=             -0.0189    Z=              0.0001  Tot=              0.0665
 Quadrupole moment (field-independent basis, Debye-Ang):
   XX=             -8.6710   YY=             -8.3990   ZZ=             -8.4092
   XY=              0.0330   XZ=              0.0012   YZ=              0.0003

 Normal termination of Gaussian 16 at Fri Sep 22 17:15:24 2023.
