 Gaussian 16, Revision A.03,
 Gaussian 16:  ES64L-G16RevA.03 25-Dec-2016

 ----------
 # hf/3-21g
 ----------

 ------------------------
 tmpdir/M2_conf_112_9.gjf
 ------------------------
 Symbolic Z-matrix:
 Charge =  0 Multiplicity = 1

                         Standard orientation:
 ---------------------------------------------------------------------
 Center     Atomic      Atomic             Coordinates (Angstroms)
 Number     Number       Type             X           Y           Z
 ---------------------------------------------------------------------
      1          1           0        1.249184   -0.007583    1.066990
      2          6           0        1.203356    0.000044   -0.005604
      3         17           0       -0.688543    0.000064   -0.009679
      4          1           0        1.618056   -0.889404   -0.440463
      5          1           0        1.617852    0.895635   -0.428351
 ---------------------------------------------------------------------

 SCF Done:  E(RHF) =  -496.681360790     A.U. after   11 cycles

 The electronic state is 1-A.
 Alpha  occ. eigenvalues -- -104.08856 -11.24968 -10.48251  -7.94624  -7.94219
 Alpha  occ. eigenvalues --   -7.94216  -1.11496  -0.93280  -0.63572  -0.63178
 Alpha  occ. eigenvalues --   -0.51045  -0.43933  -0.43426
 Alpha virt. eigenvalues --    0.16117   0.27385   0.31387   0.31464   0.73927
 Alpha virt. eigenvalues --    0.79934   0.81056   0.85641   0.92441   0.95299
 Alpha virt. eigenvalues --    1.00373   1.30508   1.31172   1.32362   1.90784

 Mulliken charges:
               1
     1  H    0.278693
     2  C   -0.704709
     3  Cl  -0.107456
     4  H    0.266749
     5  H    0.266723
 Sum of Mulliken charges =  -0.00000

 Dipole moment (field-independent basis, Debye):
    X=              2.8401    Y=             -0.0011    Z=              0.1394  Tot=              2.8435
 Quadrupole moment (field-independent basis, Debye-Ang):
   XX=            -18.5463   YY=            -20.1833   ZZ=            -20.2804
   XY=              0.0022   XZ=             -0.3612   YZ=             -0.0001

 Normal termination of Gaussian 16 at Fri Sep 22 17:16:55 2023.
