 Gaussian 16, Revision A.03,
 Gaussian 16:  ES64L-G16RevA.03 25-Dec-2016

 ----------
 # hf/3-21g
 ----------

 ------------------------
 tmpdir/M2_conf_300_0.gjf
 ------------------------
 Symbolic Z-matrix:
 Charge =  0 Multiplicity = 1

                         Standard orientation:
 ---------------------------------------------------------------------
 Center     Atomic      Atomic             Coordinates (Angstroms)
 Number     Number       Type             X           Y           Z
 ---------------------------------------------------------------------
      1          6           0       -0.003270   -0.031311    0.000057
      2          1           0        1.225188    0.169108    0.000753
      3          1           0       -0.339946   -0.522353    0.893450
      4          1           0       -0.337946   -0.526243   -0.891929
      5          1           0       -0.527676    1.067354   -0.002616
 ---------------------------------------------------------------------

 SCF Done:  E(RHF) =  -39.9532607193     A.U. after    9 cycles

 The electronic state is 1-A.
 Alpha  occ. eigenvalues --  -11.17672  -0.92366  -0.55960  -0.52528  -0.49688
 Alpha virt. eigenvalues --    0.26825   0.30237   0.33616   0.35677   0.91591
 Alpha virt. eigenvalues --    0.95818   1.01803   1.21134   1.25344   1.33459
 Alpha virt. eigenvalues --    1.36473   1.92662

 Mulliken charges:
               1
     1  C   -0.738203
     2  H    0.157857
     3  H    0.211395
     4  H    0.211395
     5  H    0.157556
 Sum of Mulliken charges =  -0.00000

 Dipole moment (field-independent basis, Debye):
    X=             -0.1087    Y=             -0.0703    Z=              0.0001  Tot=              0.1294
 Quadrupole moment (field-independent basis, Debye-Ang):
   XX=             -8.4801   YY=             -8.7513   ZZ=             -8.5452
   XY=              0.1289   XZ=             -0.0008   YZ=              0.0010

 Normal termination of Gaussian 16 at Fri Sep 22 17:21:49 2023.
