 Gaussian 16, Revision A.03,
 Gaussian 16:  ES64L-G16RevA.03 25-Dec-2016

 ----------
 # hf/3-21g
 ----------

 ------------------------
 tmpdir/M2_conf_247_4.gjf
 ------------------------
 Symbolic Z-matrix:
 Charge =  0 Multiplicity = 1

                         Standard orientation:
 ---------------------------------------------------------------------
 Center     Atomic      Atomic             Coordinates (Angstroms)
 Number     Number       Type             X           Y           Z
 ---------------------------------------------------------------------
      1          1           0        0.342319   -0.310112    0.977342
      2          6           0        0.030775    0.002926   -0.000991
      3          1           0        0.385646   -0.667447   -0.760783
      4          1           0        0.271780    1.030122   -0.199454
      5          1           0       -1.184393   -0.070119   -0.011162
 ---------------------------------------------------------------------

 SCF Done:  E(RHF) =  -39.9669898383     A.U. after    9 cycles

 The electronic state is 1-A.
 Alpha  occ. eigenvalues --  -11.15724  -0.93777  -0.55782  -0.55441  -0.50317
 Alpha virt. eigenvalues --    0.28313   0.32255   0.35613   0.35748   0.91728
 Alpha virt. eigenvalues --    0.92071   0.97685   1.25041   1.32512   1.36757
 Alpha virt. eigenvalues --    1.37089   1.94634

 Mulliken charges:
               1
     1  H    0.206196
     2  C   -0.770614
     3  H    0.206283
     4  H    0.206536
     5  H    0.151599
 Sum of Mulliken charges =  -0.00000

 Dipole moment (field-independent basis, Debye):
    X=              0.0737    Y=              0.0007    Z=              0.0061  Tot=              0.0739
 Quadrupole moment (field-independent basis, Debye-Ang):
   XX=             -8.6442   YY=             -8.3688   ZZ=             -8.4235
   XY=             -0.0287   XZ=             -0.0058   YZ=             -0.0001

 Normal termination of Gaussian 16 at Fri Sep 22 17:20:24 2023.
