 Gaussian 16, Revision A.03,
 Gaussian 16:  ES64L-G16RevA.03 25-Dec-2016

 ----------
 # hf/3-21g
 ----------

 ------------------------
 tmpdir/M2_conf_261_3.gjf
 ------------------------
 Symbolic Z-matrix:
 Charge =  0 Multiplicity = 1

                         Standard orientation:
 ---------------------------------------------------------------------
 Center     Atomic      Atomic             Coordinates (Angstroms)
 Number     Number       Type             X           Y           Z
 ---------------------------------------------------------------------
      1          6           0       -2.471930    0.000007    0.000008
      2         17           0        1.361670   -0.000007   -0.000002
      3          1           0       -2.772298   -0.278197    0.992265
      4          1           0       -2.771987    0.998715   -0.255263
      5          1           0       -2.772534   -0.720439   -0.737023
 ---------------------------------------------------------------------

 SCF Done:  E(RHF) =  -496.497043150     A.U. after   10 cycles

 The electronic state is 1-A.
 Alpha  occ. eigenvalues -- -103.98704 -11.38816 -10.37477  -7.83797  -7.83618
 Alpha  occ. eigenvalues --   -7.83618  -1.06957  -0.92657  -0.72198  -0.72193
 Alpha  occ. eigenvalues --   -0.34603  -0.34602  -0.30887
 Alpha virt. eigenvalues --   -0.11528   0.19635   0.24234   0.24238   0.74604
 Alpha virt. eigenvalues --    0.78486   0.78499   0.83506   0.90141   0.90142
 Alpha virt. eigenvalues --    0.95333   1.09414   1.21047   1.21057   1.61669

 Mulliken charges:
               1
     1  C   -0.336795
     2  Cl  -0.605959
     3  H    0.314254
     4  H    0.314263
     5  H    0.314237
 Sum of Mulliken charges =  -0.00000

 Dipole moment (field-independent basis, Debye):
    X=            -11.5388    Y=              0.0001    Z=              0.0001  Tot=             11.5388
 Quadrupole moment (field-independent basis, Debye-Ang):
   XX=             -4.5035   YY=            -20.3795   ZZ=            -20.3811
   XY=              0.0002   XZ=              0.0000   YZ=             -0.0001

 Normal termination of Gaussian 16 at Fri Sep 22 17:20:45 2023.
