 Gaussian 16, Revision A.03,
 Gaussian 16:  ES64L-G16RevA.03 25-Dec-2016

 ----------
 # hf/3-21g
 ----------

 -----------------------
 tmpdir/M2_conf_50_9.gjf
 -----------------------
 Symbolic Z-matrix:
 Charge =  0 Multiplicity = 1

                         Standard orientation:
 ---------------------------------------------------------------------
 Center     Atomic      Atomic             Coordinates (Angstroms)
 Number     Number       Type             X           Y           Z
 ---------------------------------------------------------------------
      1          1           0        1.477064   -0.528306    0.892712
      2          6           0        1.202369    0.000283   -0.000458
      3         17           0       -0.689535    0.000519   -0.000894
      4          1           0        1.515573   -0.509351   -0.891733
      5          1           0        1.515240    1.027129    0.016968
 ---------------------------------------------------------------------

 SCF Done:  E(RHF) =  -496.689401445     A.U. after   11 cycles

 The electronic state is 1-A.
 Alpha  occ. eigenvalues -- -104.08773 -11.25001 -10.48163  -7.94537  -7.94133
 Alpha  occ. eigenvalues --   -7.94133  -1.11282  -0.93337  -0.63256  -0.63236
 Alpha  occ. eigenvalues --   -0.51321  -0.43742  -0.43710
 Alpha virt. eigenvalues --    0.16600   0.27332   0.31373   0.31385   0.73826
 Alpha virt. eigenvalues --    0.80603   0.80758   0.85502   0.93487   0.93837
 Alpha virt. eigenvalues --    0.99539   1.31220   1.31225   1.32203   1.91996

 Mulliken charges:
               1
     1  H    0.270770
     2  C   -0.702642
     3  Cl  -0.107048
     4  H    0.269471
     5  H    0.269449
 Sum of Mulliken charges =  -0.00000

 Dipole moment (field-independent basis, Debye):
    X=              2.8661    Y=             -0.0070    Z=              0.0117  Tot=              2.8661
 Quadrupole moment (field-independent basis, Debye-Ang):
   XX=            -18.5698   YY=            -20.1804   ZZ=            -20.1816
   XY=              0.0192   XZ=             -0.0336   YZ=             -0.0004

 Normal termination of Gaussian 16 at Fri Sep 22 17:15:22 2023.
