 Gaussian 16, Revision A.03,
 Gaussian 16:  ES64L-G16RevA.03 25-Dec-2016

 ----------
 # hf/3-21g
 ----------

 ------------------------
 tmpdir/M2_conf_108_4.gjf
 ------------------------
 Symbolic Z-matrix:
 Charge =  0 Multiplicity = 1

                         Standard orientation:
 ---------------------------------------------------------------------
 Center     Atomic      Atomic             Coordinates (Angstroms)
 Number     Number       Type             X           Y           Z
 ---------------------------------------------------------------------
      1          1           0        0.455024   -0.187108    0.949631
      2          6           0        0.018717    0.020321   -0.008908
      3          1           0        0.695275   -0.409842   -0.722944
      4          1           0       -0.224686    1.058554   -0.133132
      5          1           0       -1.037912   -0.583529   -0.040107
 ---------------------------------------------------------------------

 SCF Done:  E(RHF) =  -39.9655574342     A.U. after    9 cycles

 The electronic state is 1-A.
 Alpha  occ. eigenvalues --  -11.15720  -0.93822  -0.56784  -0.54087  -0.50573
 Alpha virt. eigenvalues --    0.28249   0.32337   0.35097   0.36126   0.90730
 Alpha virt. eigenvalues --    0.93086   0.98123   1.24860   1.32724   1.35580
 Alpha virt. eigenvalues --    1.38268   1.94373

 Mulliken charges:
               1
     1  H    0.204782
     2  C   -0.772397
     3  H    0.206413
     4  H    0.207727
     5  H    0.153475
 Sum of Mulliken charges =  -0.00000

 Dipole moment (field-independent basis, Debye):
    X=              0.0959    Y=              0.0184    Z=              0.0461  Tot=              0.1080
 Quadrupole moment (field-independent basis, Debye-Ang):
   XX=             -8.4033   YY=             -8.3814   ZZ=             -8.6494
   XY=             -0.2059   XZ=             -0.0225   YZ=             -0.0092

 Normal termination of Gaussian 16 at Fri Sep 22 17:16:49 2023.
