 Gaussian 16, Revision A.03,
 Gaussian 16:  ES64L-G16RevA.03 25-Dec-2016

 ----------
 # hf/3-21g
 ----------

 ------------------------
 tmpdir/M2_conf_180_8.gjf
 ------------------------
 Symbolic Z-matrix:
 Charge =  0 Multiplicity = 1

                         Standard orientation:
 ---------------------------------------------------------------------
 Center     Atomic      Atomic             Coordinates (Angstroms)
 Number     Number       Type             X           Y           Z
 ---------------------------------------------------------------------
      1          1           0       -1.106541   -0.001296    1.059415
      2          6           0       -1.204764   -0.000004   -0.009681
      3         17           0        0.687130    0.000024   -0.014280
      4          1           0       -1.672912   -0.892021   -0.380248
      5          1           0       -1.673165    0.892928   -0.378319
 ---------------------------------------------------------------------

 SCF Done:  E(RHF) =  -496.668972172     A.U. after   11 cycles

 The electronic state is 1-A.
 Alpha  occ. eigenvalues -- -104.09000 -11.24894 -10.48409  -7.94779  -7.94372
 Alpha  occ. eigenvalues --   -7.94366  -1.11857  -0.93192  -0.63958  -0.63141
 Alpha  occ. eigenvalues --   -0.50740  -0.44134  -0.43064
 Alpha virt. eigenvalues --    0.15475   0.27530   0.31439   0.31539   0.74044
 Alpha virt. eigenvalues --    0.79517   0.80935   0.85406   0.92744   0.96109
 Alpha virt. eigenvalues --    1.01175   1.29741   1.31176   1.32215   1.89061

 Mulliken charges:
               1
     1  H    0.283292
     2  C   -0.706485
     3  Cl  -0.109025
     4  H    0.266132
     5  H    0.266086
 Sum of Mulliken charges =  -0.00000

 Dipole moment (field-independent basis, Debye):
    X=             -2.7962    Y=             -0.0004    Z=              0.2216  Tot=              2.8050
 Quadrupole moment (field-independent basis, Debye-Ang):
   XX=            -18.5237   YY=            -20.1812   ZZ=            -20.4253
   XY=             -0.0007   XZ=              0.5314   YZ=              0.0000

 Normal termination of Gaussian 16 at Fri Sep 22 17:18:37 2023.
