 Gaussian 16, Revision A.03,
 Gaussian 16:  ES64L-G16RevA.03 25-Dec-2016

 ----------
 # hf/3-21g
 ----------

 -----------------------
 tmpdir/M2_conf_81_8.gjf
 -----------------------
 Symbolic Z-matrix:
 Charge =  0 Multiplicity = 1

                         Standard orientation:
 ---------------------------------------------------------------------
 Center     Atomic      Atomic             Coordinates (Angstroms)
 Number     Number       Type             X           Y           Z
 ---------------------------------------------------------------------
      1          1           0       -1.592358   -0.030918    1.001756
      2          6           0       -1.202499   -0.000068    0.001918
      3         17           0        0.689405   -0.000110    0.003658
      4          1           0       -1.456204   -0.875460   -0.565091
      5          1           0       -1.456320    0.908650   -0.510356
 ---------------------------------------------------------------------

 SCF Done:  E(RHF) =  -496.688465158     A.U. after   11 cycles

 The electronic state is 1-A.
 Alpha  occ. eigenvalues -- -104.08781 -11.24999 -10.48171  -7.94545  -7.94141
 Alpha  occ. eigenvalues --   -7.94141  -1.11304  -0.93329  -0.63281  -0.63245
 Alpha  occ. eigenvalues --   -0.51281  -0.43762  -0.43679
 Alpha virt. eigenvalues --    0.16535   0.27331   0.31364   0.31408   0.73838
 Alpha virt. eigenvalues --    0.80379   0.80965   0.85554   0.93020   0.94244
 Alpha virt. eigenvalues --    0.99713   1.31033   1.31265   1.32297   1.91865

 Mulliken charges:
               1
     1  H    0.266856
     2  C   -0.703119
     3  Cl  -0.106948
     4  H    0.271629
     5  H    0.271581
 Sum of Mulliken charges =  -0.00000

 Dipole moment (field-independent basis, Debye):
    X=             -2.8633    Y=              0.0013    Z=             -0.0472  Tot=              2.8637
 Quadrupole moment (field-independent basis, Debye-Ang):
   XX=            -18.5665   YY=            -20.1791   ZZ=            -20.1952
   XY=              0.0043   XZ=             -0.1368   YZ=              0.0002

 Normal termination of Gaussian 16 at Fri Sep 22 17:16:08 2023.
