 Gaussian 16, Revision A.03,
 Gaussian 16:  ES64L-G16RevA.03 25-Dec-2016

 ----------
 # hf/3-21g
 ----------

 -----------------------
 tmpdir/M2_conf_57_6.gjf
 -----------------------
 Symbolic Z-matrix:
 Charge =  0 Multiplicity = 1

                         Standard orientation:
 ---------------------------------------------------------------------
 Center     Atomic      Atomic             Coordinates (Angstroms)
 Number     Number       Type             X           Y           Z
 ---------------------------------------------------------------------
      1          1           0       -1.345324   -0.009520    1.060531
      2          6           0       -1.202746    0.000048   -0.003314
      3         17           0        0.689149    0.000044   -0.006181
      4          1           0       -1.576648    0.896897   -0.459899
      5          1           0       -1.577089   -0.888414   -0.475662
 ---------------------------------------------------------------------

 SCF Done:  E(RHF) =  -496.686391563     A.U. after   11 cycles

 The electronic state is 1-A.
 Alpha  occ. eigenvalues -- -104.08803 -11.24990 -10.48194  -7.94567  -7.94163
 Alpha  occ. eigenvalues --   -7.94162  -1.11360  -0.93315  -0.63394  -0.63199
 Alpha  occ. eigenvalues --   -0.51208  -0.43838  -0.43580
 Alpha virt. eigenvalues --    0.16410   0.27346   0.31372   0.31422   0.73866
 Alpha virt. eigenvalues --    0.80213   0.81016   0.85605   0.92685   0.94714
 Alpha virt. eigenvalues --    0.99909   1.30899   1.31179   1.32348   1.91540

 Mulliken charges:
               1
     1  H    0.275456
     2  C   -0.703602
     3  Cl  -0.107083
     4  H    0.267624
     5  H    0.267605
 Sum of Mulliken charges =  -0.00000

 Dipole moment (field-independent basis, Debye):
    X=             -2.8567    Y=             -0.0007    Z=              0.0857  Tot=              2.8579
 Quadrupole moment (field-independent basis, Debye-Ang):
   XX=            -18.5601   YY=            -20.1823   ZZ=            -20.2186
   XY=             -0.0016   XZ=              0.2305   YZ=             -0.0002

 Normal termination of Gaussian 16 at Fri Sep 22 17:15:32 2023.
