 Gaussian 16, Revision A.03,
 Gaussian 16:  ES64L-G16RevA.03 25-Dec-2016

 ----------
 # hf/3-21g
 ----------

 -----------------------
 tmpdir/M2_conf_82_5.gjf
 -----------------------
 Symbolic Z-matrix:
 Charge =  0 Multiplicity = 1

                         Standard orientation:
 ---------------------------------------------------------------------
 Center     Atomic      Atomic             Coordinates (Angstroms)
 Number     Number       Type             X           Y           Z
 ---------------------------------------------------------------------
      1          1           0       -0.528925   -0.096510    0.907522
      2          6           0       -0.002908    0.027092   -0.019956
      3          1           0       -0.822242   -0.214701   -0.670220
      4          1           0        0.501308    0.972790   -0.083452
      5          1           0        0.867309   -0.824132   -0.034112
 ---------------------------------------------------------------------

 SCF Done:  E(RHF) =  -39.9595773300     A.U. after    9 cycles

 The electronic state is 1-A.
 Alpha  occ. eigenvalues --  -11.15731  -0.93980  -0.58059  -0.52309  -0.50784
 Alpha virt. eigenvalues --    0.28095   0.32293   0.34448   0.36461   0.90043
 Alpha virt. eigenvalues --    0.94179   0.99052   1.24624   1.32260   1.34556
 Alpha virt. eigenvalues --    1.40054   1.93533

 Mulliken charges:
               1
     1  H    0.203236
     2  C   -0.778311
     3  H    0.208266
     4  H    0.210343
     5  H    0.156466
 Sum of Mulliken charges =  -0.00000

 Dipole moment (field-independent basis, Debye):
    X=             -0.1383    Y=              0.0307    Z=              0.1024  Tot=              0.1748
 Quadrupole moment (field-independent basis, Debye-Ang):
   XX=             -8.0575   YY=             -8.4456   ZZ=             -8.9439
   XY=              0.2381   XZ=              0.0237   YZ=             -0.0146

 Normal termination of Gaussian 16 at Fri Sep 22 17:16:10 2023.
