 Gaussian 16, Revision A.03,
 Gaussian 16:  ES64L-G16RevA.03 25-Dec-2016

 ----------
 # hf/3-21g
 ----------

 -----------------------
 tmpdir/M2_conf_25_5.gjf
 -----------------------
 Symbolic Z-matrix:
 Charge =  0 Multiplicity = 1

                         Standard orientation:
 ---------------------------------------------------------------------
 Center     Atomic      Atomic             Coordinates (Angstroms)
 Number     Number       Type             X           Y           Z
 ---------------------------------------------------------------------
      1          1           0        1.072194    0.013361   -0.289176
      2          6           0        0.030440   -0.029702   -0.034066
      3          1           0       -0.825747   -0.170825   -0.666246
      4          1           0       -0.171231   -0.731967    0.752548
      5          1           0       -0.257853    1.067644    0.407272
 ---------------------------------------------------------------------

 SCF Done:  E(RHF) =  -39.9552330041     A.U. after    9 cycles

 The electronic state is 1-A.
 Alpha  occ. eigenvalues --  -11.15785  -0.93978  -0.58845  -0.53445  -0.48791
 Alpha virt. eigenvalues --    0.28258   0.30962   0.34710   0.36889   0.90034
 Alpha virt. eigenvalues --    0.96870   0.97319   1.25329   1.30967   1.35220
 Alpha virt. eigenvalues --    1.40586   1.94405

 Mulliken charges:
               1
     1  H    0.217185
     2  C   -0.790703
     3  H    0.218687
     4  H    0.206428
     5  H    0.148404
 Sum of Mulliken charges =   0.00000

 Dipole moment (field-independent basis, Debye):
    X=             -0.0765    Y=             -0.0641    Z=              0.0421  Tot=              0.1084
 Quadrupole moment (field-independent basis, Debye-Ang):
   XX=             -7.8280   YY=             -8.6760   ZZ=             -8.9845
   XY=              0.1017   XZ=              0.0252   YZ=             -0.1594

 Normal termination of Gaussian 16 at Fri Sep 22 17:14:45 2023.
