 Gaussian 16, Revision A.03,
 Gaussian 16:  ES64L-G16RevA.03 25-Dec-2016

 ----------
 # hf/3-21g
 ----------

 ------------------------
 tmpdir/M2_conf_283_8.gjf
 ------------------------
 Symbolic Z-matrix:
 Charge =  0 Multiplicity = 1

                         Standard orientation:
 ---------------------------------------------------------------------
 Center     Atomic      Atomic             Coordinates (Angstroms)
 Number     Number       Type             X           Y           Z
 ---------------------------------------------------------------------
      1          1           0        0.429367    0.000016    0.667125
      2          6           0        1.221412    0.000020   -0.057638
      3         17           0       -0.670051   -0.000010   -0.017023
      4          1           0        1.816339    0.892490   -0.015955
      5          1           0        1.816693   -0.892460   -0.015948
 ---------------------------------------------------------------------

 SCF Done:  E(RHF) =  -496.453274583     A.U. after   12 cycles

 The electronic state is 1-A.
 Alpha  occ. eigenvalues -- -104.13316 -11.20625 -10.53512  -7.99904  -7.99314
 Alpha  occ. eigenvalues --   -7.99246  -1.22877  -0.91050  -0.68419  -0.61433
 Alpha  occ. eigenvalues --   -0.53221  -0.48381  -0.34769
 Alpha virt. eigenvalues --    0.10492   0.32149   0.33427   0.35523   0.72531
 Alpha virt. eigenvalues --    0.75960   0.76286   0.80375   0.91505   0.99078
 Alpha virt. eigenvalues --    1.04951   1.20403   1.33459   1.33492   1.81555

 Mulliken charges:
               1
     1  H    0.272972
     2  C   -0.789435
     3  Cl  -0.025754
     4  H    0.271125
     5  H    0.271092
 Sum of Mulliken charges =  -0.00000

 Dipole moment (field-independent basis, Debye):
    X=              1.1655    Y=              0.0001    Z=              0.8935  Tot=              1.4686
 Quadrupole moment (field-independent basis, Debye-Ang):
   XX=            -19.1390   YY=            -19.8520   ZZ=            -21.9242
   XY=             -0.0003   XZ=              0.0132   YZ=              0.0000

 Normal termination of Gaussian 16 at Fri Sep 22 17:21:18 2023.
