 Gaussian 16, Revision A.03,
 Gaussian 16:  ES64L-G16RevA.03 25-Dec-2016

 ----------
 # hf/3-21g
 ----------

 ------------------------
 tmpdir/M2_conf_291_9.gjf
 ------------------------
 Symbolic Z-matrix:
 Charge =  0 Multiplicity = 1

                         Standard orientation:
 ---------------------------------------------------------------------
 Center     Atomic      Atomic             Coordinates (Angstroms)
 Number     Number       Type             X           Y           Z
 ---------------------------------------------------------------------
      1          1           0        1.317183   -0.013660    1.063450
      2          6           0        1.202896    0.000057   -0.003962
      3         17           0       -0.689002    0.000087   -0.007233
      4          1           0        1.589362   -0.886550   -0.469544
      5          1           0        1.589119    0.898390   -0.447173
 ---------------------------------------------------------------------

 SCF Done:  E(RHF) =  -496.685173673     A.U. after   11 cycles

 The electronic state is 1-A.
 Alpha  occ. eigenvalues -- -104.08815 -11.24986 -10.48207  -7.94581  -7.94176
 Alpha  occ. eigenvalues --   -7.94175  -1.11392  -0.93307  -0.63438  -0.63193
 Alpha  occ. eigenvalues --   -0.51166  -0.43863  -0.43541
 Alpha virt. eigenvalues --    0.16337   0.27354   0.31374   0.31435   0.73881
 Alpha virt. eigenvalues --    0.80130   0.81041   0.85627   0.92583   0.94883
 Alpha virt. eigenvalues --    1.00034   1.30800   1.31180   1.32352   1.91354

 Mulliken charges:
               1
     1  H    0.276385
     2  C   -0.703902
     3  Cl  -0.107142
     4  H    0.267342
     5  H    0.267317
 Sum of Mulliken charges =   0.00000

 Dipole moment (field-independent basis, Debye):
    X=              2.8527    Y=             -0.0014    Z=              0.1012  Tot=              2.8545
 Quadrupole moment (field-independent basis, Debye-Ang):
   XX=            -18.5563   YY=            -20.1832   ZZ=            -20.2333
   XY=              0.0030   XZ=             -0.2701   YZ=             -0.0001

 Normal termination of Gaussian 16 at Fri Sep 22 17:21:36 2023.
