 Gaussian 16, Revision A.03,
 Gaussian 16:  ES64L-G16RevA.03 25-Dec-2016

 ----------
 # hf/3-21g
 ----------

 ------------------------
 tmpdir/M2_conf_123_7.gjf
 ------------------------
 Symbolic Z-matrix:
 Charge =  0 Multiplicity = 1

                         Standard orientation:
 ---------------------------------------------------------------------
 Center     Atomic      Atomic             Coordinates (Angstroms)
 Number     Number       Type             X           Y           Z
 ---------------------------------------------------------------------
      1          1           0       -1.067223    0.016673   -0.299060
      2          6           0       -0.028477   -0.029771   -0.031729
      3          1           0        0.816644   -0.185896   -0.675164
      4          1           0        0.159893   -0.723428    0.765473
      5          1           0        0.261546    1.071279    0.399124
 ---------------------------------------------------------------------

 SCF Done:  E(RHF) =  -39.9570932168     A.U. after    9 cycles

 The electronic state is 1-A.
 Alpha  occ. eigenvalues --  -11.15778  -0.93944  -0.58581  -0.53596  -0.48984
 Alpha virt. eigenvalues --    0.28276   0.31145   0.34775   0.36794   0.90118
 Alpha virt. eigenvalues --    0.96351   0.97281   1.25343   1.31088   1.35319
 Alpha virt. eigenvalues --    1.40232   1.94441

 Mulliken charges:
               1
     1  H    0.215658
     2  C   -0.787409
     3  H    0.216771
     4  H    0.206392
     5  H    0.148588
 Sum of Mulliken charges =  -0.00000

 Dipole moment (field-independent basis, Debye):
    X=              0.0680    Y=             -0.0641    Z=              0.0367  Tot=              0.1004
 Quadrupole moment (field-independent basis, Debye-Ang):
   XX=             -7.8795   YY=             -8.6712   ZZ=             -8.9312
   XY=             -0.1035   XZ=             -0.0259   YZ=             -0.1563

 Normal termination of Gaussian 16 at Fri Sep 22 17:17:11 2023.
