 Gaussian 16, Revision A.03,
 Gaussian 16:  ES64L-G16RevA.03 25-Dec-2016

 ----------
 # hf/3-21g
 ----------

 ----------------------
 tmpdir/M2_conf_6_4.gjf
 ----------------------
 Symbolic Z-matrix:
 Charge =  0 Multiplicity = 1

                         Standard orientation:
 ---------------------------------------------------------------------
 Center     Atomic      Atomic             Coordinates (Angstroms)
 Number     Number       Type             X           Y           Z
 ---------------------------------------------------------------------
      1          1           0        0.490669   -0.137259    0.933725
      2          6           0        0.011798    0.024259   -0.013261
      3          1           0        0.765607   -0.307518   -0.701968
      4          1           0       -0.376600    1.020224   -0.112281
      5          1           0       -0.950464   -0.721003   -0.039912
 ---------------------------------------------------------------------

 SCF Done:  E(RHF) =  -39.9637376614     A.U. after    9 cycles

 The electronic state is 1-A.
 Alpha  occ. eigenvalues --  -11.15722  -0.93870  -0.57290  -0.53388  -0.50671
 Alpha virt. eigenvalues --    0.28198   0.32336   0.34837   0.36280   0.90385
 Alpha virt. eigenvalues --    0.93561   0.98438   1.24769   1.32658   1.35091
 Alpha virt. eigenvalues --    1.38948   1.94119

 Mulliken charges:
               1
     1  H    0.204215
     2  C   -0.774424
     3  H    0.207013
     4  H    0.208615
     5  H    0.154581
 Sum of Mulliken charges =   0.00000

 Dipole moment (field-independent basis, Debye):
    X=              0.1104    Y=              0.0254    Z=              0.0673  Tot=              0.1318
 Quadrupole moment (field-independent basis, Debye-Ang):
   XX=             -8.2550   YY=             -8.4171   ZZ=             -8.7648
   XY=             -0.2311   XZ=             -0.0237   YZ=             -0.0127

 Normal termination of Gaussian 16 at Fri Sep 22 17:14:16 2023.
