 Gaussian 16, Revision A.03,
 Gaussian 16:  ES64L-G16RevA.03 25-Dec-2016

 ----------
 # hf/3-21g
 ----------

 -----------------------
 tmpdir/M2_conf_52_5.gjf
 -----------------------
 Symbolic Z-matrix:
 Charge =  0 Multiplicity = 1

                         Standard orientation:
 ---------------------------------------------------------------------
 Center     Atomic      Atomic             Coordinates (Angstroms)
 Number     Number       Type             X           Y           Z
 ---------------------------------------------------------------------
      1          1           0        0.486279    0.911467   -0.349868
      2          6           0        0.034153   -0.001626   -0.012182
      3          1           0       -0.023467   -0.809870   -0.716475
      4          1           0        0.460757   -0.355857    0.907132
      5          1           0       -1.128484    0.264014    0.232304
 ---------------------------------------------------------------------

 SCF Done:  E(RHF) =  -39.9658214022     A.U. after    9 cycles

 The electronic state is 1-A.
 Alpha  occ. eigenvalues --  -11.15736  -0.93790  -0.56565  -0.54949  -0.50002
 Alpha virt. eigenvalues --    0.28332   0.32055   0.35380   0.36043   0.91246
 Alpha virt. eigenvalues --    0.92951   0.97457   1.25192   1.32103   1.36293
 Alpha virt. eigenvalues --    1.37879   1.94664

 Mulliken charges:
               1
     1  H    0.208214
     2  C   -0.772464
     3  H    0.207842
     4  H    0.206090
     5  H    0.150318
 Sum of Mulliken charges =  -0.00000

 Dipole moment (field-independent basis, Debye):
    X=              0.0530    Y=             -0.0376    Z=              0.0044  Tot=              0.0651
 Quadrupole moment (field-independent basis, Debye-Ang):
   XX=             -8.6411   YY=             -8.2667   ZZ=             -8.5385
   XY=              0.1175   XZ=              0.0910   YZ=             -0.0245

 Normal termination of Gaussian 16 at Fri Sep 22 17:15:25 2023.
