 Gaussian 16, Revision A.03,
 Gaussian 16:  ES64L-G16RevA.03 25-Dec-2016

 ----------
 # hf/3-21g
 ----------

 ------------------------
 tmpdir/M2_conf_197_2.gjf
 ------------------------
 Symbolic Z-matrix:
 Charge =  0 Multiplicity = 1

                         Standard orientation:
 ---------------------------------------------------------------------
 Center     Atomic      Atomic             Coordinates (Angstroms)
 Number     Number       Type             X           Y           Z
 ---------------------------------------------------------------------
      1          6           0        0.002539   -0.031249    0.000016
      2          1           0       -1.219669    0.176862    0.001643
      3          1           0        0.333181   -0.527547   -0.892488
      4          1           0        0.336509   -0.525472    0.892669
      5          1           0        0.534747    1.063652   -0.001922
 ---------------------------------------------------------------------

 SCF Done:  E(RHF) =  -39.9539495358     A.U. after    9 cycles

 The electronic state is 1-A.
 Alpha  occ. eigenvalues --  -11.17617  -0.92396  -0.55951  -0.52587  -0.49732
 Alpha virt. eigenvalues --    0.26908   0.30295   0.33643   0.35681   0.91592
 Alpha virt. eigenvalues --    0.95800   1.01614   1.21351   1.25389   1.33510
 Alpha virt. eigenvalues --    1.36496   1.92728

 Mulliken charges:
               1
     1  C   -0.739374
     2  H    0.159361
     3  H    0.211334
     4  H    0.211282
     5  H    0.157397
 Sum of Mulliken charges =  -0.00000

 Dipole moment (field-independent basis, Debye):
    X=              0.1036    Y=             -0.0708    Z=             -0.0002  Tot=              0.1255
 Quadrupole moment (field-independent basis, Debye-Ang):
   XX=             -8.4801   YY=             -8.7459   ZZ=             -8.5413
   XY=             -0.1301   XZ=              0.0009   YZ=              0.0009

 Normal termination of Gaussian 16 at Fri Sep 22 17:19:08 2023.
