 Gaussian 16, Revision A.03,
 Gaussian 16:  ES64L-G16RevA.03 25-Dec-2016

 ----------
 # hf/3-21g
 ----------

 ------------------------
 tmpdir/M2_conf_111_2.gjf
 ------------------------
 Symbolic Z-matrix:
 Charge =  0 Multiplicity = 1

                         Standard orientation:
 ---------------------------------------------------------------------
 Center     Atomic      Atomic             Coordinates (Angstroms)
 Number     Number       Type             X           Y           Z
 ---------------------------------------------------------------------
      1          6           0        0.029600   -0.008954   -0.000014
      2          1           0        0.541405    0.969774   -0.008319
      3          1           0        0.225450   -0.566940    0.895806
      4          1           0        0.219547   -0.579667   -0.889300
      5          1           0       -1.164003    0.230557    0.001898
 ---------------------------------------------------------------------

 SCF Done:  E(RHF) =  -39.9665814224     A.U. after    9 cycles

 The electronic state is 1-A.
 Alpha  occ. eigenvalues --  -11.16087  -0.93448  -0.55689  -0.54977  -0.50245
 Alpha virt. eigenvalues --    0.28194   0.31992   0.35086   0.35689   0.91848
 Alpha virt. eigenvalues --    0.93231   0.97821   1.24895   1.30905   1.35449
 Alpha virt. eigenvalues --    1.36871   1.94286

 Mulliken charges:
               1
     1  C   -0.766072
     2  H    0.198368
     3  H    0.207565
     4  H    0.207516
     5  H    0.152623
 Sum of Mulliken charges =  -0.00000

 Dipole moment (field-independent basis, Debye):
    X=              0.0570    Y=             -0.0312    Z=              0.0001  Tot=              0.0650
 Quadrupole moment (field-independent basis, Debye-Ang):
   XX=             -8.6721   YY=             -8.4110   ZZ=             -8.4202
   XY=              0.0602   XZ=              0.0012   YZ=              0.0002

 Normal termination of Gaussian 16 at Fri Sep 22 17:16:53 2023.
