 Gaussian 16, Revision A.03,
 Gaussian 16:  ES64L-G16RevA.03 25-Dec-2016

 ----------
 # hf/3-21g
 ----------

 -----------------------
 tmpdir/M2_conf_44_9.gjf
 -----------------------
 Symbolic Z-matrix:
 Charge =  0 Multiplicity = 1

                         Standard orientation:
 ---------------------------------------------------------------------
 Center     Atomic      Atomic             Coordinates (Angstroms)
 Number     Number       Type             X           Y           Z
 ---------------------------------------------------------------------
      1          1           0        1.210182   -0.005796    1.066936
      2          6           0        1.203677    0.000039   -0.006628
      3         17           0       -0.688215    0.000056   -0.011014
      4          1           0        1.633795   -0.890221   -0.424517
      5          1           0        1.633614    0.894836   -0.415403
 ---------------------------------------------------------------------

 SCF Done:  E(RHF) =  -496.678590133     A.U. after   11 cycles

 The electronic state is 1-A.
 Alpha  occ. eigenvalues -- -104.08887 -11.24954 -10.48284  -7.94656  -7.94251
 Alpha  occ. eigenvalues --   -7.94248  -1.11574  -0.93260  -0.63663  -0.63169
 Alpha  occ. eigenvalues --   -0.50966  -0.43980  -0.43346
 Alpha virt. eigenvalues --    0.15965   0.27413   0.31398   0.31482   0.73957
 Alpha virt. eigenvalues --    0.79821   0.81041   0.85614   0.92447   0.95529
 Alpha virt. eigenvalues --    1.00585   1.30320   1.31170   1.32343   1.90381

 Mulliken charges:
               1
     1  H    0.279982
     2  C   -0.705196
     3  Cl  -0.107750
     4  H    0.266496
     5  H    0.266469
 Sum of Mulliken charges =  -0.00000

 Dipole moment (field-independent basis, Debye):
    X=              2.8307    Y=             -0.0009    Z=              0.1616  Tot=              2.8353
 Quadrupole moment (field-independent basis, Debye-Ang):
   XX=            -18.5400   YY=            -20.1830   ZZ=            -20.3139
   XY=              0.0018   XZ=             -0.4108   YZ=             -0.0001

 Normal termination of Gaussian 16 at Fri Sep 22 17:15:13 2023.
