 Gaussian 16, Revision A.03,
 Gaussian 16:  ES64L-G16RevA.03 25-Dec-2016

 ----------
 # hf/3-21g
 ----------

 -----------------------
 tmpdir/M2_conf_31_9.gjf
 -----------------------
 Symbolic Z-matrix:
 Charge =  0 Multiplicity = 1

                         Standard orientation:
 ---------------------------------------------------------------------
 Center     Atomic      Atomic             Coordinates (Angstroms)
 Number     Number       Type             X           Y           Z
 ---------------------------------------------------------------------
      1          1           0        1.662815   -0.012681    0.973487
      2          6           0        1.202794   -0.000031    0.003519
      3         17           0       -0.689106   -0.000096    0.006538
      4          1           0        1.417829   -0.885215   -0.564289
      5          1           0        1.417398    0.899719   -0.541459
 ---------------------------------------------------------------------

 SCF Done:  E(RHF) =  -496.686183765     A.U. after   11 cycles

 The electronic state is 1-A.
 Alpha  occ. eigenvalues -- -104.08801 -11.24993 -10.48190  -7.94564  -7.94160
 Alpha  occ. eigenvalues --   -7.94160  -1.11358  -0.93313  -0.63321  -0.63283
 Alpha  occ. eigenvalues --   -0.51185  -0.43764  -0.43647
 Alpha virt. eigenvalues --    0.16371   0.27327   0.31362   0.31450   0.73864
 Alpha virt. eigenvalues --    0.80129   0.81199   0.85675   0.92503   0.94568
 Alpha virt. eigenvalues --    1.00172   1.30727   1.31302   1.32464   1.91561

 Mulliken charges:
               1
     1  H    0.264706
     2  C   -0.704427
     3  Cl  -0.106550
     4  H    0.273145
     5  H    0.273126
 Sum of Mulliken charges =  -0.00000

 Dipole moment (field-independent basis, Debye):
    X=              2.8566    Y=              0.0011    Z=             -0.0832  Tot=              2.8579
 Quadrupole moment (field-independent basis, Debye-Ang):
   XX=            -18.5571   YY=            -20.1771   ZZ=            -20.2277
   XY=             -0.0039   XZ=              0.2453   YZ=              0.0000

 Normal termination of Gaussian 16 at Fri Sep 22 17:14:54 2023.
