 Gaussian 16, Revision A.03,
 Gaussian 16:  ES64L-G16RevA.03 25-Dec-2016

 ----------
 # hf/3-21g
 ----------

 -----------------------
 tmpdir/M2_conf_89_3.gjf
 -----------------------
 Symbolic Z-matrix:
 Charge =  0 Multiplicity = 1

                         Standard orientation:
 ---------------------------------------------------------------------
 Center     Atomic      Atomic             Coordinates (Angstroms)
 Number     Number       Type             X           Y           Z
 ---------------------------------------------------------------------
      1          6           0       -1.222953    0.000019    0.000011
      2         17           0        0.700447   -0.000014   -0.000003
      3          1           0       -1.523320   -0.278183    0.992269
      4          1           0       -1.522997    0.998731   -0.255257
      5          1           0       -1.523570   -0.720421   -0.737021
 ---------------------------------------------------------------------

 SCF Done:  E(RHF) =  -496.689166168     A.U. after   10 cycles

 The electronic state is 1-A.
 Alpha  occ. eigenvalues -- -104.08776 -11.25343 -10.48083  -7.94451  -7.94062
 Alpha  occ. eigenvalues --   -7.94062  -1.10519  -0.93657  -0.63197  -0.63192
 Alpha  occ. eigenvalues --   -0.50777  -0.43701  -0.43701
 Alpha virt. eigenvalues --    0.15530   0.27205   0.31347   0.31351   0.73755
 Alpha virt. eigenvalues --    0.80535   0.80539   0.85498   0.93645   0.93657
 Alpha virt. eigenvalues --    1.00371   1.31087   1.31096   1.31821   1.90979

 Mulliken charges:
               1
     1  C   -0.682809
     2  Cl  -0.126976
     3  H    0.269953
     4  H    0.269930
     5  H    0.269902
 Sum of Mulliken charges =   0.00000

 Dipole moment (field-independent basis, Debye):
    X=             -2.9752    Y=              0.0001    Z=              0.0001  Tot=              2.9752
 Quadrupole moment (field-independent basis, Debye-Ang):
   XX=            -18.3721   YY=            -20.2070   ZZ=            -20.2083
   XY=              0.0007   XZ=             -0.0001   YZ=             -0.0001

 Normal termination of Gaussian 16 at Fri Sep 22 17:16:20 2023.
