 Gaussian 16, Revision A.03,
 Gaussian 16:  ES64L-G16RevA.03 25-Dec-2016

 ----------
 # hf/3-21g
 ----------

 ------------------------
 tmpdir/M2_conf_272_1.gjf
 ------------------------
 Symbolic Z-matrix:
 Charge =  0 Multiplicity = 1

                         Standard orientation:
 ---------------------------------------------------------------------
 Center     Atomic      Atomic             Coordinates (Angstroms)
 Number     Number       Type             X           Y           Z
 ---------------------------------------------------------------------
      1          6           0       -0.032192   -0.000060    0.008736
      2          1           0       -0.195464   -0.002922    1.020138
      3          1           0       -0.392633   -0.891647   -0.468062
      4          1           0       -0.394722    0.893290   -0.463603
      5          1           0        1.175973    0.001640   -0.140890
 ---------------------------------------------------------------------

 SCF Done:  E(RHF) =  -39.9646229040     A.U. after    9 cycles

 The electronic state is 1-A.
 Alpha  occ. eigenvalues --  -11.15152  -0.94377  -0.56713  -0.55564  -0.50286
 Alpha virt. eigenvalues --    0.28459   0.32482   0.35684   0.36765   0.89693
 Alpha virt. eigenvalues --    0.92028   0.97551   1.25269   1.33686   1.37043
 Alpha virt. eigenvalues --    1.41117   1.95326

 Mulliken charges:
               1
     1  C   -0.776739
     2  H    0.218390
     3  H    0.204587
     4  H    0.204532
     5  H    0.149229
 Sum of Mulliken charges =   0.00000

 Dipole moment (field-independent basis, Debye):
    X=             -0.0797    Y=             -0.0003    Z=              0.0369  Tot=              0.0878
 Quadrupole moment (field-independent basis, Debye-Ang):
   XX=             -8.6051   YY=             -8.3419   ZZ=             -8.3826
   XY=             -0.0005   XZ=              0.0361   YZ=             -0.0001

 Normal termination of Gaussian 16 at Fri Sep 22 17:21:02 2023.
