 Gaussian 16, Revision A.03,
 Gaussian 16:  ES64L-G16RevA.03 25-Dec-2016

 ----------
 # hf/3-21g
 ----------

 ------------------------
 tmpdir/M2_conf_175_9.gjf
 ------------------------
 Symbolic Z-matrix:
 Charge =  0 Multiplicity = 1

                         Standard orientation:
 ---------------------------------------------------------------------
 Center     Atomic      Atomic             Coordinates (Angstroms)
 Number     Number       Type             X           Y           Z
 ---------------------------------------------------------------------
      1          1           0        0.796590   -0.001006    0.966878
      2          6           0        1.210039    0.000016   -0.023918
      3         17           0       -0.681857    0.000024   -0.020622
      4          1           0        1.767336   -0.892288   -0.237014
      5          1           0        1.767417    0.892792   -0.235779
 ---------------------------------------------------------------------

 SCF Done:  E(RHF) =  -496.614375242     A.U. after   11 cycles

 The electronic state is 1-A.
 Alpha  occ. eigenvalues -- -104.09763 -11.24287 -10.49310  -7.95668  -7.95245
 Alpha  occ. eigenvalues --   -7.95215  -1.13796  -0.92766  -0.65288  -0.62920
 Alpha  occ. eigenvalues --   -0.50468  -0.45056  -0.41155
 Alpha virt. eigenvalues --    0.13379   0.28543   0.31765   0.31860   0.74179
 Alpha virt. eigenvalues --    0.78451   0.80391   0.84527   0.94229   0.97599
 Alpha virt. eigenvalues --    1.02727   1.26594   1.31359   1.31441   1.83855

 Mulliken charges:
               1
     1  H    0.292454
     2  C   -0.714023
     3  Cl  -0.113497
     4  H    0.267550
     5  H    0.267516
 Sum of Mulliken charges =  -0.00000

 Dipole moment (field-independent basis, Debye):
    X=              2.5442    Y=             -0.0005    Z=              0.4214  Tot=              2.5788
 Quadrupole moment (field-independent basis, Debye-Ang):
   XX=            -18.5516   YY=            -20.1464   ZZ=            -20.9488
   XY=              0.0007   XZ=             -0.7306   YZ=             -0.0000

 Normal termination of Gaussian 16 at Fri Sep 22 17:18:30 2023.
