 Gaussian 16, Revision A.03,
 Gaussian 16:  ES64L-G16RevA.03 25-Dec-2016

 ----------
 # hf/3-21g
 ----------

 ------------------------
 tmpdir/M2_conf_295_0.gjf
 ------------------------
 Symbolic Z-matrix:
 Charge =  0 Multiplicity = 1

                         Standard orientation:
 ---------------------------------------------------------------------
 Center     Atomic      Atomic             Coordinates (Angstroms)
 Number     Number       Type             X           Y           Z
 ---------------------------------------------------------------------
      1          6           0       -0.032248    0.000055    0.018413
      2          1           0       -0.121330   -0.000836    0.962620
      3          1           0       -0.421870    0.894250   -0.430177
      4          1           0       -0.426662   -0.891127   -0.431962
      5          1           0        1.163349   -0.002616   -0.210962
 ---------------------------------------------------------------------

 SCF Done:  E(RHF) =  -39.9514494296     A.U. after    9 cycles

 The electronic state is 1-A.
 Alpha  occ. eigenvalues --  -11.14292  -0.95517  -0.58390  -0.55480  -0.50289
 Alpha virt. eigenvalues --    0.28593   0.32689   0.35677   0.38519   0.86272
 Alpha virt. eigenvalues --    0.92231   0.97603   1.25493   1.34484   1.37152
 Alpha virt. eigenvalues --    1.49927   1.96912

 Mulliken charges:
               1
     1  C   -0.782853
     2  H    0.234602
     3  H    0.201265
     4  H    0.201258
     5  H    0.145728
 Sum of Mulliken charges =   0.00000

 Dipole moment (field-independent basis, Debye):
    X=             -0.0877    Y=              0.0002    Z=              0.0773  Tot=              0.1169
 Quadrupole moment (field-independent basis, Debye-Ang):
   XX=             -8.5211   YY=             -8.2616   ZZ=             -8.3687
   XY=              0.0011   XZ=              0.0498   YZ=             -0.0004

 Normal termination of Gaussian 16 at Fri Sep 22 17:21:41 2023.
