 Gaussian 16, Revision A.03,
 Gaussian 16:  ES64L-G16RevA.03 25-Dec-2016

 ----------
 # hf/3-21g
 ----------

 -----------------------
 tmpdir/M2_conf_84_1.gjf
 -----------------------
 Symbolic Z-matrix:
 Charge =  0 Multiplicity = 1

                         Standard orientation:
 ---------------------------------------------------------------------
 Center     Atomic      Atomic             Coordinates (Angstroms)
 Number     Number       Type             X           Y           Z
 ---------------------------------------------------------------------
      1          6           0       -0.024794   -0.017915    0.000059
      2          1           0       -0.784975    0.814233   -0.002708
      3          1           0       -0.067052   -0.609911    0.894451
      4          1           0       -0.066908   -0.616053   -0.890482
      5          1           0        1.067697    0.519223   -0.001613
 ---------------------------------------------------------------------

 SCF Done:  E(RHF) =  -39.9655824754     A.U. after    9 cycles

 The electronic state is 1-A.
 Alpha  occ. eigenvalues --  -11.16349  -0.93231  -0.55725  -0.54515  -0.50215
 Alpha virt. eigenvalues --    0.28079   0.31766   0.34711   0.35687   0.91796
 Alpha virt. eigenvalues --    0.94078   0.98079   1.24719   1.29501   1.34847
 Alpha virt. eigenvalues --    1.36812   1.94033

 Mulliken charges:
               1
     1  C   -0.762327
     2  H    0.192249
     3  H    0.208310
     4  H    0.208255
     5  H    0.153513
 Sum of Mulliken charges =   0.00000

 Dipole moment (field-independent basis, Debye):
    X=             -0.0345    Y=             -0.0554    Z=              0.0003  Tot=              0.0652
 Quadrupole moment (field-independent basis, Debye-Ang):
   XX=             -8.6407   YY=             -8.4672   ZZ=             -8.4422
   XY=             -0.1242   XZ=              0.0003   YZ=              0.0003

 Normal termination of Gaussian 16 at Fri Sep 22 17:16:13 2023.
