 Gaussian 16, Revision A.03,
 Gaussian 16:  ES64L-G16RevA.03 25-Dec-2016

 ----------
 # hf/3-21g
 ----------

 -----------------------
 tmpdir/M2_conf_37_5.gjf
 -----------------------
 Symbolic Z-matrix:
 Charge =  0 Multiplicity = 1

                         Standard orientation:
 ---------------------------------------------------------------------
 Center     Atomic      Atomic             Coordinates (Angstroms)
 Number     Number       Type             X           Y           Z
 ---------------------------------------------------------------------
      1          1           0       -0.561180   -0.074990    0.879240
      2          6           0        0.004874    0.028496   -0.026884
      3          1           0       -0.857362   -0.163798   -0.636963
      4          1           0        0.567783    0.942170   -0.057583
      5          1           0        0.821517   -0.874357   -0.023389
 ---------------------------------------------------------------------

 SCF Done:  E(RHF) =  -39.9536255974     A.U. after    9 cycles

 The electronic state is 1-A.
 Alpha  occ. eigenvalues --  -11.15747  -0.94145  -0.58838  -0.51274  -0.50778
 Alpha virt. eigenvalues --    0.27954   0.32214   0.34062   0.36580   0.89910
 Alpha virt. eigenvalues --    0.94655   0.99806   1.24455   1.31547   1.34230
 Alpha virt. eigenvalues --    1.41185   1.92661

 Mulliken charges:
               1
     1  H    0.201743
     2  C   -0.782508
     3  H    0.209580
     4  H    0.212554
     5  H    0.158631
 Sum of Mulliken charges =   0.00000

 Dipole moment (field-independent basis, Debye):
    X=             -0.1733    Y=              0.0328    Z=              0.1429  Tot=              0.2270
 Quadrupole moment (field-independent basis, Debye-Ang):
   XX=             -7.8803   YY=             -8.4530   ZZ=             -9.1319
   XY=              0.2363   XZ=              0.0224   YZ=             -0.0138

 Normal termination of Gaussian 16 at Fri Sep 22 17:15:02 2023.
