 Gaussian 16, Revision A.03,
 Gaussian 16:  ES64L-G16RevA.03 25-Dec-2016

 ----------
 # hf/3-21g
 ----------

 ------------------------
 tmpdir/M2_conf_196_3.gjf
 ------------------------
 Symbolic Z-matrix:
 Charge =  0 Multiplicity = 1

                         Standard orientation:
 ---------------------------------------------------------------------
 Center     Atomic      Atomic             Coordinates (Angstroms)
 Number     Number       Type             X           Y           Z
 ---------------------------------------------------------------------
      1          6           0       -1.909230    0.000010    0.000009
      2         17           0        1.063770   -0.000009   -0.000002
      3          1           0       -2.209598   -0.278193    0.992266
      4          1           0       -2.209284    0.998719   -0.255262
      5          1           0       -2.209837   -0.720434   -0.737023
 ---------------------------------------------------------------------

 SCF Done:  E(RHF) =  -496.569092434     A.U. after   10 cycles

 The electronic state is 1-A.
 Alpha  occ. eigenvalues -- -104.03529 -11.34803 -10.42177  -7.88493  -7.88282
 Alpha  occ. eigenvalues --   -7.88282  -1.03307  -0.96617  -0.68276  -0.68271
 Alpha  occ. eigenvalues --   -0.38498  -0.38498  -0.36694
 Alpha virt. eigenvalues --   -0.04821   0.22619   0.27413   0.27417   0.72508
 Alpha virt. eigenvalues --    0.79158   0.79167   0.86231   0.90551   0.90556
 Alpha virt. eigenvalues --    0.97961   1.19619   1.24655   1.24664   1.70638

 Mulliken charges:
               1
     1  C   -0.363952
     2  Cl  -0.507258
     3  H    0.290410
     4  H    0.290415
     5  H    0.290384
 Sum of Mulliken charges =  -0.00000

 Dipole moment (field-independent basis, Debye):
    X=             -7.6300    Y=              0.0001    Z=              0.0001  Tot=              7.6300
 Quadrupole moment (field-independent basis, Debye-Ang):
   XX=            -10.9090   YY=            -20.4150   ZZ=            -20.4165
   XY=              0.0003   XZ=             -0.0000   YZ=             -0.0001

 Normal termination of Gaussian 16 at Fri Sep 22 17:19:06 2023.
