 Gaussian 16, Revision A.03,
 Gaussian 16:  ES64L-G16RevA.03 25-Dec-2016

 ----------
 # hf/3-21g
 ----------

 ------------------------
 tmpdir/M2_conf_138_7.gjf
 ------------------------
 Symbolic Z-matrix:
 Charge =  0 Multiplicity = 1

                         Standard orientation:
 ---------------------------------------------------------------------
 Center     Atomic      Atomic             Coordinates (Angstroms)
 Number     Number       Type             X           Y           Z
 ---------------------------------------------------------------------
      1          1           0       -0.348814    0.969140   -0.349112
      2          6           0       -0.033250    0.001475   -0.007554
      3          1           0       -0.170669   -0.798926   -0.709758
      4          1           0       -0.451795   -0.253694    0.947372
      5          1           0        1.170780    0.074629    0.156821
 ---------------------------------------------------------------------

 SCF Done:  E(RHF) =  -39.9664765418     A.U. after    9 cycles

 The electronic state is 1-A.
 Alpha  occ. eigenvalues --  -11.15731  -0.93781  -0.56182  -0.55232  -0.50122
 Alpha virt. eigenvalues --    0.28329   0.32140   0.35510   0.35895   0.91507
 Alpha virt. eigenvalues --    0.92501   0.97523   1.25142   1.32257   1.36553
 Alpha virt. eigenvalues --    1.37479   1.94669

 Mulliken charges:
               1
     1  H    0.207356
     2  C   -0.771420
     3  H    0.207094
     4  H    0.206245
     5  H    0.150726
 Sum of Mulliken charges =  -0.00000

 Dipole moment (field-independent basis, Debye):
    X=             -0.0630    Y=             -0.0185    Z=              0.0013  Tot=              0.0656
 Quadrupole moment (field-independent basis, Debye-Ang):
   XX=             -8.6688   YY=             -8.3013   ZZ=             -8.4721
   XY=             -0.0355   XZ=             -0.0640   YZ=             -0.0057

 Normal termination of Gaussian 16 at Fri Sep 22 17:17:33 2023.
