 Gaussian 16, Revision A.03,
 Gaussian 16:  ES64L-G16RevA.03 25-Dec-2016

 ----------
 # hf/3-21g
 ----------

 -----------------------
 tmpdir/M2_conf_67_7.gjf
 -----------------------
 Symbolic Z-matrix:
 Charge =  0 Multiplicity = 1

                         Standard orientation:
 ---------------------------------------------------------------------
 Center     Atomic      Atomic             Coordinates (Angstroms)
 Number     Number       Type             X           Y           Z
 ---------------------------------------------------------------------
      1          1           0       -0.359541    0.965610   -0.349707
      2          6           0       -0.033407    0.001385   -0.008351
      3          1           0       -0.147705   -0.801782   -0.711538
      4          1           0       -0.459591   -0.264285    0.940311
      5          1           0        1.167276    0.092149    0.171042
 ---------------------------------------------------------------------

 SCF Done:  E(RHF) =  -39.9663868177     A.U. after    9 cycles

 The electronic state is 1-A.
 Alpha  occ. eigenvalues --  -11.15732  -0.93782  -0.56245  -0.55185  -0.50103
 Alpha virt. eigenvalues --    0.28329   0.32127   0.35489   0.35919   0.91461
 Alpha virt. eigenvalues --    0.92574   0.97511   1.25150   1.32232   1.36511
 Alpha virt. eigenvalues --    1.37543   1.94669

 Mulliken charges:
               1
     1  H    0.207479
     2  C   -0.771562
     3  H    0.207201
     4  H    0.206225
     5  H    0.150657
 Sum of Mulliken charges =   0.00000

 Dipole moment (field-independent basis, Debye):
    X=             -0.0619    Y=             -0.0210    Z=              0.0018  Tot=              0.0654
 Quadrupole moment (field-independent basis, Debye-Ang):
   XX=             -8.6679   YY=             -8.2921   ZZ=             -8.4829
   XY=             -0.0434   XZ=             -0.0697   YZ=             -0.0074

 Normal termination of Gaussian 16 at Fri Sep 22 17:15:48 2023.
