 Gaussian 16, Revision A.03,
 Gaussian 16:  ES64L-G16RevA.03 25-Dec-2016

 ----------
 # hf/3-21g
 ----------

 -----------------------
 tmpdir/M2_conf_79_8.gjf
 -----------------------
 Symbolic Z-matrix:
 Charge =  0 Multiplicity = 1

                         Standard orientation:
 ---------------------------------------------------------------------
 Center     Atomic      Atomic             Coordinates (Angstroms)
 Number     Number       Type             X           Y           Z
 ---------------------------------------------------------------------
      1          1           0       -1.540948   -0.258294    0.986379
      2          6           0       -1.202382   -0.000217    0.000789
      3         17           0        0.689512   -0.000391    0.001506
      4          1           0       -1.483164   -0.730289   -0.734284
      5          1           0       -1.483297    0.996523   -0.282436
 ---------------------------------------------------------------------

 SCF Done:  E(RHF) =  -496.689299582     A.U. after   11 cycles

 The electronic state is 1-A.
 Alpha  occ. eigenvalues -- -104.08774 -11.25001 -10.48163  -7.94538  -7.94134
 Alpha  occ. eigenvalues --   -7.94134  -1.11285  -0.93335  -0.63258  -0.63239
 Alpha  occ. eigenvalues --   -0.51316  -0.43746  -0.43705
 Alpha virt. eigenvalues --    0.16594   0.27332   0.31371   0.31388   0.73827
 Alpha virt. eigenvalues --    0.80559   0.80801   0.85508   0.93388   0.93928
 Alpha virt. eigenvalues --    0.99556   1.31182   1.31243   1.32217   1.91982

 Mulliken charges:
               1
     1  H    0.268562
     2  C   -0.702701
     3  Cl  -0.107043
     4  H    0.270615
     5  H    0.270567
 Sum of Mulliken charges =  -0.00000

 Dipole moment (field-independent basis, Debye):
    X=             -2.8658    Y=              0.0051    Z=             -0.0198  Tot=              2.8659
 Quadrupole moment (field-independent basis, Debye-Ang):
   XX=            -18.5698   YY=            -20.1802   ZZ=            -20.1830
   XY=              0.0147   XZ=             -0.0561   YZ=              0.0004

 Normal termination of Gaussian 16 at Fri Sep 22 17:16:05 2023.
