 Gaussian 16, Revision A.03,
 Gaussian 16:  ES64L-G16RevA.03 25-Dec-2016

 ----------
 # hf/3-21g
 ----------

 -----------------------
 tmpdir/M2_conf_92_4.gjf
 -----------------------
 Symbolic Z-matrix:
 Charge =  0 Multiplicity = 1

                         Standard orientation:
 ---------------------------------------------------------------------
 Center     Atomic      Atomic             Coordinates (Angstroms)
 Number     Number       Type             X           Y           Z
 ---------------------------------------------------------------------
      1          1           0        0.377709   -0.282076    0.968774
      2          6           0        0.028023    0.009480   -0.003286
      3          1           0        0.504209   -0.595618   -0.751423
      4          1           0        0.111968    1.066778   -0.169658
      5          1           0       -1.162023   -0.245967   -0.027975
 ---------------------------------------------------------------------

 SCF Done:  E(RHF) =  -39.9668562243     A.U. after    9 cycles

 The electronic state is 1-A.
 Alpha  occ. eigenvalues --  -11.15721  -0.93784  -0.56097  -0.55019  -0.50409
 Alpha virt. eigenvalues --    0.28298   0.32295   0.35451   0.35876   0.91365
 Alpha virt. eigenvalues --    0.92393   0.97799   1.24984   1.32618   1.36365
 Alpha virt. eigenvalues --    1.37434   1.94583

 Mulliken charges:
               1
     1  H    0.205673
     2  C   -0.770784
     3  H    0.206134
     4  H    0.206831
     5  H    0.152146
 Sum of Mulliken charges =  -0.00000

 Dipole moment (field-independent basis, Debye):
    X=              0.0801    Y=              0.0049    Z=              0.0187  Tot=              0.0824
 Quadrupole moment (field-independent basis, Debye-Ang):
   XX=             -8.5949   YY=             -8.3454   ZZ=             -8.4944
   XY=             -0.0983   XZ=             -0.0150   YZ=             -0.0020

 Normal termination of Gaussian 16 at Fri Sep 22 17:16:25 2023.
