 Gaussian 16, Revision A.03,
 Gaussian 16:  ES64L-G16RevA.03 25-Dec-2016

 ----------
 # hf/3-21g
 ----------

 ------------------------
 tmpdir/M2_conf_264_0.gjf
 ------------------------
 Symbolic Z-matrix:
 Charge =  0 Multiplicity = 1

                         Standard orientation:
 ---------------------------------------------------------------------
 Center     Atomic      Atomic             Coordinates (Angstroms)
 Number     Number       Type             X           Y           Z
 ---------------------------------------------------------------------
      1          6           0       -0.032255    0.000055    0.013116
      2          1           0       -0.155451   -0.001326    0.997234
      3          1           0       -0.407962    0.894493   -0.446719
      4          1           0       -0.412833   -0.890881   -0.449481
      5          1           0        1.169775   -0.002617   -0.179732
 ---------------------------------------------------------------------

 SCF Done:  E(RHF) =  -39.9606143044     A.U. after    9 cycles

 The electronic state is 1-A.
 Alpha  occ. eigenvalues --  -11.14778  -0.94833  -0.57431  -0.55525  -0.50289
 Alpha virt. eigenvalues --    0.28525   0.32588   0.35681   0.37518   0.88199
 Alpha virt. eigenvalues --    0.92120   0.97558   1.25374   1.34090   1.37094
 Alpha virt. eigenvalues --    1.44661   1.95894

 Mulliken charges:
               1
     1  C   -0.779842
     2  H    0.225728
     3  H    0.203181
     4  H    0.203175
     5  H    0.147758
 Sum of Mulliken charges =  -0.00000

 Dipole moment (field-independent basis, Debye):
    X=             -0.0835    Y=              0.0002    Z=              0.0562  Tot=              0.1007
 Quadrupole moment (field-independent basis, Debye-Ang):
   XX=             -8.5695   YY=             -8.3076   ZZ=             -8.3780
   XY=              0.0011   XZ=              0.0439   YZ=             -0.0004

 Normal termination of Gaussian 16 at Fri Sep 22 17:20:50 2023.
