 Gaussian 16, Revision A.03,
 Gaussian 16:  ES64L-G16RevA.03 25-Dec-2016

 ----------
 # hf/3-21g
 ----------

 ------------------------
 tmpdir/M2_conf_221_4.gjf
 ------------------------
 Symbolic Z-matrix:
 Charge =  0 Multiplicity = 1

                         Standard orientation:
 ---------------------------------------------------------------------
 Center     Atomic      Atomic             Coordinates (Angstroms)
 Number     Number       Type             X           Y           Z
 ---------------------------------------------------------------------
      1          1           0        0.396355   -0.262287    0.965022
      2          6           0        0.026315    0.012336   -0.004432
      3          1           0        0.555005   -0.556869   -0.745447
      4          1           0        0.032562    1.074516   -0.160440
      5          1           0       -1.141809   -0.329379   -0.032545
 ---------------------------------------------------------------------

 SCF Done:  E(RHF) =  -39.9666947124     A.U. after    9 cycles

 The electronic state is 1-A.
 Alpha  occ. eigenvalues --  -11.15721  -0.93790  -0.56243  -0.54822  -0.50447
 Alpha virt. eigenvalues --    0.28289   0.32309   0.35375   0.35933   0.91214
 Alpha virt. eigenvalues --    0.92543   0.97859   1.24957   1.32656   1.36190
 Alpha virt. eigenvalues --    1.37601   1.94550

 Mulliken charges:
               1
     1  H    0.205461
     2  C   -0.770993
     3  H    0.206129
     4  H    0.206992
     5  H    0.152412
 Sum of Mulliken charges =   0.00000

 Dipole moment (field-independent basis, Debye):
    X=              0.0832    Y=              0.0077    Z=              0.0245  Tot=              0.0871
 Quadrupole moment (field-independent basis, Debye-Ang):
   XX=             -8.5613   YY=             -8.3456   ZZ=             -8.5272
   XY=             -0.1290   XZ=             -0.0177   YZ=             -0.0034

 Normal termination of Gaussian 16 at Fri Sep 22 17:19:44 2023.
