 Gaussian 16, Revision A.03,
 Gaussian 16:  ES64L-G16RevA.03 25-Dec-2016

 ----------
 # hf/3-21g
 ----------

 ------------------------
 tmpdir/M2_conf_178_2.gjf
 ------------------------
 Symbolic Z-matrix:
 Charge =  0 Multiplicity = 1

                         Standard orientation:
 ---------------------------------------------------------------------
 Center     Atomic      Atomic             Coordinates (Angstroms)
 Number     Number       Type             X           Y           Z
 ---------------------------------------------------------------------
      1          6           0        0.000877   -0.031078    0.000016
      2          1           0       -1.206339    0.196063    0.001756
      3          1           0        0.322788   -0.532984   -0.892544
      4          1           0        0.326324   -0.531055    0.892613
      5          1           0        0.551968    1.054442   -0.001921
 ---------------------------------------------------------------------

 SCF Done:  E(RHF) =  -39.9555131249     A.U. after    9 cycles

 The electronic state is 1-A.
 Alpha  occ. eigenvalues --  -11.17493  -0.92464  -0.55927  -0.52735  -0.49822
 Alpha virt. eigenvalues --    0.27087   0.30435   0.33703   0.35682   0.91610
 Alpha virt. eigenvalues --    0.95759   1.01165   1.21863   1.25510   1.33604
 Alpha virt. eigenvalues --    1.36531   1.92871

 Mulliken charges:
               1
     1  C   -0.741984
     2  H    0.162829
     3  H    0.211080
     4  H    0.211028
     5  H    0.157047
 Sum of Mulliken charges =  -0.00000

 Dipole moment (field-independent basis, Debye):
    X=              0.0916    Y=             -0.0716    Z=             -0.0002  Tot=              0.1162
 Quadrupole moment (field-independent basis, Debye-Ang):
   XX=             -8.4820   YY=             -8.7327   ZZ=             -8.5318
   XY=             -0.1330   XZ=              0.0009   YZ=              0.0008

 Normal termination of Gaussian 16 at Fri Sep 22 17:18:35 2023.
