 Gaussian 16, Revision A.03,
 Gaussian 16:  ES64L-G16RevA.03 25-Dec-2016

 ----------
 # hf/3-21g
 ----------

 ------------------------
 tmpdir/M2_conf_122_7.gjf
 ------------------------
 Symbolic Z-matrix:
 Charge =  0 Multiplicity = 1

                         Standard orientation:
 ---------------------------------------------------------------------
 Center     Atomic      Atomic             Coordinates (Angstroms)
 Number     Number       Type             X           Y           Z
 ---------------------------------------------------------------------
      1          1           0       -1.068134    0.015551   -0.297364
      2          6           0       -0.028798   -0.029777   -0.032140
      3          1           0        0.818429   -0.182756   -0.673559
      4          1           0        0.162255   -0.724913    0.763132
      5          1           0        0.260239    1.070780    0.400633
 ---------------------------------------------------------------------

 SCF Done:  E(RHF) =  -39.9567739662     A.U. after    9 cycles

 The electronic state is 1-A.
 Alpha  occ. eigenvalues --  -11.15779  -0.93950  -0.58627  -0.53569  -0.48951
 Alpha virt. eigenvalues --    0.28273   0.31113   0.34764   0.36811   0.90101
 Alpha virt. eigenvalues --    0.96448   0.97283   1.25341   1.31065   1.35303
 Alpha virt. eigenvalues --    1.40294   1.94434

 Mulliken charges:
               1
     1  H    0.215912
     2  C   -0.787972
     3  H    0.217096
     4  H    0.206408
     5  H    0.148555
 Sum of Mulliken charges =   0.00000

 Dipole moment (field-independent basis, Debye):
    X=              0.0695    Y=             -0.0641    Z=              0.0377  Tot=              0.1018
 Quadrupole moment (field-independent basis, Debye-Ang):
   XX=             -7.8703   YY=             -8.6720   ZZ=             -8.9407
   XY=             -0.1029   XZ=             -0.0256   YZ=             -0.1570

 Normal termination of Gaussian 16 at Fri Sep 22 17:17:09 2023.
