 Gaussian 16, Revision A.03,
 Gaussian 16:  ES64L-G16RevA.03 25-Dec-2016

 ----------
 # hf/3-21g
 ----------

 -----------------------
 tmpdir/M2_conf_53_8.gjf
 -----------------------
 Symbolic Z-matrix:
 Charge =  0 Multiplicity = 1

                         Standard orientation:
 ---------------------------------------------------------------------
 Center     Atomic      Atomic             Coordinates (Angstroms)
 Number     Number       Type             X           Y           Z
 ---------------------------------------------------------------------
      1          1           0       -1.603122   -0.024144    0.997930
      2          6           0       -1.202531   -0.000061    0.002157
      3         17           0        0.689368   -0.000096    0.004099
      4          1           0       -1.450418   -0.879147   -0.561702
      5          1           0       -1.450530    0.905289   -0.518859
 ---------------------------------------------------------------------

 SCF Done:  E(RHF) =  -496.688203148     A.U. after   11 cycles

 The electronic state is 1-A.
 Alpha  occ. eigenvalues -- -104.08783 -11.24998 -10.48173  -7.94547  -7.94143
 Alpha  occ. eigenvalues --   -7.94143  -1.11311  -0.93327  -0.63286  -0.63249
 Alpha  occ. eigenvalues --   -0.51270  -0.43764  -0.43673
 Alpha virt. eigenvalues --    0.16517   0.27331   0.31363   0.31413   0.73841
 Alpha virt. eigenvalues --    0.80340   0.81001   0.85568   0.92942   0.94303
 Alpha virt. eigenvalues --    0.99764   1.30992   1.31270   1.32319   1.91829

 Mulliken charges:
               1
     1  H    0.266512
     2  C   -0.703263
     3  Cl  -0.106907
     4  H    0.271853
     5  H    0.271805
 Sum of Mulliken charges =  -0.00000

 Dipole moment (field-independent basis, Debye):
    X=             -2.8626    Y=              0.0012    Z=             -0.0528  Tot=              2.8630
 Quadrupole moment (field-independent basis, Debye-Ang):
   XX=            -18.5655   YY=            -20.1788   ZZ=            -20.1990
   XY=              0.0038   XZ=             -0.1534   YZ=              0.0002

 Normal termination of Gaussian 16 at Fri Sep 22 17:15:26 2023.
