 Gaussian 16, Revision A.03,
 Gaussian 16:  ES64L-G16RevA.03 25-Dec-2016

 ----------
 # hf/3-21g
 ----------

 ------------------------
 tmpdir/M2_conf_180_1.gjf
 ------------------------
 Symbolic Z-matrix:
 Charge =  0 Multiplicity = 1

                         Standard orientation:
 ---------------------------------------------------------------------
 Center     Atomic      Atomic             Coordinates (Angstroms)
 Number     Number       Type             X           Y           Z
 ---------------------------------------------------------------------
      1          6           0       -0.028607   -0.011431    0.000059
      2          1           0       -0.604836    0.939030   -0.003796
      3          1           0       -0.185148   -0.583075    0.894989
      4          1           0       -0.185704   -0.590943   -0.889937
      5          1           0        1.147328    0.303577   -0.001608
 ---------------------------------------------------------------------

 SCF Done:  E(RHF) =  -39.9663330574     A.U. after    9 cycles

 The electronic state is 1-A.
 Alpha  occ. eigenvalues --  -11.16168  -0.93379  -0.55697  -0.54835  -0.50237
 Alpha virt. eigenvalues --    0.28161   0.31927   0.34965   0.35687   0.91829
 Alpha virt. eigenvalues --    0.93511   0.97885   1.24847   1.30481   1.35234
 Alpha virt. eigenvalues --    1.36851   1.94207

 Mulliken charges:
               1
     1  C   -0.764947
     2  H    0.196497
     3  H    0.207802
     4  H    0.207746
     5  H    0.152903
 Sum of Mulliken charges =  -0.00000

 Dipole moment (field-independent basis, Debye):
    X=             -0.0518    Y=             -0.0386    Z=              0.0003  Tot=              0.0646
 Quadrupole moment (field-independent basis, Debye-Ang):
   XX=             -8.6695   YY=             -8.4210   ZZ=             -8.4275
   XY=             -0.0774   XZ=              0.0004   YZ=              0.0003

 Normal termination of Gaussian 16 at Fri Sep 22 17:18:37 2023.
