 Gaussian 16, Revision A.03,
 Gaussian 16:  ES64L-G16RevA.03 25-Dec-2016

 ----------
 # hf/3-21g
 ----------

 ------------------------
 tmpdir/M2_conf_273_6.gjf
 ------------------------
 Symbolic Z-matrix:
 Charge =  0 Multiplicity = 1

                         Standard orientation:
 ---------------------------------------------------------------------
 Center     Atomic      Atomic             Coordinates (Angstroms)
 Number     Number       Type             X           Y           Z
 ---------------------------------------------------------------------
      1          1           0       -1.248048   -0.004226    1.066836
      2          6           0       -1.203361    0.000039   -0.005625
      3         17           0        0.688530    0.000028   -0.009717
      4          1           0       -1.618190    0.894442   -0.430563
      5          1           0       -1.618599   -0.890926   -0.437329
 ---------------------------------------------------------------------

 SCF Done:  E(RHF) =  -496.681288235     A.U. after   11 cycles

 The electronic state is 1-A.
 Alpha  occ. eigenvalues -- -104.08857 -11.24968 -10.48252  -7.94624  -7.94219
 Alpha  occ. eigenvalues --   -7.94217  -1.11498  -0.93279  -0.63575  -0.63177
 Alpha  occ. eigenvalues --   -0.51043  -0.43934  -0.43424
 Alpha virt. eigenvalues --    0.16113   0.27387   0.31388   0.31462   0.73928
 Alpha virt. eigenvalues --    0.79932   0.81055   0.85640   0.92432   0.95314
 Alpha virt. eigenvalues --    1.00379   1.30493   1.31165   1.32379   1.90775

 Mulliken charges:
               1
     1  H    0.278780
     2  C   -0.704735
     3  Cl  -0.107471
     4  H    0.266722
     5  H    0.266704
 Sum of Mulliken charges =   0.00000

 Dipole moment (field-independent basis, Debye):
    X=             -2.8399    Y=             -0.0005    Z=              0.1402  Tot=              2.8434
 Quadrupole moment (field-independent basis, Debye-Ang):
   XX=            -18.5463   YY=            -20.1826   ZZ=            -20.2818
   XY=             -0.0010   XZ=              0.3622   YZ=             -0.0001

 Normal termination of Gaussian 16 at Fri Sep 22 17:21:03 2023.
