 Gaussian 16, Revision A.03,
 Gaussian 16:  ES64L-G16RevA.03 25-Dec-2016

 ----------
 # hf/3-21g
 ----------

 -----------------------
 tmpdir/M2_conf_71_5.gjf
 -----------------------
 Symbolic Z-matrix:
 Charge =  0 Multiplicity = 1

                         Standard orientation:
 ---------------------------------------------------------------------
 Center     Atomic      Atomic             Coordinates (Angstroms)
 Number     Number       Type             X           Y           Z
 ---------------------------------------------------------------------
      1          1           0        1.086719    0.005413   -0.258737
      2          6           0        0.036278   -0.029589   -0.040709
      3          1           0       -0.850221   -0.136508   -0.636783
      4          1           0       -0.201984   -0.750485    0.718337
      5          1           0       -0.252183    1.059114    0.421436
 ---------------------------------------------------------------------

 SCF Done:  E(RHF) =  -39.9486754988     A.U. after    9 cycles

 The electronic state is 1-A.
 Alpha  occ. eigenvalues --  -11.15809  -0.94102  -0.59599  -0.53071  -0.48126
 Alpha virt. eigenvalues --    0.28187   0.30330   0.34562   0.37152   0.89860
 Alpha virt. eigenvalues --    0.97198   0.98863   1.25205   1.30614   1.35018
 Alpha virt. eigenvalues --    1.41701   1.94282

 Mulliken charges:
               1
     1  H    0.222362
     2  C   -0.802340
     3  H    0.225395
     4  H    0.206695
     5  H    0.147887
 Sum of Mulliken charges =   0.00000

 Dipole moment (field-independent basis, Debye):
    X=             -0.1031    Y=             -0.0650    Z=              0.0605  Tot=              0.1361
 Quadrupole moment (field-independent basis, Debye-Ang):
   XX=             -7.6744   YY=             -8.6903   ZZ=             -9.1458
   XY=              0.0992   XZ=              0.0239   YZ=             -0.1657

 Normal termination of Gaussian 16 at Fri Sep 22 17:15:53 2023.
