 Gaussian 16, Revision A.03,
 Gaussian 16:  ES64L-G16RevA.03 25-Dec-2016

 ----------
 # hf/3-21g
 ----------

 -----------------------
 tmpdir/M2_conf_43_6.gjf
 -----------------------
 Symbolic Z-matrix:
 Charge =  0 Multiplicity = 1

                         Standard orientation:
 ---------------------------------------------------------------------
 Center     Atomic      Atomic             Coordinates (Angstroms)
 Number     Number       Type             X           Y           Z
 ---------------------------------------------------------------------
      1          1           0       -1.569199   -0.030205    1.009747
      2          6           0       -1.202432   -0.000021    0.001402
      3         17           0        0.689468   -0.000094    0.002708
      4          1           0       -1.468334    0.908259   -0.505484
      5          1           0       -1.468833   -0.876327   -0.558711
 ---------------------------------------------------------------------

 SCF Done:  E(RHF) =  -496.688925078     A.U. after   11 cycles

 The electronic state is 1-A.
 Alpha  occ. eigenvalues -- -104.08777 -11.25000 -10.48167  -7.94541  -7.94137
 Alpha  occ. eigenvalues --   -7.94137  -1.11293  -0.93333  -0.63271  -0.63238
 Alpha  occ. eigenvalues --   -0.51301  -0.43756  -0.43691
 Alpha virt. eigenvalues --    0.16567   0.27332   0.31366   0.31400   0.73832
 Alpha virt. eigenvalues --    0.80459   0.80892   0.85528   0.93199   0.94097
 Alpha virt. eigenvalues --    0.99625   1.31124   1.31251   1.32245   1.91928

 Mulliken charges:
               1
     1  H    0.267647
     2  C   -0.702877
     3  Cl  -0.106997
     4  H    0.271125
     5  H    0.271102
 Sum of Mulliken charges =  -0.00000

 Dipole moment (field-independent basis, Debye):
    X=             -2.8646    Y=              0.0011    Z=             -0.0350  Tot=              2.8649
 Quadrupole moment (field-independent basis, Debye-Ang):
   XX=            -18.5681   YY=            -20.1785   ZZ=            -20.1898
   XY=              0.0036   XZ=             -0.1016   YZ=             -0.0000

 Normal termination of Gaussian 16 at Fri Sep 22 17:15:12 2023.
