 Gaussian 16, Revision A.03,
 Gaussian 16:  ES64L-G16RevA.03 25-Dec-2016

 ----------
 # hf/3-21g
 ----------

 ------------------------
 tmpdir/M2_conf_169_8.gjf
 ------------------------
 Symbolic Z-matrix:
 Charge =  0 Multiplicity = 1

                         Standard orientation:
 ---------------------------------------------------------------------
 Center     Atomic      Atomic             Coordinates (Angstroms)
 Number     Number       Type             X           Y           Z
 ---------------------------------------------------------------------
      1          1           0       -1.028965   -0.000842    1.046496
      2          6           0       -1.205788   -0.000006   -0.012442
      3         17           0        0.686106    0.000020   -0.016403
      4          1           0       -1.699917   -0.892208   -0.347094
      5          1           0       -1.700187    0.892742   -0.345893
 ---------------------------------------------------------------------

 SCF Done:  E(RHF) =  -496.659359721     A.U. after   11 cycles

 The electronic state is 1-A.
 Alpha  occ. eigenvalues -- -104.09120 -11.24819 -10.48546  -7.94913  -7.94504
 Alpha  occ. eigenvalues --   -7.94494  -1.12158  -0.93122  -0.64224  -0.63113
 Alpha  occ. eigenvalues --   -0.50581  -0.44287  -0.42767
 Alpha virt. eigenvalues --    0.15032   0.27673   0.31483   0.31593   0.74108
 Alpha virt. eigenvalues --    0.79280   0.80812   0.85159   0.93153   0.96519
 Alpha virt. eigenvalues --    1.01611   1.29208   1.31199   1.32057   1.87876

 Mulliken charges:
               1
     1  H    0.285669
     2  C   -0.707540
     3  Cl  -0.110372
     4  H    0.266144
     5  H    0.266099
 Sum of Mulliken charges =   0.00000

 Dipole moment (field-independent basis, Debye):
    X=             -2.7590    Y=             -0.0003    Z=              0.2679  Tot=              2.7720
 Quadrupole moment (field-independent basis, Debye-Ang):
   XX=            -18.5150   YY=            -20.1775   ZZ=            -20.5302
   XY=             -0.0006   XZ=              0.6079   YZ=              0.0000

 Normal termination of Gaussian 16 at Fri Sep 22 17:18:21 2023.
