 Gaussian 16, Revision A.03,
 Gaussian 16:  ES64L-G16RevA.03 25-Dec-2016

 ----------
 # hf/3-21g
 ----------

 ------------------------
 tmpdir/M2_conf_119_3.gjf
 ------------------------
 Symbolic Z-matrix:
 Charge =  0 Multiplicity = 1

                         Standard orientation:
 ---------------------------------------------------------------------
 Center     Atomic      Atomic             Coordinates (Angstroms)
 Number     Number       Type             X           Y           Z
 ---------------------------------------------------------------------
      1          6           0       -1.347118    0.000017    0.000010
      2         17           0        0.766182   -0.000013   -0.000003
      3          1           0       -1.647486   -0.278186    0.992268
      4          1           0       -1.647166    0.998728   -0.255258
      5          1           0       -1.647733   -0.720425   -0.737021
 ---------------------------------------------------------------------

 SCF Done:  E(RHF) =  -496.677088201     A.U. after   10 cycles

 The electronic state is 1-A.
 Alpha  occ. eigenvalues -- -104.08485 -11.27351 -10.47415  -7.93757  -7.93438
 Alpha  occ. eigenvalues --   -7.93438  -1.06793  -0.95391  -0.63397  -0.63392
 Alpha  occ. eigenvalues --   -0.47584  -0.43187  -0.43187
 Alpha virt. eigenvalues --    0.09802   0.26463   0.30998   0.31002   0.73460
 Alpha virt. eigenvalues --    0.79637   0.79641   0.86219   0.93656   0.93666
 Alpha virt. eigenvalues --    1.03199   1.29738   1.30069   1.30079   1.85486

 Mulliken charges:
               1
     1  C   -0.576032
     2  Cl  -0.233653
     3  H    0.269915
     4  H    0.269901
     5  H    0.269869
 Sum of Mulliken charges =  -0.00000

 Dipole moment (field-independent basis, Debye):
    X=             -3.6883    Y=              0.0001    Z=              0.0001  Tot=              3.6883
 Quadrupole moment (field-independent basis, Debye-Ang):
   XX=            -17.1101   YY=            -20.3302   ZZ=            -20.3316
   XY=              0.0006   XZ=             -0.0001   YZ=             -0.0001

 Normal termination of Gaussian 16 at Fri Sep 22 17:17:05 2023.
