 Gaussian 16, Revision A.03,
 Gaussian 16:  ES64L-G16RevA.03 25-Dec-2016

 ----------
 # hf/3-21g
 ----------

 -----------------------
 tmpdir/M2_conf_95_0.gjf
 -----------------------
 Symbolic Z-matrix:
 Charge =  0 Multiplicity = 1

                         Standard orientation:
 ---------------------------------------------------------------------
 Center     Atomic      Atomic             Coordinates (Angstroms)
 Number     Number       Type             X           Y           Z
 ---------------------------------------------------------------------
      1          6           0        0.013516   -0.027204    0.000056
      2          1           0        1.056062    0.480505    0.001426
      3          1           0       -0.168285   -0.594673    0.893114
      4          1           0       -0.164396   -0.597042   -0.892264
      5          1           0       -0.804478    0.874434   -0.002614
 ---------------------------------------------------------------------

 SCF Done:  E(RHF) =  -39.9632387221     A.U. after    9 cycles

 The electronic state is 1-A.
 Alpha  occ. eigenvalues --  -11.16725  -0.92947  -0.55786  -0.53869  -0.50148
 Alpha virt. eigenvalues --    0.27859   0.31372   0.34268   0.35685   0.91742
 Alpha virt. eigenvalues --    0.94985   0.98748   1.24290   1.27563   1.34293
 Alpha virt. eigenvalues --    1.36720   1.93671

 Mulliken charges:
               1
     1  C   -0.756373
     2  H    0.183127
     3  H    0.209255
     4  H    0.209254
     5  H    0.154737
 Sum of Mulliken charges =  -0.00000

 Dipole moment (field-independent basis, Debye):
    X=             -0.0125    Y=             -0.0724    Z=              0.0001  Tot=              0.0735
 Quadrupole moment (field-independent basis, Debye-Ang):
   XX=             -8.5439   YY=             -8.6005   ZZ=             -8.4715
   XY=              0.1591   XZ=             -0.0010   YZ=              0.0007

 Normal termination of Gaussian 16 at Fri Sep 22 17:16:29 2023.
