 Gaussian 16, Revision A.03,
 Gaussian 16:  ES64L-G16RevA.03 25-Dec-2016

 ----------
 # hf/3-21g
 ----------

 ------------------------
 tmpdir/M2_conf_122_4.gjf
 ------------------------
 Symbolic Z-matrix:
 Charge =  0 Multiplicity = 1

                         Standard orientation:
 ---------------------------------------------------------------------
 Center     Atomic      Atomic             Coordinates (Angstroms)
 Number     Number       Type             X           Y           Z
 ---------------------------------------------------------------------
      1          1           0       -0.679384    0.780781   -0.349704
      2          6           0       -0.033603   -0.008404   -0.014530
      3          1           0        0.239716   -0.773671   -0.716151
      4          1           0       -0.386932   -0.473224    0.886417
      5          1           0        1.028219    0.516536    0.266619
 ---------------------------------------------------------------------

 SCF Done:  E(RHF) =  -39.9653484467     A.U. after    9 cycles

 The electronic state is 1-A.
 Alpha  occ. eigenvalues --  -11.15739  -0.93798  -0.56769  -0.54801  -0.49929
 Alpha virt. eigenvalues --    0.28331   0.31999   0.35311   0.36122   0.91105
 Alpha virt. eigenvalues --    0.93220   0.97428   1.25217   1.32012   1.36168
 Alpha virt. eigenvalues --    1.38094   1.94652

 Mulliken charges:
               1
     1  H    0.208707
     2  C   -0.773222
     3  H    0.208350
     4  H    0.206053
     5  H    0.150112
 Sum of Mulliken charges =   0.00000

 Dipole moment (field-independent basis, Debye):
    X=             -0.0387    Y=             -0.0529    Z=              0.0065  Tot=              0.0659
 Quadrupole moment (field-independent basis, Debye-Ang):
   XX=             -8.5545   YY=             -8.3172   ZZ=             -8.5772
   XY=             -0.2068   XZ=             -0.0944   YZ=             -0.0519

 Normal termination of Gaussian 16 at Fri Sep 22 17:17:09 2023.
