 Gaussian 16, Revision A.03,
 Gaussian 16:  ES64L-G16RevA.03 25-Dec-2016

 ----------
 # hf/3-21g
 ----------

 ------------------------
 tmpdir/M2_conf_111_4.gjf
 ------------------------
 Symbolic Z-matrix:
 Charge =  0 Multiplicity = 1

                         Standard orientation:
 ---------------------------------------------------------------------
 Center     Atomic      Atomic             Coordinates (Angstroms)
 Number     Number       Type             X           Y           Z
 ---------------------------------------------------------------------
      1          1           0        0.359732   -0.298843    0.972451
      2          6           0        0.029467    0.006454   -0.002181
      3          1           0        0.449897   -0.630814   -0.756994
      4          1           0        0.189643    1.052903   -0.180765
      5          1           0       -1.176074   -0.161969   -0.021609
 ---------------------------------------------------------------------

 SCF Done:  E(RHF) =  -39.9669553681     A.U. after    9 cycles

 The electronic state is 1-A.
 Alpha  occ. eigenvalues --  -11.15722  -0.93780  -0.55951  -0.55215  -0.50367
 Alpha virt. eigenvalues --    0.28305   0.32279   0.35526   0.35817   0.91528
 Alpha virt. eigenvalues --    0.92243   0.97744   1.25010   1.32572   1.36545
 Alpha virt. eigenvalues --    1.37270   1.94610

 Mulliken charges:
               1
     1  H    0.205905
     2  C   -0.770654
     3  H    0.206178
     4  H    0.206685
     5  H    0.151887
 Sum of Mulliken charges =  -0.00000

 Dipole moment (field-independent basis, Debye):
    X=              0.0771    Y=              0.0026    Z=              0.0129  Tot=              0.0782
 Quadrupole moment (field-independent basis, Debye-Ang):
   XX=             -8.6219   YY=             -8.3521   ZZ=             -8.4614
   XY=             -0.0657   XZ=             -0.0114   YZ=             -0.0008

 Normal termination of Gaussian 16 at Fri Sep 22 17:16:53 2023.
