 Gaussian 16, Revision A.03,
 Gaussian 16:  ES64L-G16RevA.03 25-Dec-2016

 ----------
 # hf/3-21g
 ----------

 ------------------------
 tmpdir/M2_conf_104_4.gjf
 ------------------------
 Symbolic Z-matrix:
 Charge =  0 Multiplicity = 1

                         Standard orientation:
 ---------------------------------------------------------------------
 Center     Atomic      Atomic             Coordinates (Angstroms)
 Number     Number       Type             X           Y           Z
 ---------------------------------------------------------------------
      1          1           0        0.411283   -0.244926    0.961801
      2          6           0        0.024744    0.014496   -0.005399
      3          1           0        0.593164   -0.523294   -0.740451
      4          1           0       -0.031601    1.076311   -0.153655
      5          1           0       -1.121308   -0.395068   -0.035301
 ---------------------------------------------------------------------

 SCF Done:  E(RHF) =  -39.9665152039     A.U. after    9 cycles

 The electronic state is 1-A.
 Alpha  occ. eigenvalues --  -11.15720  -0.93795  -0.56363  -0.54660  -0.50477
 Alpha virt. eigenvalues --    0.28281   0.32318   0.35314   0.35978   0.91096
 Alpha virt. eigenvalues --    0.92665   0.97912   1.24936   1.32681   1.36048
 Alpha virt. eigenvalues --    1.37743   1.94518

 Mulliken charges:
               1
     1  H    0.205297
     2  C   -0.771223
     3  H    0.206152
     4  H    0.207136
     5  H    0.152638
 Sum of Mulliken charges =  -0.00000

 Dipole moment (field-independent basis, Debye):
    X=              0.0858    Y=              0.0102    Z=              0.0292  Tot=              0.0913
 Quadrupole moment (field-independent basis, Debye-Ang):
   XX=             -8.5295   YY=             -8.3502   ZZ=             -8.5543
   XY=             -0.1517   XZ=             -0.0193   YZ=             -0.0048

 Normal termination of Gaussian 16 at Fri Sep 22 17:16:43 2023.
