 Gaussian 16, Revision A.03,
 Gaussian 16:  ES64L-G16RevA.03 25-Dec-2016

 ----------
 # hf/3-21g
 ----------

 -----------------------
 tmpdir/M2_conf_57_1.gjf
 -----------------------
 Symbolic Z-matrix:
 Charge =  0 Multiplicity = 1

                         Standard orientation:
 ---------------------------------------------------------------------
 Center     Atomic      Atomic             Coordinates (Angstroms)
 Number     Number       Type             X           Y           Z
 ---------------------------------------------------------------------
      1          6           0       -0.006901   -0.029678    0.000059
      2          1           0       -1.137764    0.322048   -0.001332
      3          1           0        0.256388   -0.562729    0.893769
      4          1           0        0.257625   -0.566654   -0.891170
      5          1           0        0.665155    0.985405   -0.001619
 ---------------------------------------------------------------------

 SCF Done:  E(RHF) =  -39.9608439087     A.U. after    9 cycles

 The electronic state is 1-A.
 Alpha  occ. eigenvalues --  -11.17003  -0.92759  -0.55832  -0.53428  -0.50064
 Alpha virt. eigenvalues --    0.27639   0.31031   0.34022   0.35684   0.91684
 Alpha virt. eigenvalues --    0.95415   0.99500   1.23675   1.26455   1.34020
 Alpha virt. eigenvalues --    1.36656   1.93396

 Mulliken charges:
               1
     1  C   -0.751508
     2  H    0.175985
     3  H    0.209987
     4  H    0.209932
     5  H    0.155604
 Sum of Mulliken charges =  -0.00000

 Dipole moment (field-independent basis, Debye):
    X=              0.0437    Y=             -0.0737    Z=              0.0003  Tot=              0.0857
 Quadrupole moment (field-independent basis, Debye-Ang):
   XX=             -8.5045   YY=             -8.6647   ZZ=             -8.4943
   XY=             -0.1497   XZ=              0.0001   YZ=              0.0005

 Normal termination of Gaussian 16 at Fri Sep 22 17:15:32 2023.
