 Gaussian 16, Revision A.03,
 Gaussian 16:  ES64L-G16RevA.03 25-Dec-2016

 ----------
 # hf/3-21g
 ----------

 -----------------------
 tmpdir/M2_conf_14_7.gjf
 -----------------------
 Symbolic Z-matrix:
 Charge =  0 Multiplicity = 1

                         Standard orientation:
 ---------------------------------------------------------------------
 Center     Atomic      Atomic             Coordinates (Angstroms)
 Number     Number       Type             X           Y           Z
 ---------------------------------------------------------------------
      1          1           0       -0.335013    0.973477   -0.347307
      2          6           0       -0.032948    0.001433   -0.005980
      3          1           0       -0.210705   -0.793406   -0.705444
      4          1           0       -0.432814   -0.236884    0.961225
      5          1           0        1.176217    0.048213    0.127406
 ---------------------------------------------------------------------

 SCF Done:  E(RHF) =  -39.9666278650     A.U. after    9 cycles

 The electronic state is 1-A.
 Alpha  occ. eigenvalues --  -11.15730  -0.93779  -0.56061  -0.55321  -0.50157
 Alpha virt. eigenvalues --    0.28327   0.32163   0.35550   0.35849   0.91595
 Alpha virt. eigenvalues --    0.92366   0.97546   1.25125   1.32304   1.36636
 Alpha virt. eigenvalues --    1.37356   1.94667

 Mulliken charges:
               1
     1  H    0.207128
     2  C   -0.771183
     3  H    0.206907
     4  H    0.206287
     5  H    0.150861
 Sum of Mulliken charges =  -0.00000

 Dipole moment (field-independent basis, Debye):
    X=             -0.0649    Y=             -0.0139    Z=              0.0007  Tot=              0.0663
 Quadrupole moment (field-independent basis, Debye-Ang):
   XX=             -8.6690   YY=             -8.3200   ZZ=             -8.4521
   XY=             -0.0233   XZ=             -0.0523   YZ=             -0.0034

 Normal termination of Gaussian 16 at Fri Sep 22 17:14:28 2023.
