 Gaussian 16, Revision A.03,
 Gaussian 16:  ES64L-G16RevA.03 25-Dec-2016

 ----------
 # hf/3-21g
 ----------

 -----------------------
 tmpdir/M2_conf_59_9.gjf
 -----------------------
 Symbolic Z-matrix:
 Charge =  0 Multiplicity = 1

                         Standard orientation:
 ---------------------------------------------------------------------
 Center     Atomic      Atomic             Coordinates (Angstroms)
 Number     Number       Type             X           Y           Z
 ---------------------------------------------------------------------
      1          1           0        1.696356   -0.008169    0.957860
      2          6           0        1.203001   -0.000021    0.004366
      3         17           0       -0.688893   -0.000079    0.007898
      4          1           0        1.398635   -0.887688   -0.566573
      5          1           0        1.398187    0.897330   -0.551753
 ---------------------------------------------------------------------

 SCF Done:  E(RHF) =  -496.684605349     A.U. after   11 cycles

 The electronic state is 1-A.
 Alpha  occ. eigenvalues -- -104.08814 -11.24989 -10.48204  -7.94577  -7.94172
 Alpha  occ. eigenvalues --   -7.94172  -1.11395  -0.93301  -0.63342  -0.63316
 Alpha  occ. eigenvalues --   -0.51119  -0.43757  -0.43632
 Alpha virt. eigenvalues --    0.16256   0.27322   0.31364   0.31477   0.73880
 Alpha virt. eigenvalues --    0.80018   0.81315   0.85753   0.92249   0.94676
 Alpha virt. eigenvalues --    1.00493   1.30561   1.31320   1.32558   1.91363

 Mulliken charges:
               1
     1  H    0.263800
     2  C   -0.705418
     3  Cl  -0.106223
     4  H    0.273930
     5  H    0.273911
 Sum of Mulliken charges =  -0.00000

 Dipole moment (field-independent basis, Debye):
    X=              2.8521    Y=              0.0008    Z=             -0.1000  Tot=              2.8538
 Quadrupole moment (field-independent basis, Debye-Ang):
   XX=            -18.5509   YY=            -20.1763   ZZ=            -20.2492
   XY=             -0.0033   XZ=              0.2968   YZ=              0.0000

 Normal termination of Gaussian 16 at Fri Sep 22 17:15:35 2023.
