 Gaussian 16, Revision A.03,
 Gaussian 16:  ES64L-G16RevA.03 25-Dec-2016

 ----------
 # hf/3-21g
 ----------

 -----------------------
 tmpdir/M2_conf_80_2.gjf
 -----------------------
 Symbolic Z-matrix:
 Charge =  0 Multiplicity = 1

                         Standard orientation:
 ---------------------------------------------------------------------
 Center     Atomic      Atomic             Coordinates (Angstroms)
 Number     Number       Type             X           Y           Z
 ---------------------------------------------------------------------
      1          6           0        0.031943    0.000015    0.002808
      2          1           0        0.281891   -0.018173    1.032448
      3          1           0        0.357756   -0.882402   -0.514284
      4          1           0        0.352877    0.902463   -0.482178
      5          1           0       -1.184181   -0.001981   -0.052832
 ---------------------------------------------------------------------

 SCF Done:  E(RHF) =  -39.9666848923     A.U. after    9 cycles

 The electronic state is 1-A.
 Alpha  occ. eigenvalues --  -11.15563  -0.93936  -0.55937  -0.55617  -0.50276
 Alpha virt. eigenvalues --    0.28364   0.32315   0.35688   0.35979   0.91298
 Alpha virt. eigenvalues --    0.91949   0.97594   1.25132   1.32927   1.36975
 Alpha virt. eigenvalues --    1.37924   1.94826

 Mulliken charges:
               1
     1  C   -0.772557
     2  H    0.209916
     3  H    0.205960
     4  H    0.205913
     5  H    0.150768
 Sum of Mulliken charges =  -0.00000

 Dipole moment (field-independent basis, Debye):
    X=              0.0741    Y=             -0.0001    Z=              0.0113  Tot=              0.0750
 Quadrupole moment (field-independent basis, Debye-Ang):
   XX=             -8.6435   YY=             -8.3766   ZZ=             -8.3876
   XY=             -0.0011   XZ=             -0.0132   YZ=             -0.0004

 Normal termination of Gaussian 16 at Fri Sep 22 17:16:07 2023.
