 Gaussian 16, Revision A.03,
 Gaussian 16:  ES64L-G16RevA.03 25-Dec-2016

 ----------
 # hf/3-21g
 ----------

 ----------------------
 tmpdir/M2_conf_5_4.gjf
 ----------------------
 Symbolic Z-matrix:
 Charge =  0 Multiplicity = 1

                         Standard orientation:
 ---------------------------------------------------------------------
 Center     Atomic      Atomic             Coordinates (Angstroms)
 Number     Number       Type             X           Y           Z
 ---------------------------------------------------------------------
      1          1           0        0.476585   -0.156507    0.940909
      2          6           0        0.014756    0.022829   -0.011321
      3          1           0        0.739598   -0.347706   -0.711262
      4          1           0       -0.318926    1.037321   -0.121160
      5          1           0       -0.985791   -0.670080   -0.040563
 ---------------------------------------------------------------------

 SCF Done:  E(RHF) =  -39.9646334205     A.U. after    9 cycles

 The electronic state is 1-A.
 Alpha  occ. eigenvalues --  -11.15720  -0.93847  -0.57066  -0.53699  -0.50630
 Alpha virt. eigenvalues --    0.28222   0.32339   0.34952   0.36215   0.90526
 Alpha virt. eigenvalues --    0.93356   0.98290   1.24810   1.32705   1.35296
 Alpha virt. eigenvalues --    1.38641   1.94243

 Mulliken charges:
               1
     1  H    0.204465
     2  C   -0.773456
     3  H    0.206716
     4  H    0.208197
     5  H    0.154078
 Sum of Mulliken charges =   0.00000

 Dipole moment (field-independent basis, Debye):
    X=              0.1036    Y=              0.0227    Z=              0.0578  Tot=              0.1208
 Quadrupole moment (field-independent basis, Debye-Ang):
   XX=             -8.3187   YY=             -8.4031   ZZ=             -8.7135
   XY=             -0.2236   XZ=             -0.0234   YZ=             -0.0114

 Normal termination of Gaussian 16 at Fri Sep 22 17:14:15 2023.
