 Gaussian 16, Revision A.03,
 Gaussian 16:  ES64L-G16RevA.03 25-Dec-2016

 ----------
 # hf/3-21g
 ----------

 ------------------------
 tmpdir/M2_conf_264_5.gjf
 ------------------------
 Symbolic Z-matrix:
 Charge =  0 Multiplicity = 1

                         Standard orientation:
 ---------------------------------------------------------------------
 Center     Atomic      Atomic             Coordinates (Angstroms)
 Number     Number       Type             X           Y           Z
 ---------------------------------------------------------------------
      1          1           0       -0.372335   -0.290422    0.969019
      2          6           0       -0.028497    0.008639   -0.002848
      3          1           0       -0.490604   -0.601816   -0.755462
      4          1           0       -0.132307    1.064286   -0.168506
      5          1           0        1.166226   -0.223883   -0.027965
 ---------------------------------------------------------------------

 SCF Done:  E(RHF) =  -39.9668934753     A.U. after    9 cycles

 The electronic state is 1-A.
 Alpha  occ. eigenvalues --  -11.15722  -0.93783  -0.56051  -0.55082  -0.50394
 Alpha virt. eigenvalues --    0.28300   0.32290   0.35475   0.35858   0.91417
 Alpha virt. eigenvalues --    0.92346   0.97781   1.24993   1.32602   1.36422
 Alpha virt. eigenvalues --    1.37381   1.94591

 Mulliken charges:
               1
     1  H    0.205750
     2  C   -0.770733
     3  H    0.206137
     4  H    0.206786
     5  H    0.152060
 Sum of Mulliken charges =   0.00000

 Dipole moment (field-independent basis, Debye):
    X=             -0.0790    Y=              0.0045    Z=              0.0169  Tot=              0.0809
 Quadrupole moment (field-independent basis, Debye-Ang):
   XX=             -8.6033   YY=             -8.3479   ZZ=             -8.4838
   XY=              0.0899   XZ=              0.0146   YZ=             -0.0017

 Normal termination of Gaussian 16 at Fri Sep 22 17:20:50 2023.
