 Gaussian 16, Revision A.03,
 Gaussian 16:  ES64L-G16RevA.03 25-Dec-2016

 ----------
 # hf/3-21g
 ----------

 ------------------------
 tmpdir/M2_conf_234_4.gjf
 ------------------------
 Symbolic Z-matrix:
 Charge =  0 Multiplicity = 1

                         Standard orientation:
 ---------------------------------------------------------------------
 Center     Atomic      Atomic             Coordinates (Angstroms)
 Number     Number       Type             X           Y           Z
 ---------------------------------------------------------------------
      1          1           0       -0.635308    0.816373   -0.350239
      2          6           0       -0.033883   -0.006728   -0.014113
      3          1           0        0.191176   -0.787148   -0.716190
      4          1           0       -0.409517   -0.447328    0.889975
      5          1           0        1.056946    0.458468    0.261129
 ---------------------------------------------------------------------

 SCF Done:  E(RHF) =  -39.9654430456     A.U. after    9 cycles

 The electronic state is 1-A.
 Alpha  occ. eigenvalues --  -11.15738  -0.93796  -0.56731  -0.54829  -0.49943
 Alpha virt. eigenvalues --    0.28331   0.32010   0.35324   0.36107   0.91131
 Alpha virt. eigenvalues --    0.93169   0.97434   1.25212   1.32029   1.36191
 Alpha virt. eigenvalues --    1.38053   1.94654

 Mulliken charges:
               1
     1  H    0.208610
     2  C   -0.773068
     3  H    0.208249
     4  H    0.206058
     5  H    0.150150
 Sum of Mulliken charges =   0.00000

 Dipole moment (field-independent basis, Debye):
    X=             -0.0423    Y=             -0.0498    Z=              0.0060  Tot=              0.0657
 Quadrupole moment (field-independent basis, Debye-Ang):
   XX=             -8.5788   YY=             -8.2995   ZZ=             -8.5700
   XY=             -0.1891   XZ=             -0.0952   YZ=             -0.0455

 Normal termination of Gaussian 16 at Fri Sep 22 17:20:04 2023.
