 Gaussian 16, Revision A.03,
 Gaussian 16:  ES64L-G16RevA.03 25-Dec-2016

 ----------
 # hf/3-21g
 ----------

 -----------------------
 tmpdir/M2_conf_66_5.gjf
 -----------------------
 Symbolic Z-matrix:
 Charge =  0 Multiplicity = 1

                         Standard orientation:
 ---------------------------------------------------------------------
 Center     Atomic      Atomic             Coordinates (Angstroms)
 Number     Number       Type             X           Y           Z
 ---------------------------------------------------------------------
      1          1           0        1.069870    0.015650   -0.293658
      2          6           0        0.029583   -0.029700   -0.033017
      3          1           0       -0.821425   -0.177952   -0.670527
      4          1           0       -0.165612   -0.728465    0.758334
      5          1           0       -0.260334    1.068967    0.403951
 ---------------------------------------------------------------------

 SCF Done:  E(RHF) =  -39.9561101882     A.U. after    9 cycles

 The electronic state is 1-A.
 Alpha  occ. eigenvalues --  -11.15782  -0.93962  -0.58726  -0.53511  -0.48882
 Alpha virt. eigenvalues --    0.28266   0.31049   0.34737   0.36847   0.90073
 Alpha virt. eigenvalues --    0.96634   0.97291   1.25337   1.31027   1.35258
 Alpha virt. eigenvalues --    1.40424   1.94424

 Mulliken charges:
               1
     1  H    0.216488
     2  C   -0.789151
     3  H    0.217792
     4  H    0.206384
     5  H    0.148487
 Sum of Mulliken charges =   0.00000

 Dipole moment (field-independent basis, Debye):
    X=             -0.0726    Y=             -0.0641    Z=              0.0395  Tot=              0.1046
 Quadrupole moment (field-independent basis, Debye-Ang):
   XX=             -7.8518   YY=             -8.6738   ZZ=             -8.9598
   XY=              0.1028   XZ=              0.0256   YZ=             -0.1580

 Normal termination of Gaussian 16 at Fri Sep 22 17:15:46 2023.
