 Gaussian 16, Revision A.03,
 Gaussian 16:  ES64L-G16RevA.03 25-Dec-2016

 ----------
 # hf/3-21g
 ----------

 -----------------------
 tmpdir/M2_conf_90_4.gjf
 -----------------------
 Symbolic Z-matrix:
 Charge =  0 Multiplicity = 1

                         Standard orientation:
 ---------------------------------------------------------------------
 Center     Atomic      Atomic             Coordinates (Angstroms)
 Number     Number       Type             X           Y           Z
 ---------------------------------------------------------------------
      1          1           0        0.419803   -0.234433    0.959812
      2          6           0        0.023750    0.015690   -0.005987
      3          1           0        0.614158   -0.502968   -0.737451
      4          1           0       -0.068656    1.075582   -0.149837
      5          1           0       -1.107807   -0.432320   -0.036600
 ---------------------------------------------------------------------

 SCF Done:  E(RHF) =  -39.9663876145     A.U. after    9 cycles

 The electronic state is 1-A.
 Alpha  occ. eigenvalues --  -11.15720  -0.93799  -0.56435  -0.54562  -0.50495
 Alpha virt. eigenvalues --    0.28276   0.32323   0.35277   0.36004   0.91028
 Alpha virt. eigenvalues --    0.92738   0.97945   1.24923   1.32693   1.35965
 Alpha virt. eigenvalues --    1.37830   1.94497

 Mulliken charges:
               1
     1  H    0.205203
     2  C   -0.771384
     3  H    0.206178
     4  H    0.207228
     5  H    0.152776
 Sum of Mulliken charges =  -0.00000

 Dipole moment (field-independent basis, Debye):
    X=              0.0875    Y=              0.0117    Z=              0.0321  Tot=              0.0939
 Quadrupole moment (field-independent basis, Debye-Ang):
   XX=             -8.5090   YY=             -8.3543   ZZ=             -8.5705
   XY=             -0.1638   XZ=             -0.0201   YZ=             -0.0056

 Normal termination of Gaussian 16 at Fri Sep 22 17:16:22 2023.
