 Gaussian 16, Revision A.03,
 Gaussian 16:  ES64L-G16RevA.03 25-Dec-2016

 ----------
 # hf/3-21g
 ----------

 -----------------------
 tmpdir/M2_conf_83_8.gjf
 -----------------------
 Symbolic Z-matrix:
 Charge =  0 Multiplicity = 1

                         Standard orientation:
 ---------------------------------------------------------------------
 Center     Atomic      Atomic             Coordinates (Angstroms)
 Number     Number       Type             X           Y           Z
 ---------------------------------------------------------------------
      1          1           0       -1.616305   -0.018511    0.992962
      2          6           0       -1.202579   -0.000054    0.002453
      3         17           0        0.689319   -0.000084    0.004640
      4          1           0       -1.443272   -0.882195   -0.559749
      5          1           0       -1.443380    0.902451   -0.526809
 ---------------------------------------------------------------------

 SCF Done:  E(RHF) =  -496.687840331     A.U. after   11 cycles

 The electronic state is 1-A.
 Alpha  occ. eigenvalues -- -104.08786 -11.24997 -10.48176  -7.94550  -7.94146
 Alpha  occ. eigenvalues --   -7.94146  -1.11319  -0.93325  -0.63293  -0.63255
 Alpha  occ. eigenvalues --   -0.51255  -0.43765  -0.43667
 Alpha virt. eigenvalues --    0.16491   0.27330   0.31362   0.31420   0.73846
 Alpha virt. eigenvalues --    0.80293   0.81044   0.85588   0.92845   0.94371
 Alpha virt. eigenvalues --    0.99835   1.30939   1.31276   1.32349   1.91780

 Mulliken charges:
               1
     1  H    0.266097
     2  C   -0.703464
     3  Cl  -0.106851
     4  H    0.272133
     5  H    0.272085
 Sum of Mulliken charges =  -0.00000

 Dipole moment (field-independent basis, Debye):
    X=             -2.8615    Y=              0.0010    Z=             -0.0596  Tot=              2.8621
 Quadrupole moment (field-independent basis, Debye-Ang):
   XX=            -18.5641   YY=            -20.1785   ZZ=            -20.2041
   XY=              0.0033   XZ=             -0.1737   YZ=              0.0001

 Normal termination of Gaussian 16 at Fri Sep 22 17:16:11 2023.
