 Gaussian 16, Revision A.03,
 Gaussian 16:  ES64L-G16RevA.03 25-Dec-2016

 ----------
 # hf/3-21g
 ----------

 -----------------------
 tmpdir/M2_conf_23_8.gjf
 -----------------------
 Symbolic Z-matrix:
 Charge =  0 Multiplicity = 1

                         Standard orientation:
 ---------------------------------------------------------------------
 Center     Atomic      Atomic             Coordinates (Angstroms)
 Number     Number       Type             X           Y           Z
 ---------------------------------------------------------------------
      1          1           0       -1.515300    0.958877   -0.368545
      2          6           0       -1.202363    0.000269   -0.000093
      3         17           0        0.689535    0.000476   -0.000187
      4          1           0       -1.496238   -0.163954    1.019145
      5          1           0       -1.496379   -0.804630   -0.646862
 ---------------------------------------------------------------------

 SCF Done:  E(RHF) =  -496.689463637     A.U. after   11 cycles

 The electronic state is 1-A.
 Alpha  occ. eigenvalues -- -104.08772 -11.25001 -10.48162  -7.94536  -7.94132
 Alpha  occ. eigenvalues --   -7.94132  -1.11280  -0.93337  -0.63248  -0.63243
 Alpha  occ. eigenvalues --   -0.51323  -0.43734  -0.43719
 Alpha virt. eigenvalues --    0.16605   0.27332   0.31375   0.31381   0.73825
 Alpha virt. eigenvalues --    0.80644   0.80721   0.85499   0.93568   0.93755
 Alpha virt. eigenvalues --    0.99528   1.31219   1.31234   1.32199   1.92006

 Mulliken charges:
               1
     1  H    0.269442
     2  C   -0.702621
     3  Cl  -0.107060
     4  H    0.270144
     5  H    0.270096
 Sum of Mulliken charges =  -0.00000

 Dipole moment (field-independent basis, Debye):
    X=             -2.8663    Y=             -0.0064    Z=              0.0026  Tot=              2.8663
 Quadrupole moment (field-independent basis, Debye-Ang):
   XX=            -18.5704   YY=            -20.1801   ZZ=            -20.1809
   XY=             -0.0177   XZ=              0.0067   YZ=              0.0001

 Normal termination of Gaussian 16 at Fri Sep 22 17:14:42 2023.
