 Gaussian 16, Revision A.03,
 Gaussian 16:  ES64L-G16RevA.03 25-Dec-2016

 ----------
 # hf/3-21g
 ----------

 ------------------------
 tmpdir/M2_conf_140_2.gjf
 ------------------------
 Symbolic Z-matrix:
 Charge =  0 Multiplicity = 1

                         Standard orientation:
 ---------------------------------------------------------------------
 Center     Atomic      Atomic             Coordinates (Angstroms)
 Number     Number       Type             X           Y           Z
 ---------------------------------------------------------------------
      1          6           0        0.011851   -0.027974   -0.000015
      2          1           0        1.080392    0.436679   -0.002888
      3          1           0       -0.189665   -0.588261    0.893108
      4          1           0       -0.195038   -0.588423   -0.892045
      5          1           0       -0.766791    0.907852    0.001916
 ---------------------------------------------------------------------

 SCF Done:  E(RHF) =  -39.9627360828     A.U. after    9 cycles

 The electronic state is 1-A.
 Alpha  occ. eigenvalues --  -11.16787  -0.92905  -0.55798  -0.53766  -0.50133
 Alpha virt. eigenvalues --    0.27814   0.31297   0.34207   0.35687   0.91724
 Alpha virt. eigenvalues --    0.95098   0.98903   1.24180   1.27275   1.34233
 Alpha virt. eigenvalues --    1.36713   1.93611

 Mulliken charges:
               1
     1  C   -0.755323
     2  H    0.181523
     3  H    0.209461
     4  H    0.209410
     5  H    0.154929
 Sum of Mulliken charges =  -0.00000

 Dipole moment (field-independent basis, Debye):
    X=             -0.0201    Y=             -0.0733    Z=              0.0001  Tot=              0.0760
 Quadrupole moment (field-independent basis, Debye-Ang):
   XX=             -8.5315   YY=             -8.6183   ZZ=             -8.4767
   XY=              0.1578   XZ=              0.0011   YZ=             -0.0006

 Normal termination of Gaussian 16 at Fri Sep 22 17:17:36 2023.
