 Gaussian 16, Revision A.03,
 Gaussian 16:  ES64L-G16RevA.03 25-Dec-2016

 ----------
 # hf/3-21g
 ----------

 -----------------------
 tmpdir/M2_conf_82_9.gjf
 -----------------------
 Symbolic Z-matrix:
 Charge =  0 Multiplicity = 1

                         Standard orientation:
 ---------------------------------------------------------------------
 Center     Atomic      Atomic             Coordinates (Angstroms)
 Number     Number       Type             X           Y           Z
 ---------------------------------------------------------------------
      1          1           0        1.407257   -0.049053    1.050762
      2          6           0        1.202498    0.000101   -0.001984
      3         17           0       -0.689396    0.000170   -0.003799
      4          1           0        1.548896   -0.868804   -0.528490
      5          1           0        1.548601    0.914359   -0.445775
 ---------------------------------------------------------------------

 SCF Done:  E(RHF) =  -496.688348553     A.U. after   11 cycles

 The electronic state is 1-A.
 Alpha  occ. eigenvalues -- -104.08783 -11.24997 -10.48173  -7.94547  -7.94144
 Alpha  occ. eigenvalues --   -7.94143  -1.11309  -0.93329  -0.63312  -0.63216
 Alpha  occ. eigenvalues --   -0.51280  -0.43789  -0.43651
 Alpha virt. eigenvalues --    0.16532   0.27336   0.31368   0.31404   0.73840
 Alpha virt. eigenvalues --    0.80393   0.80925   0.85547   0.93024   0.94305
 Alpha virt. eigenvalues --    0.99683   1.31102   1.31200   1.32269   1.91837

 Mulliken charges:
               1
     1  H    0.273234
     2  C   -0.703023
     3  Cl  -0.107023
     4  H    0.268418
     5  H    0.268394
 Sum of Mulliken charges =  -0.00000

 Dipole moment (field-independent basis, Debye):
    X=              2.8628    Y=             -0.0025    Z=              0.0514  Tot=              2.8632
 Quadrupole moment (field-independent basis, Debye-Ang):
   XX=            -18.5662   YY=            -20.1823   ZZ=            -20.1936
   XY=              0.0061   XZ=             -0.1420   YZ=             -0.0002

 Normal termination of Gaussian 16 at Fri Sep 22 17:16:10 2023.
