 Gaussian 16, Revision A.03,
 Gaussian 16:  ES64L-G16RevA.03 25-Dec-2016

 ----------
 # hf/3-21g
 ----------

 ------------------------
 tmpdir/M2_conf_107_8.gjf
 ------------------------
 Symbolic Z-matrix:
 Charge =  0 Multiplicity = 1

                         Standard orientation:
 ---------------------------------------------------------------------
 Center     Atomic      Atomic             Coordinates (Angstroms)
 Number     Number       Type             X           Y           Z
 ---------------------------------------------------------------------
      1          1           0       -1.611738   -0.020215    0.994712
      2          6           0       -1.202559   -0.000056    0.002350
      3         17           0        0.689336   -0.000087    0.004453
      4          1           0       -1.445752   -0.881275   -0.560223
      5          1           0       -1.445861    0.903313   -0.524287
 ---------------------------------------------------------------------

 SCF Done:  E(RHF) =  -496.687971209     A.U. after   11 cycles

 The electronic state is 1-A.
 Alpha  occ. eigenvalues -- -104.08785 -11.24997 -10.48175  -7.94549  -7.94145
 Alpha  occ. eigenvalues --   -7.94145  -1.11316  -0.93326  -0.63290  -0.63253
 Alpha  occ. eigenvalues --   -0.51260  -0.43765  -0.43669
 Alpha virt. eigenvalues --    0.16500   0.27331   0.31363   0.31418   0.73844
 Alpha virt. eigenvalues --    0.80309   0.81029   0.85580   0.92879   0.94348
 Alpha virt. eigenvalues --    0.99809   1.30958   1.31274   1.32339   1.91798

 Mulliken charges:
               1
     1  H    0.266240
     2  C   -0.703394
     3  Cl  -0.106869
     4  H    0.272036
     5  H    0.271988
 Sum of Mulliken charges =   0.00000

 Dipole moment (field-independent basis, Debye):
    X=             -2.8619    Y=              0.0010    Z=             -0.0573  Tot=              2.8624
 Quadrupole moment (field-independent basis, Debye-Ang):
   XX=            -18.5646   YY=            -20.1786   ZZ=            -20.2023
   XY=              0.0035   XZ=             -0.1667   YZ=              0.0001

 Normal termination of Gaussian 16 at Fri Sep 22 17:16:47 2023.
