 Gaussian 16, Revision A.03,
 Gaussian 16:  ES64L-G16RevA.03 25-Dec-2016

 ----------
 # hf/3-21g
 ----------

 -----------------------
 tmpdir/M2_conf_86_4.gjf
 -----------------------
 Symbolic Z-matrix:
 Charge =  0 Multiplicity = 1

                         Standard orientation:
 ---------------------------------------------------------------------
 Center     Atomic      Atomic             Coordinates (Angstroms)
 Number     Number       Type             X           Y           Z
 ---------------------------------------------------------------------
      1          1           0        0.421426   -0.232391    0.959417
      2          6           0        0.023553    0.015914   -0.006103
      3          1           0        0.618092   -0.498998   -0.736866
      4          1           0       -0.075748    1.075298   -0.149105
      5          1           0       -1.105086   -0.439391   -0.036826
 ---------------------------------------------------------------------

 SCF Done:  E(RHF) =  -39.9663608782     A.U. after    9 cycles

 The electronic state is 1-A.
 Alpha  occ. eigenvalues --  -11.15720  -0.93800  -0.56449  -0.54543  -0.50498
 Alpha virt. eigenvalues --    0.28275   0.32324   0.35269   0.36010   0.91015
 Alpha virt. eigenvalues --    0.92752   0.97952   1.24920   1.32696   1.35949
 Alpha virt. eigenvalues --    1.37847   1.94493

 Mulliken charges:
               1
     1  H    0.205185
     2  C   -0.771418
     3  H    0.206184
     4  H    0.207246
     5  H    0.152803
 Sum of Mulliken charges =  -0.00000

 Dipole moment (field-independent basis, Debye):
    X=              0.0878    Y=              0.0120    Z=              0.0326  Tot=              0.0944
 Quadrupole moment (field-independent basis, Debye-Ang):
   XX=             -8.5049   YY=             -8.3552   ZZ=             -8.5736
   XY=             -0.1660   XZ=             -0.0202   YZ=             -0.0057

 Normal termination of Gaussian 16 at Fri Sep 22 17:16:16 2023.
