 Gaussian 16, Revision A.03,
 Gaussian 16:  ES64L-G16RevA.03 25-Dec-2016

 ----------
 # hf/3-21g
 ----------

 ------------------------
 tmpdir/M2_conf_219_5.gjf
 ------------------------
 Symbolic Z-matrix:
 Charge =  0 Multiplicity = 1

                         Standard orientation:
 ---------------------------------------------------------------------
 Center     Atomic      Atomic             Coordinates (Angstroms)
 Number     Number       Type             X           Y           Z
 ---------------------------------------------------------------------
      1          1           0        1.055323    0.045329   -0.318580
      2          6           0        0.025102   -0.029389   -0.026603
      3          1           0       -0.789174   -0.240240   -0.693769
      4          1           0       -0.120785   -0.702768    0.796737
      5          1           0       -0.295978    1.074015    0.375228
 ---------------------------------------------------------------------

 SCF Done:  E(RHF) =  -39.9605779879     A.U. after    9 cycles

 The electronic state is 1-A.
 Alpha  occ. eigenvalues --  -11.15763  -0.93881  -0.58008  -0.53945  -0.49356
 Alpha virt. eigenvalues --    0.28305   0.31498   0.34922   0.36587   0.90375
 Alpha virt. eigenvalues --    0.95198   0.97298   1.25335   1.31399   1.35531
 Alpha virt. eigenvalues --    1.39504   1.94531

 Mulliken charges:
               1
     1  H    0.212895
     2  C   -0.781310
     3  H    0.213238
     4  H    0.206158
     5  H    0.149019
 Sum of Mulliken charges =   0.00000

 Dipole moment (field-independent basis, Debye):
    X=             -0.0486    Y=             -0.0648    Z=              0.0255  Tot=              0.0849
 Quadrupole moment (field-independent basis, Debye-Ang):
   XX=             -7.9955   YY=             -8.6590   ZZ=             -8.8147
   XY=              0.1184   XZ=              0.0303   YZ=             -0.1460

 Normal termination of Gaussian 16 at Fri Sep 22 17:19:41 2023.
