 Gaussian 16, Revision A.03,
 Gaussian 16:  ES64L-G16RevA.03 25-Dec-2016

 ----------
 # hf/3-21g
 ----------

 ------------------------
 tmpdir/M2_conf_109_7.gjf
 ------------------------
 Symbolic Z-matrix:
 Charge =  0 Multiplicity = 1

                         Standard orientation:
 ---------------------------------------------------------------------
 Center     Atomic      Atomic             Coordinates (Angstroms)
 Number     Number       Type             X           Y           Z
 ---------------------------------------------------------------------
      1          1           0        0.454735   -0.189777    0.949366
      2          6           0        0.018648    0.020415   -0.008895
      3          1           0        0.696855   -0.406029   -0.723599
      4          1           0       -0.226524    1.058410   -0.129852
      5          1           0       -1.036951   -0.585093   -0.042543
 ---------------------------------------------------------------------

 SCF Done:  E(RHF) =  -39.9655454980     A.U. after    9 cycles

 The electronic state is 1-A.
 Alpha  occ. eigenvalues --  -11.15720  -0.93822  -0.56792  -0.54079  -0.50574
 Alpha virt. eigenvalues --    0.28249   0.32338   0.35091   0.36130   0.90735
 Alpha virt. eigenvalues --    0.93078   0.98128   1.24860   1.32732   1.35561
 Alpha virt. eigenvalues --    1.38278   1.94371

 Mulliken charges:
               1
     1  H    0.204719
     2  C   -0.772407
     3  H    0.206412
     4  H    0.207788
     5  H    0.153487
 Sum of Mulliken charges =   0.00000

 Dipole moment (field-independent basis, Debye):
    X=              0.0958    Y=              0.0185    Z=              0.0463  Tot=              0.1080
 Quadrupole moment (field-independent basis, Debye-Ang):
   XX=             -8.4014   YY=             -8.3824   ZZ=             -8.6503
   XY=             -0.2063   XZ=             -0.0236   YZ=             -0.0095

 Normal termination of Gaussian 16 at Fri Sep 22 17:16:50 2023.
