 Gaussian 16, Revision A.03,
 Gaussian 16:  ES64L-G16RevA.03 25-Dec-2016

 ----------
 # hf/3-21g
 ----------

 -----------------------
 tmpdir/M2_conf_85_3.gjf
 -----------------------
 Symbolic Z-matrix:
 Charge =  0 Multiplicity = 1

                         Standard orientation:
 ---------------------------------------------------------------------
 Center     Atomic      Atomic             Coordinates (Angstroms)
 Number     Number       Type             X           Y           Z
 ---------------------------------------------------------------------
      1          6           0       -1.259830    0.000018    0.000010
      2         17           0        0.719970   -0.000014   -0.000003
      3          1           0       -1.560197   -0.278184    0.992269
      4          1           0       -1.559875    0.998730   -0.255257
      5          1           0       -1.560446   -0.720422   -0.737021
 ---------------------------------------------------------------------

 SCF Done:  E(RHF) =  -496.687184962     A.U. after   10 cycles

 The electronic state is 1-A.
 Alpha  occ. eigenvalues -- -104.08745 -11.25949 -10.47919  -7.94278  -7.93913
 Alpha  occ. eigenvalues --   -7.93913  -1.09268  -0.94206  -0.63174  -0.63169
 Alpha  occ. eigenvalues --   -0.49808  -0.43607  -0.43607
 Alpha virt. eigenvalues --    0.13691   0.26984   0.31274   0.31277   0.73646
 Alpha virt. eigenvalues --    0.80265   0.80269   0.85562   0.93644   0.93655
 Alpha virt. eigenvalues --    1.01670   1.30816   1.30825   1.31168   1.89197

 Mulliken charges:
               1
     1  C   -0.648674
     2  Cl  -0.161067
     3  H    0.269937
     4  H    0.269917
     5  H    0.269887
 Sum of Mulliken charges =  -0.00000

 Dipole moment (field-independent basis, Debye):
    X=             -3.1773    Y=              0.0001    Z=              0.0001  Tot=              3.1773
 Quadrupole moment (field-independent basis, Debye-Ang):
   XX=            -18.0084   YY=            -20.2507   ZZ=            -20.2520
   XY=              0.0007   XZ=             -0.0001   YZ=             -0.0001

 Normal termination of Gaussian 16 at Fri Sep 22 17:16:15 2023.
