 Gaussian 16, Revision A.03,
 Gaussian 16:  ES64L-G16RevA.03 25-Dec-2016

 ----------
 # hf/3-21g
 ----------

 ------------------------
 tmpdir/M2_conf_258_8.gjf
 ------------------------
 Symbolic Z-matrix:
 Charge =  0 Multiplicity = 1

                         Standard orientation:
 ---------------------------------------------------------------------
 Center     Atomic      Atomic             Coordinates (Angstroms)
 Number     Number       Type             X           Y           Z
 ---------------------------------------------------------------------
      1          1           0        0.410716    0.000010    0.642741
      2          6           0        1.222221    0.000020   -0.060166
      3         17           0       -0.669175   -0.000010   -0.016306
      4          1           0        1.815790    0.892490   -0.002276
      5          1           0        1.816145   -0.892460   -0.002274
 ---------------------------------------------------------------------

 SCF Done:  E(RHF) =  -496.439266341     A.U. after   12 cycles

 The electronic state is 1-A.
 Alpha  occ. eigenvalues -- -104.13705 -11.20266 -10.53948  -8.00350  -7.99735
 Alpha  occ. eigenvalues --   -7.99669  -1.23867  -0.90907  -0.68675  -0.61300
 Alpha  occ. eigenvalues --   -0.53507  -0.48656  -0.34307
 Alpha virt. eigenvalues --    0.10401   0.32355   0.33592   0.36102   0.72100
 Alpha virt. eigenvalues --    0.75055   0.75742   0.79900   0.91829   0.99174
 Alpha virt. eigenvalues --    1.05151   1.20871   1.33709   1.34001   1.81814

 Mulliken charges:
               1
     1  H    0.266515
     2  C   -0.798205
     3  Cl  -0.010310
     4  H    0.271017
     5  H    0.270984
 Sum of Mulliken charges =  -0.00000

 Dipole moment (field-independent basis, Debye):
    X=              1.0145    Y=              0.0000    Z=              0.9436  Tot=              1.3855
 Quadrupole moment (field-independent basis, Debye-Ang):
   XX=            -19.1856   YY=            -19.8169   ZZ=            -21.9924
   XY=             -0.0003   XZ=              0.1355   YZ=              0.0000

 Normal termination of Gaussian 16 at Fri Sep 22 17:20:41 2023.
