 Gaussian 16, Revision A.03,
 Gaussian 16:  ES64L-G16RevA.03 25-Dec-2016

 ----------
 # hf/3-21g
 ----------

 ----------------------
 tmpdir/M2_conf_0_7.gjf
 ----------------------
 Symbolic Z-matrix:
 Charge =  0 Multiplicity = 1

                         Standard orientation:
 ---------------------------------------------------------------------
 Center     Atomic      Atomic             Coordinates (Angstroms)
 Number     Number       Type             X           Y           Z
 ---------------------------------------------------------------------
      1          1           0       -1.033302    0.155032   -0.336935
      2          6           0       -0.023743   -0.027506   -0.020567
      3          1           0        0.725312   -0.370020   -0.709210
      4          1           0        0.027895   -0.669123    0.838406
      5          1           0        0.422555    1.049146    0.331142
 ---------------------------------------------------------------------

 SCF Done:  E(RHF) =  -39.9634680429     A.U. after    9 cycles

 The electronic state is 1-A.
 Alpha  occ. eigenvalues --  -11.15749  -0.93830  -0.57365  -0.54377  -0.49685
 Alpha virt. eigenvalues --    0.28325   0.31794   0.35119   0.36346   0.90716
 Alpha virt. eigenvalues --    0.94109   0.97353   1.25285   1.31718   1.35846
 Alpha virt. eigenvalues --    1.38748   1.94605

 Mulliken charges:
               1
     1  H    0.210409
     2  C   -0.776352
     3  H    0.210283
     4  H    0.206107
     5  H    0.149553
 Sum of Mulliken charges =  -0.00000

 Dipole moment (field-independent basis, Debye):
    X=              0.0227    Y=             -0.0672    Z=              0.0150  Tot=              0.0725
 Quadrupole moment (field-independent basis, Debye-Ang):
   XX=             -8.1441   YY=             -8.6231   ZZ=             -8.6903
   XY=             -0.1677   XZ=             -0.0434   YZ=             -0.1254

 Normal termination of Gaussian 16 at Fri Sep 22 17:14:07 2023.
