 Gaussian 16, Revision A.03,
 Gaussian 16:  ES64L-G16RevA.03 25-Dec-2016

 ----------
 # hf/3-21g
 ----------

 ------------------------
 tmpdir/M2_conf_180_9.gjf
 ------------------------
 Symbolic Z-matrix:
 Charge =  0 Multiplicity = 1

                         Standard orientation:
 ---------------------------------------------------------------------
 Center     Atomic      Atomic             Coordinates (Angstroms)
 Number     Number       Type             X           Y           Z
 ---------------------------------------------------------------------
      1          1           0        0.957733   -0.001750    1.028849
      2          6           0        1.206897    0.000022   -0.015436
      3         17           0       -0.684999    0.000030   -0.018065
      4          1           0        1.722947   -0.891990   -0.315773
      5          1           0        1.722922    0.893088   -0.313356
 ---------------------------------------------------------------------

 SCF Done:  E(RHF) =  -496.648411866     A.U. after   11 cycles

 The electronic state is 1-A.
 Alpha  occ. eigenvalues -- -104.09265 -11.24716 -10.48714  -7.95078  -7.94667
 Alpha  occ. eigenvalues --   -7.94653  -1.12523  -0.93041  -0.64503  -0.63078
 Alpha  occ. eigenvalues --   -0.50469  -0.44465  -0.42407
 Alpha virt. eigenvalues --    0.14573   0.27858   0.31538   0.31655   0.74156
 Alpha virt. eigenvalues --    0.79050   0.80682   0.84916   0.93575   0.96876
 Alpha virt. eigenvalues --    1.01985   1.28615   1.31242   1.31872   1.86682

 Mulliken charges:
               1
     1  H    0.287801
     2  C   -0.708756
     3  Cl  -0.111750
     4  H    0.266368
     5  H    0.266337
 Sum of Mulliken charges =  -0.00000

 Dipole moment (field-independent basis, Debye):
    X=              2.7130    Y=             -0.0006    Z=              0.3122  Tot=              2.7309
 Quadrupole moment (field-independent basis, Debye-Ang):
   XX=            -18.5131   YY=            -20.1716   ZZ=            -20.6427
   XY=              0.0009   XZ=             -0.6647   YZ=             -0.0000

 Normal termination of Gaussian 16 at Fri Sep 22 17:18:38 2023.
