 Gaussian 16, Revision A.03,
 Gaussian 16:  ES64L-G16RevA.03 25-Dec-2016

 ----------
 # hf/3-21g
 ----------

 ------------------------
 tmpdir/M2_conf_251_0.gjf
 ------------------------
 Symbolic Z-matrix:
 Charge =  0 Multiplicity = 1

                         Standard orientation:
 ---------------------------------------------------------------------
 Center     Atomic      Atomic             Coordinates (Angstroms)
 Number     Number       Type             X           Y           Z
 ---------------------------------------------------------------------
      1          6           0        0.009900   -0.028735    0.000056
      2          1           0        1.104749    0.390019    0.001253
      3          1           0       -0.220884   -0.577968    0.893200
      4          1           0       -0.217455   -0.580851   -0.892178
      5          1           0       -0.725808    0.941213   -0.002614
 ---------------------------------------------------------------------

 SCF Done:  E(RHF) =  -39.9620781341     A.U. after    9 cycles

 The electronic state is 1-A.
 Alpha  occ. eigenvalues --  -11.16869  -0.92847  -0.55810  -0.53636  -0.50111
 Alpha virt. eigenvalues --    0.27753   0.31201   0.34131   0.35684   0.91718
 Alpha virt. eigenvalues --    0.95229   0.99109   1.24017   1.26943   1.34138
 Alpha virt. eigenvalues --    1.36685   1.93530

 Mulliken charges:
               1
     1  C   -0.753916
     2  H    0.179503
     3  H    0.209613
     4  H    0.209612
     5  H    0.155188
 Sum of Mulliken charges =  -0.00000

 Dipole moment (field-independent basis, Debye):
    X=             -0.0289    Y=             -0.0737    Z=              0.0001  Tot=              0.0791
 Quadrupole moment (field-independent basis, Debye-Ang):
   XX=             -8.5204   YY=             -8.6373   ZZ=             -8.4828
   XY=              0.1549   XZ=             -0.0010   YZ=              0.0008

 Normal termination of Gaussian 16 at Fri Sep 22 17:20:30 2023.
