 Gaussian 16, Revision A.03,
 Gaussian 16:  ES64L-G16RevA.03 25-Dec-2016

 ----------
 # hf/3-21g
 ----------

 ------------------------
 tmpdir/M2_conf_143_9.gjf
 ------------------------
 Symbolic Z-matrix:
 Charge =  0 Multiplicity = 1

                         Standard orientation:
 ---------------------------------------------------------------------
 Center     Atomic      Atomic             Coordinates (Angstroms)
 Number     Number       Type             X           Y           Z
 ---------------------------------------------------------------------
      1          1           0        0.876317   -0.001310    1.001585
      2          6           0        1.208369    0.000019   -0.019374
      3         17           0       -0.683528    0.000027   -0.019587
      4          1           0        1.746706   -0.892168   -0.277041
      5          1           0        1.746734    0.892911   -0.275329
 ---------------------------------------------------------------------

 SCF Done:  E(RHF) =  -496.633012569     A.U. after   11 cycles

 The electronic state is 1-A.
 Alpha  occ. eigenvalues -- -104.09481 -11.24542 -10.48970  -7.95331  -7.94916
 Alpha  occ. eigenvalues --   -7.94894  -1.13072  -0.92921  -0.64872  -0.63015
 Alpha  occ. eigenvalues --   -0.50412  -0.44725  -0.41862
 Alpha virt. eigenvalues --    0.13994   0.28149   0.31630   0.31744   0.74188
 Alpha virt. eigenvalues --    0.78764   0.80531   0.84677   0.93999   0.97255
 Alpha virt. eigenvalues --    1.02378   1.27750   1.31319   1.31621   1.85247

 Mulliken charges:
               1
     1  H    0.290204
     2  C   -0.710760
     3  Cl  -0.113125
     4  H    0.266857
     5  H    0.266824
 Sum of Mulliken charges =  -0.00000

 Dipole moment (field-independent basis, Debye):
    X=              2.6416    Y=             -0.0005    Z=              0.3652  Tot=              2.6667
 Quadrupole moment (field-independent basis, Debye-Ang):
   XX=            -18.5230   YY=            -20.1618   ZZ=            -20.7884
   XY=              0.0008   XZ=             -0.7111   YZ=             -0.0000

 Normal termination of Gaussian 16 at Fri Sep 22 17:17:41 2023.
