 Gaussian 16, Revision A.03,
 Gaussian 16:  ES64L-G16RevA.03 25-Dec-2016

 ----------
 # hf/3-21g
 ----------

 ------------------------
 tmpdir/M2_conf_166_3.gjf
 ------------------------
 Symbolic Z-matrix:
 Charge =  0 Multiplicity = 1

                         Standard orientation:
 ---------------------------------------------------------------------
 Center     Atomic      Atomic             Coordinates (Angstroms)
 Number     Number       Type             X           Y           Z
 ---------------------------------------------------------------------
      1          6           0       -1.580214    0.000014    0.000009
      2         17           0        0.889586   -0.000011   -0.000002
      3          1           0       -1.880582   -0.278189    0.992267
      4          1           0       -1.880266    0.998723   -0.255260
      5          1           0       -1.880825   -0.720430   -0.737022
 ---------------------------------------------------------------------

 SCF Done:  E(RHF) =  -496.632812132     A.U. after   10 cycles

 The electronic state is 1-A.
 Alpha  occ. eigenvalues -- -104.06811 -11.30809 -10.45453  -7.91771  -7.91524
 Alpha  occ. eigenvalues --   -7.91524  -1.02788  -0.97672  -0.65122  -0.65118
 Alpha  occ. eigenvalues --   -0.42293  -0.41353  -0.41353
 Alpha virt. eigenvalues --    0.02087   0.24924   0.29734   0.29738   0.73201
 Alpha virt. eigenvalues --    0.78694   0.78700   0.89771   0.92980   0.92988
 Alpha virt. eigenvalues --    0.99053   1.26133   1.27761   1.27771   1.78959

 Mulliken charges:
               1
     1  C   -0.442507
     2  Cl  -0.380007
     3  H    0.274184
     4  H    0.274182
     5  H    0.274148
 Sum of Mulliken charges =  -0.00000

 Dipole moment (field-independent basis, Debye):
    X=             -5.2310    Y=              0.0001    Z=              0.0001  Tot=              5.2310
 Quadrupole moment (field-independent basis, Debye-Ang):
   XX=            -14.5748   YY=            -20.4200   ZZ=            -20.4214
   XY=              0.0004   XZ=             -0.0001   YZ=             -0.0001

 Normal termination of Gaussian 16 at Fri Sep 22 17:18:16 2023.
