 Gaussian 16, Revision A.03,
 Gaussian 16:  ES64L-G16RevA.03 25-Dec-2016

 ----------
 # hf/3-21g
 ----------

 ------------------------
 tmpdir/M2_conf_179_2.gjf
 ------------------------
 Symbolic Z-matrix:
 Charge =  0 Multiplicity = 1

                         Standard orientation:
 ---------------------------------------------------------------------
 Center     Atomic      Atomic             Coordinates (Angstroms)
 Number     Number       Type             X           Y           Z
 ---------------------------------------------------------------------
      1          6           0        0.007539   -0.029495   -0.000015
      2          1           0        1.131401    0.336635   -0.002459
      3          1           0       -0.246654   -0.568288    0.892894
      4          1           0       -0.251407   -0.567518   -0.892260
      5          1           0       -0.678574    0.976140    0.001918
 ---------------------------------------------------------------------

 SCF Done:  E(RHF) =  -39.9610860560     A.U. after    9 cycles

 The electronic state is 1-A.
 Alpha  occ. eigenvalues --  -11.16977  -0.92776  -0.55831  -0.53462  -0.50076
 Alpha virt. eigenvalues --    0.27662   0.31066   0.34039   0.35686   0.91692
 Alpha virt. eigenvalues --    0.95376   0.99427   1.23745   1.26541   1.34040
 Alpha virt. eigenvalues --    1.36666   1.93422

 Mulliken charges:
               1
     1  C   -0.751976
     2  H    0.176654
     3  H    0.209926
     4  H    0.209875
     5  H    0.155521
 Sum of Mulliken charges =   0.00000

 Dipole moment (field-independent basis, Debye):
    X=             -0.0408    Y=             -0.0739    Z=              0.0002  Tot=              0.0844
 Quadrupole moment (field-independent basis, Debye-Ang):
   XX=             -8.5072   YY=             -8.6603   ZZ=             -8.4917
   XY=              0.1506   XZ=              0.0010   YZ=             -0.0007

 Normal termination of Gaussian 16 at Fri Sep 22 17:18:36 2023.
