 Gaussian 16, Revision A.03,
 Gaussian 16:  ES64L-G16RevA.03 25-Dec-2016

 ----------
 # hf/3-21g
 ----------

 -----------------------
 tmpdir/M2_conf_74_6.gjf
 -----------------------
 Symbolic Z-matrix:
 Charge =  0 Multiplicity = 1

                         Standard orientation:
 ---------------------------------------------------------------------
 Center     Atomic      Atomic             Coordinates (Angstroms)
 Number     Number       Type             X           Y           Z
 ---------------------------------------------------------------------
      1          1           0       -1.619557   -0.009174    0.991577
      2          6           0       -1.202588   -0.000002    0.002516
      3         17           0        0.689311   -0.000058    0.004771
      4          1           0       -1.441344    0.897736   -0.535698
      5          1           0       -1.441853   -0.887569   -0.552088
 ---------------------------------------------------------------------

 SCF Done:  E(RHF) =  -496.687742648     A.U. after   11 cycles

 The electronic state is 1-A.
 Alpha  occ. eigenvalues -- -104.08787 -11.24997 -10.48177  -7.94551  -7.94147
 Alpha  occ. eigenvalues --   -7.94147  -1.11321  -0.93324  -0.63296  -0.63255
 Alpha  occ. eigenvalues --   -0.51251  -0.43766  -0.43666
 Alpha virt. eigenvalues --    0.16484   0.27330   0.31361   0.31424   0.73847
 Alpha virt. eigenvalues --    0.80279   0.81056   0.85592   0.92833   0.94377
 Alpha virt. eigenvalues --    0.99854   1.30942   1.31274   1.32343   1.91765

 Mulliken charges:
               1
     1  H    0.266028
     2  C   -0.703508
     3  Cl  -0.106827
     4  H    0.272166
     5  H    0.272142
 Sum of Mulliken charges =  -0.00000

 Dipole moment (field-independent basis, Debye):
    X=             -2.8612    Y=              0.0006    Z=             -0.0610  Tot=              2.8618
 Quadrupole moment (field-independent basis, Debye-Ang):
   XX=            -18.5635   YY=            -20.1774   ZZ=            -20.2067
   XY=              0.0023   XZ=             -0.1791   YZ=             -0.0001

 Normal termination of Gaussian 16 at Fri Sep 22 17:15:58 2023.
