 Gaussian 16, Revision A.03,
 Gaussian 16:  ES64L-G16RevA.03 25-Dec-2016

 ----------
 # hf/3-21g
 ----------

 ------------------------
 tmpdir/M2_conf_116_7.gjf
 ------------------------
 Symbolic Z-matrix:
 Charge =  0 Multiplicity = 1

                         Standard orientation:
 ---------------------------------------------------------------------
 Center     Atomic      Atomic             Coordinates (Angstroms)
 Number     Number       Type             X           Y           Z
 ---------------------------------------------------------------------
      1          1           0       -0.353496    0.967613   -0.349434
      2          6           0       -0.033324    0.001444   -0.007930
      3          1           0       -0.160117   -0.800285   -0.710619
      4          1           0       -0.455651   -0.258465    0.944048
      5          1           0        1.169206    0.082472    0.163585
 ---------------------------------------------------------------------

 SCF Done:  E(RHF) =  -39.9664353692     A.U. after    9 cycles

 The electronic state is 1-A.
 Alpha  occ. eigenvalues --  -11.15731  -0.93781  -0.56211  -0.55210  -0.50114
 Alpha virt. eigenvalues --    0.28329   0.32134   0.35500   0.35907   0.91486
 Alpha virt. eigenvalues --    0.92535   0.97517   1.25146   1.32245   1.36533
 Alpha virt. eigenvalues --    1.37509   1.94669

 Mulliken charges:
               1
     1  H    0.207413
     2  C   -0.771485
     3  H    0.207143
     4  H    0.206235
     5  H    0.150693
 Sum of Mulliken charges =  -0.00000

 Dipole moment (field-independent basis, Debye):
    X=             -0.0625    Y=             -0.0197    Z=              0.0015  Tot=              0.0655
 Quadrupole moment (field-independent basis, Debye-Ang):
   XX=             -8.6684   YY=             -8.2969   ZZ=             -8.4771
   XY=             -0.0390   XZ=             -0.0667   YZ=             -0.0065

 Normal termination of Gaussian 16 at Fri Sep 22 17:17:01 2023.
