 Gaussian 16, Revision A.03,
 Gaussian 16:  ES64L-G16RevA.03 25-Dec-2016

 ----------
 # hf/3-21g
 ----------

 -----------------------
 tmpdir/M2_conf_90_8.gjf
 -----------------------
 Symbolic Z-matrix:
 Charge =  0 Multiplicity = 1

                         Standard orientation:
 ---------------------------------------------------------------------
 Center     Atomic      Atomic             Coordinates (Angstroms)
 Number     Number       Type             X           Y           Z
 ---------------------------------------------------------------------
      1          1           0        1.525983   -0.809191   -0.627804
      2          6           0        1.202371   -0.000406   -0.000302
      3         17           0       -0.689530   -0.000745   -0.000583
      4          1           0        1.490827   -0.135058    1.024802
      5          1           0        1.490965    0.959348   -0.385277
 ---------------------------------------------------------------------

 SCF Done:  E(RHF) =  -496.689415489     A.U. after   11 cycles

 The electronic state is 1-A.
 Alpha  occ. eigenvalues -- -104.08773 -11.25001 -10.48162  -7.94537  -7.94133
 Alpha  occ. eigenvalues --   -7.94133  -1.11282  -0.93336  -0.63252  -0.63241
 Alpha  occ. eigenvalues --   -0.51321  -0.43739  -0.43713
 Alpha virt. eigenvalues --    0.16602   0.27332   0.31373   0.31384   0.73826
 Alpha virt. eigenvalues --    0.80609   0.80754   0.85501   0.93494   0.93828
 Alpha virt. eigenvalues --    0.99536   1.31207   1.31237   1.32204   1.91999

 Mulliken charges:
               1
     1  H    0.269074
     2  C   -0.702642
     3  Cl  -0.107058
     4  H    0.270337
     5  H    0.270289
 Sum of Mulliken charges =  -0.00000

 Dipole moment (field-independent basis, Debye):
    X=              2.8661    Y=              0.0098    Z=              0.0078  Tot=              2.8662
 Quadrupole moment (field-independent basis, Debye-Ang):
   XX=            -18.5702   YY=            -20.1806   ZZ=            -20.1811
   XY=             -0.0278   XZ=             -0.0215   YZ=             -0.0004

 Normal termination of Gaussian 16 at Fri Sep 22 17:16:22 2023.
