 Gaussian 16, Revision A.03,
 Gaussian 16:  ES64L-G16RevA.03 25-Dec-2016

 ----------
 # hf/3-21g
 ----------

 ------------------------
 tmpdir/M2_conf_233_6.gjf
 ------------------------
 Symbolic Z-matrix:
 Charge =  0 Multiplicity = 1

                         Standard orientation:
 ---------------------------------------------------------------------
 Center     Atomic      Atomic             Coordinates (Angstroms)
 Number     Number       Type             X           Y           Z
 ---------------------------------------------------------------------
      1          1           0       -1.405185   -0.021582    1.051853
      2          6           0       -1.202511    0.000060   -0.002018
      3         17           0        0.689391    0.000068   -0.003883
      4          1           0       -1.549466    0.902538   -0.468672
      5          1           0       -1.549925   -0.882471   -0.505061
 ---------------------------------------------------------------------

 SCF Done:  E(RHF) =  -496.688300005     A.U. after   11 cycles

 The electronic state is 1-A.
 Alpha  occ. eigenvalues -- -104.08784 -11.24997 -10.48173  -7.94548  -7.94144
 Alpha  occ. eigenvalues --   -7.94143  -1.11310  -0.93329  -0.63316  -0.63214
 Alpha  occ. eigenvalues --   -0.51278  -0.43790  -0.43650
 Alpha virt. eigenvalues --    0.16529   0.27336   0.31369   0.31402   0.73841
 Alpha virt. eigenvalues --    0.80389   0.80928   0.85549   0.93003   0.94327
 Alpha virt. eigenvalues --    0.99689   1.31092   1.31193   1.32283   1.91830

 Mulliken charges:
               1
     1  H    0.273352
     2  C   -0.703038
     3  Cl  -0.107036
     4  H    0.268371
     5  H    0.268350
 Sum of Mulliken charges =   0.00000

 Dipole moment (field-independent basis, Debye):
    X=             -2.8627    Y=             -0.0010    Z=              0.0527  Tot=              2.8632
 Quadrupole moment (field-independent basis, Debye-Ang):
   XX=            -18.5661   YY=            -20.1816   ZZ=            -20.1948
   XY=             -0.0024   XZ=              0.1448   YZ=             -0.0002

 Normal termination of Gaussian 16 at Fri Sep 22 17:20:02 2023.
