 Gaussian 16, Revision A.03,
 Gaussian 16:  ES64L-G16RevA.03 25-Dec-2016

 ----------
 # hf/3-21g
 ----------

 ------------------------
 tmpdir/M2_conf_196_6.gjf
 ------------------------
 Symbolic Z-matrix:
 Charge =  0 Multiplicity = 1

                         Standard orientation:
 ---------------------------------------------------------------------
 Center     Atomic      Atomic             Coordinates (Angstroms)
 Number     Number       Type             X           Y           Z
 ---------------------------------------------------------------------
      1          1           0       -0.990713   -0.001328    1.037495
      2          6           0       -1.206369    0.000030   -0.014017
      3         17           0        0.685533    0.000014   -0.017326
      4          1           0       -1.712408    0.893141   -0.328482
      5          1           0       -1.712719   -0.892238   -0.330366
 ---------------------------------------------------------------------

 SCF Done:  E(RHF) =  -496.653743588     A.U. after   11 cycles

 The electronic state is 1-A.
 Alpha  occ. eigenvalues -- -104.09193 -11.24769 -10.48630  -7.94996  -7.94586
 Alpha  occ. eigenvalues --   -7.94574  -1.12343  -0.93081  -0.64369  -0.63096
 Alpha  occ. eigenvalues --   -0.50515  -0.44378  -0.42586
 Alpha virt. eigenvalues --    0.14790   0.27768   0.31510   0.31623   0.74136
 Alpha virt. eigenvalues --    0.79160   0.80741   0.85025   0.93374   0.96724
 Alpha virt. eigenvalues --    1.01813   1.28894   1.31214   1.31978   1.87246

 Mulliken charges:
               1
     1  H    0.286866
     2  C   -0.708158
     3  Cl  -0.111132
     4  H    0.266217
     5  H    0.266206
 Sum of Mulliken charges =  -0.00000

 Dipole moment (field-independent basis, Debye):
    X=             -2.7360    Y=             -0.0003    Z=              0.2918  Tot=              2.7515
 Quadrupole moment (field-independent basis, Debye-Ang):
   XX=            -18.5131   YY=            -20.1738   ZZ=            -20.5895
   XY=             -0.0005   XZ=              0.6394   YZ=             -0.0001

 Normal termination of Gaussian 16 at Fri Sep 22 17:19:06 2023.
