 Gaussian 16, Revision A.03,
 Gaussian 16:  ES64L-G16RevA.03 25-Dec-2016

 ----------
 # hf/3-21g
 ----------

 ------------------------
 tmpdir/M2_conf_268_3.gjf
 ------------------------
 Symbolic Z-matrix:
 Charge =  0 Multiplicity = 1

                         Standard orientation:
 ---------------------------------------------------------------------
 Center     Atomic      Atomic             Coordinates (Angstroms)
 Number     Number       Type             X           Y           Z
 ---------------------------------------------------------------------
      1          6           0       -2.498999    0.000007    0.000008
      2         17           0        1.376001   -0.000007   -0.000002
      3          1           0       -2.799367   -0.278197    0.992265
      4          1           0       -2.799056    0.998714   -0.255263
      5          1           0       -2.799603   -0.720439   -0.737023
 ---------------------------------------------------------------------

 SCF Done:  E(RHF) =  -496.494613982     A.U. after   10 cycles

 The electronic state is 1-A.
 Alpha  occ. eigenvalues -- -103.98516 -11.38932 -10.37295  -7.83614  -7.83437
 Alpha  occ. eigenvalues --   -7.83437  -1.07082  -0.92504  -0.72325  -0.72320
 Alpha  occ. eigenvalues --   -0.34454  -0.34454  -0.30687
 Alpha virt. eigenvalues --   -0.11742   0.19532   0.24124   0.24128   0.74846
 Alpha virt. eigenvalues --    0.78385   0.78399   0.83535   0.90240   0.90241
 Alpha virt. eigenvalues --    0.95040   1.09169   1.20931   1.20940   1.61478

 Mulliken charges:
               1
     1  C   -0.336416
     2  Cl  -0.608359
     3  H    0.314928
     4  H    0.314937
     5  H    0.314911
 Sum of Mulliken charges =  -0.00000

 Dipole moment (field-independent basis, Debye):
    X=            -11.7091    Y=              0.0001    Z=              0.0000  Tot=             11.7091
 Quadrupole moment (field-independent basis, Debye-Ang):
   XX=             -4.1777   YY=            -20.3784   ZZ=            -20.3800
   XY=              0.0002   XZ=              0.0000   YZ=             -0.0001

 Normal termination of Gaussian 16 at Fri Sep 22 17:20:56 2023.
