 Gaussian 16, Revision A.03,
 Gaussian 16:  ES64L-G16RevA.03 25-Dec-2016

 ----------
 # hf/3-21g
 ----------

 ------------------------
 tmpdir/M2_conf_273_5.gjf
 ------------------------
 Symbolic Z-matrix:
 Charge =  0 Multiplicity = 1

                         Standard orientation:
 ---------------------------------------------------------------------
 Center     Atomic      Atomic             Coordinates (Angstroms)
 Number     Number       Type             X           Y           Z
 ---------------------------------------------------------------------
      1          1           0       -0.341808   -0.319695    0.974565
      2          6           0       -0.030831    0.002877   -0.000847
      3          1           0       -0.386619   -0.658942   -0.767682
      4          1           0       -0.270863    1.032226   -0.189086
      5          1           0        1.184276   -0.070853   -0.012716
 ---------------------------------------------------------------------

 SCF Done:  E(RHF) =  -39.9669884086     A.U. after    9 cycles

 The electronic state is 1-A.
 Alpha  occ. eigenvalues --  -11.15724  -0.93777  -0.55774  -0.55453  -0.50314
 Alpha virt. eigenvalues --    0.28313   0.32253   0.35617   0.35745   0.91739
 Alpha virt. eigenvalues --    0.92063   0.97681   1.25043   1.32508   1.36767
 Alpha virt. eigenvalues --    1.37081   1.94635

 Mulliken charges:
               1
     1  H    0.206216
     2  C   -0.770617
     3  H    0.206285
     4  H    0.206533
     5  H    0.151583
 Sum of Mulliken charges =  -0.00000

 Dipole moment (field-independent basis, Debye):
    X=             -0.0734    Y=              0.0010    Z=              0.0058  Tot=              0.0737
 Quadrupole moment (field-independent basis, Debye-Ang):
   XX=             -8.6449   YY=             -8.3702   ZZ=             -8.4216
   XY=              0.0291   XZ=              0.0063   YZ=             -0.0001

 Normal termination of Gaussian 16 at Fri Sep 22 17:21:03 2023.
