 Gaussian 16, Revision A.03,
 Gaussian 16:  ES64L-G16RevA.03 25-Dec-2016

 ----------
 # hf/3-21g
 ----------

 ------------------------
 tmpdir/M2_conf_162_2.gjf
 ------------------------
 Symbolic Z-matrix:
 Charge =  0 Multiplicity = 1

                         Standard orientation:
 ---------------------------------------------------------------------
 Center     Atomic      Atomic             Coordinates (Angstroms)
 Number     Number       Type             X           Y           Z
 ---------------------------------------------------------------------
      1          6           0        0.032276    0.000013    0.015820
      2          1           0        0.137005   -0.002323    0.980349
      3          1           0        0.419926   -0.890489   -0.441271
      4          1           0        0.415804    0.894662   -0.437093
      5          1           0       -1.166390   -0.001929   -0.196907
 ---------------------------------------------------------------------

 SCF Done:  E(RHF) =  -39.9566569254     A.U. after    9 cycles

 The electronic state is 1-A.
 Alpha  occ. eigenvalues --  -11.14531  -0.95164  -0.57912  -0.55503  -0.50289
 Alpha virt. eigenvalues --    0.28563   0.32645   0.35682   0.38019   0.87231
 Alpha virt. eigenvalues --    0.92168   0.97575   1.25437   1.34312   1.37134
 Alpha virt. eigenvalues --    1.47215   1.96357

 Mulliken charges:
               1
     1  C   -0.781534
     2  H    0.230262
     3  H    0.202283
     4  H    0.202239
     5  H    0.146750
 Sum of Mulliken charges =   0.00000

 Dipole moment (field-independent basis, Debye):
    X=              0.0858    Y=             -0.0001    Z=              0.0671  Tot=              0.1089
 Quadrupole moment (field-independent basis, Debye-Ang):
   XX=             -8.5456   YY=             -8.2850   ZZ=             -8.3731
   XY=             -0.0010   XZ=             -0.0471   YZ=             -0.0006

 Normal termination of Gaussian 16 at Fri Sep 22 17:18:10 2023.
