 Gaussian 16, Revision A.03,
 Gaussian 16:  ES64L-G16RevA.03 25-Dec-2016

 ----------
 # hf/3-21g
 ----------

 ------------------------
 tmpdir/M2_conf_143_2.gjf
 ------------------------
 Symbolic Z-matrix:
 Charge =  0 Multiplicity = 1

                         Standard orientation:
 ---------------------------------------------------------------------
 Center     Atomic      Atomic             Coordinates (Angstroms)
 Number     Number       Type             X           Y           Z
 ---------------------------------------------------------------------
      1          6           0        0.032270    0.000013    0.017586
      2          1           0        0.126464   -0.002017    0.968430
      3          1           0        0.424157   -0.890643   -0.435576
      4          1           0        0.420096    0.894510   -0.431956
      5          1           0       -1.164340   -0.001928   -0.206416
 ---------------------------------------------------------------------

 SCF Done:  E(RHF) =  -39.9532884007     A.U. after    9 cycles

 The electronic state is 1-A.
 Alpha  occ. eigenvalues --  -11.14368  -0.95400  -0.58237  -0.55488  -0.50289
 Alpha virt. eigenvalues --    0.28584   0.32677   0.35680   0.38358   0.86582
 Alpha virt. eigenvalues --    0.92205   0.97592   1.25476   1.34439   1.37152
 Alpha virt. eigenvalues --    1.49030   1.96721

 Mulliken charges:
               1
     1  C   -0.782479
     2  H    0.233209
     3  H    0.201627
     4  H    0.201584
     5  H    0.146059
 Sum of Mulliken charges =   0.00000

 Dipole moment (field-independent basis, Debye):
    X=              0.0871    Y=             -0.0000    Z=              0.0740  Tot=              0.1143
 Quadrupole moment (field-independent basis, Debye-Ang):
   XX=             -8.5291   YY=             -8.2694   ZZ=             -8.3698
   XY=             -0.0010   XZ=             -0.0488   YZ=             -0.0006

 Normal termination of Gaussian 16 at Fri Sep 22 17:17:41 2023.
