 Gaussian 16, Revision A.03,
 Gaussian 16:  ES64L-G16RevA.03 25-Dec-2016

 ----------
 # hf/3-21g
 ----------

 ------------------------
 tmpdir/M2_conf_153_1.gjf
 ------------------------
 Symbolic Z-matrix:
 Charge =  0 Multiplicity = 1

                         Standard orientation:
 ---------------------------------------------------------------------
 Center     Atomic      Atomic             Coordinates (Angstroms)
 Number     Number       Type             X           Y           Z
 ---------------------------------------------------------------------
      1          6           0       -0.031403   -0.001697    0.000056
      2          1           0       -0.365688    1.026260   -0.018212
      3          1           0       -0.314920   -0.509872    0.902031
      4          1           0       -0.316383   -0.542326   -0.882617
      5          1           0        1.185406    0.036123   -0.001541
 ---------------------------------------------------------------------

 SCF Done:  E(RHF) =  -39.9669756501     A.U. after    9 cycles

 The electronic state is 1-A.
 Alpha  occ. eigenvalues --  -11.15813  -0.93693  -0.55647  -0.55478  -0.50265
 Alpha virt. eigenvalues --    0.28291   0.32179   0.35535   0.35687   0.91895
 Alpha virt. eigenvalues --    0.92253   0.97668   1.25031   1.32138   1.36492
 Alpha virt. eigenvalues --    1.36924   1.94559

 Mulliken charges:
               1
     1  C   -0.769621
     2  H    0.204508
     3  H    0.206750
     4  H    0.206694
     5  H    0.151669
 Sum of Mulliken charges =  -0.00000

 Dipole moment (field-independent basis, Debye):
    X=             -0.0685    Y=             -0.0067    Z=              0.0003  Tot=              0.0689
 Quadrupole moment (field-independent basis, Debye-Ang):
   XX=             -8.6637   YY=             -8.3919   ZZ=             -8.3982
   XY=             -0.0089   XZ=              0.0004   YZ=              0.0001

 Normal termination of Gaussian 16 at Fri Sep 22 17:17:56 2023.
