 Gaussian 16, Revision A.03,
 Gaussian 16:  ES64L-G16RevA.03 25-Dec-2016

 ----------
 # hf/3-21g
 ----------

 ------------------------
 tmpdir/M2_conf_184_1.gjf
 ------------------------
 Symbolic Z-matrix:
 Charge =  0 Multiplicity = 1

                         Standard orientation:
 ---------------------------------------------------------------------
 Center     Atomic      Atomic             Coordinates (Angstroms)
 Number     Number       Type             X           Y           Z
 ---------------------------------------------------------------------
      1          6           0       -0.032233   -0.000060    0.011656
      2          1           0       -0.166204   -0.002029    1.006171
      3          1           0       -0.404904   -0.892093   -0.454794
      4          1           0       -0.407100    0.892847   -0.451807
      5          1           0        1.171608    0.001636   -0.169506
 ---------------------------------------------------------------------

 SCF Done:  E(RHF) =  -39.9623048988     A.U. after    9 cycles

 The electronic state is 1-A.
 Alpha  occ. eigenvalues --  -11.14909  -0.94666  -0.57178  -0.55538  -0.50289
 Alpha virt. eigenvalues --    0.28504   0.32556   0.35683   0.37249   0.88733
 Alpha virt. eigenvalues --    0.92080   0.97552   1.25339   1.33972   1.37080
 Alpha virt. eigenvalues --    1.43345   1.95677

 Mulliken charges:
               1
     1  C   -0.778836
     2  H    0.223163
     3  H    0.203722
     4  H    0.203668
     5  H    0.148282
 Sum of Mulliken charges =  -0.00000

 Dipole moment (field-independent basis, Debye):
    X=             -0.0822    Y=             -0.0003    Z=              0.0497  Tot=              0.0961
 Quadrupole moment (field-independent basis, Debye-Ang):
   XX=             -8.5819   YY=             -8.3203   ZZ=             -8.3794
   XY=             -0.0005   XZ=              0.0426   YZ=             -0.0001

 Normal termination of Gaussian 16 at Fri Sep 22 17:18:48 2023.
