 Gaussian 16, Revision A.03,
 Gaussian 16:  ES64L-G16RevA.03 25-Dec-2016

 ----------
 # hf/3-21g
 ----------

 ------------------------
 tmpdir/M2_conf_287_3.gjf
 ------------------------
 Symbolic Z-matrix:
 Charge =  0 Multiplicity = 1

                         Standard orientation:
 ---------------------------------------------------------------------
 Center     Atomic      Atomic             Coordinates (Angstroms)
 Number     Number       Type             X           Y           Z
 ---------------------------------------------------------------------
      1          6           0       -2.511291    0.000007    0.000008
      2         17           0        1.382509   -0.000007   -0.000002
      3          1           0       -2.811660   -0.278197    0.992265
      4          1           0       -2.811348    0.998714   -0.255263
      5          1           0       -2.811895   -0.720439   -0.737023
 ---------------------------------------------------------------------

 SCF Done:  E(RHF) =  -496.493537322     A.U. after   10 cycles

 The electronic state is 1-A.
 Alpha  occ. eigenvalues -- -103.98432 -11.38983 -10.37214  -7.83533  -7.83356
 Alpha  occ. eigenvalues --   -7.83356  -1.07138  -0.92436  -0.72381  -0.72376
 Alpha  occ. eigenvalues --   -0.34388  -0.34388  -0.30599
 Alpha virt. eigenvalues --   -0.11837   0.19486   0.24076   0.24080   0.74956
 Alpha virt. eigenvalues --    0.78340   0.78353   0.83549   0.90286   0.90286
 Alpha virt. eigenvalues --    0.94909   1.09065   1.20879   1.20888   1.61396

 Mulliken charges:
               1
     1  C   -0.336258
     2  Cl  -0.609394
     3  H    0.315220
     4  H    0.315229
     5  H    0.315203
 Sum of Mulliken charges =   0.00000

 Dipole moment (field-independent basis, Debye):
    X=            -11.7858    Y=              0.0001    Z=              0.0000  Tot=             11.7858
 Quadrupole moment (field-independent basis, Debye-Ang):
   XX=             -4.0289   YY=            -20.3779   ZZ=            -20.3795
   XY=              0.0002   XZ=              0.0000   YZ=             -0.0001

 Normal termination of Gaussian 16 at Fri Sep 22 17:21:29 2023.
