 Gaussian 16, Revision A.03,
 Gaussian 16:  ES64L-G16RevA.03 25-Dec-2016

 ----------
 # hf/3-21g
 ----------

 ------------------------
 tmpdir/M2_conf_245_0.gjf
 ------------------------
 Symbolic Z-matrix:
 Charge =  0 Multiplicity = 1

                         Standard orientation:
 ---------------------------------------------------------------------
 Center     Atomic      Atomic             Coordinates (Angstroms)
 Number     Number       Type             X           Y           Z
 ---------------------------------------------------------------------
      1          6           0       -0.032254    0.000055    0.012936
      2          1           0       -0.156889   -0.001350    0.998284
      3          1           0       -0.407367    0.894506   -0.447360
      4          1           0       -0.412242   -0.890869   -0.450170
      5          1           0        1.170022   -0.002617   -0.178369
 ---------------------------------------------------------------------

 SCF Done:  E(RHF) =  -39.9608327536     A.U. after    9 cycles

 The electronic state is 1-A.
 Alpha  occ. eigenvalues --  -11.14794  -0.94812  -0.57400  -0.55527  -0.50289
 Alpha virt. eigenvalues --    0.28523   0.32584   0.35681   0.37485   0.88263
 Alpha virt. eigenvalues --    0.92117   0.97557   1.25370   1.34075   1.37092
 Alpha virt. eigenvalues --    1.44501   1.95867

 Mulliken charges:
               1
     1  C   -0.779723
     2  H    0.225425
     3  H    0.203241
     4  H    0.203235
     5  H    0.147822
 Sum of Mulliken charges =  -0.00000

 Dipole moment (field-independent basis, Debye):
    X=             -0.0834    Y=              0.0002    Z=              0.0555  Tot=              0.1002
 Quadrupole moment (field-independent basis, Debye-Ang):
   XX=             -8.5710   YY=             -8.3090   ZZ=             -8.3782
   XY=              0.0011   XZ=              0.0436   YZ=             -0.0004

 Normal termination of Gaussian 16 at Fri Sep 22 17:20:21 2023.
