 Gaussian 16, Revision A.03,
 Gaussian 16:  ES64L-G16RevA.03 25-Dec-2016

 ----------
 # hf/3-21g
 ----------

 ------------------------
 tmpdir/M2_conf_288_8.gjf
 ------------------------
 Symbolic Z-matrix:
 Charge =  0 Multiplicity = 1

                         Standard orientation:
 ---------------------------------------------------------------------
 Center     Atomic      Atomic             Coordinates (Angstroms)
 Number     Number       Type             X           Y           Z
 ---------------------------------------------------------------------
      1          1           0        0.322341   -0.000009    0.504898
      2          6           0        1.226565    0.000023   -0.073891
      3         17           0       -0.664313   -0.000009   -0.011721
      4          1           0        1.805621    0.892488    0.068860
      5          1           0        1.805973   -0.892462    0.068848
 ---------------------------------------------------------------------

 SCF Done:  E(RHF) =  -496.352995181     A.U. after   13 cycles

 The electronic state is 1-A.
 Alpha  occ. eigenvalues -- -104.15921 -11.18430 -10.56421  -8.02903  -8.02109
 Alpha  occ. eigenvalues --   -8.02068  -1.29969  -0.90310  -0.70090  -0.60773
 Alpha  occ. eigenvalues --   -0.55092  -0.49986  -0.32115
 Alpha virt. eigenvalues --    0.10270   0.33252   0.34490   0.39503   0.65027
 Alpha virt. eigenvalues --    0.72174   0.74529   0.78218   0.94204   0.99683
 Alpha virt. eigenvalues --    1.06286   1.25105   1.34854   1.38414   1.83845

 Mulliken charges:
               1
     1  H    0.215707
     2  C   -0.844236
     3  Cl   0.092266
     4  H    0.268146
     5  H    0.268116
 Sum of Mulliken charges =   0.00000

 Dipole moment (field-independent basis, Debye):
    X=              0.1646    Y=             -0.0000    Z=              1.2824  Tot=              1.2929
 Quadrupole moment (field-independent basis, Debye-Ang):
   XX=            -19.3359   YY=            -19.6180   ZZ=            -22.3800
   XY=             -0.0003   XZ=              0.9689   YZ=              0.0001

 Normal termination of Gaussian 16 at Fri Sep 22 17:21:31 2023.
