 Gaussian 16, Revision A.03,
 Gaussian 16:  ES64L-G16RevA.03 25-Dec-2016

 ----------
 # hf/3-21g
 ----------

 ------------------------
 tmpdir/M2_conf_176_9.gjf
 ------------------------
 Symbolic Z-matrix:
 Charge =  0 Multiplicity = 1

                         Standard orientation:
 ---------------------------------------------------------------------
 Center     Atomic      Atomic             Coordinates (Angstroms)
 Number     Number       Type             X           Y           Z
 ---------------------------------------------------------------------
      1          1           0        0.824818   -0.001103    0.980120
      2          6           0        1.209424    0.000017   -0.022224
      3         17           0       -0.682478    0.000025   -0.020311
      4          1           0        1.760349   -0.892250   -0.251435
      5          1           0        1.760411    0.892829   -0.250049
 ---------------------------------------------------------------------

 SCF Done:  E(RHF) =  -496.621419027     A.U. after   11 cycles

 The electronic state is 1-A.
 Alpha  occ. eigenvalues -- -104.09654 -11.24389 -10.49178  -7.95537  -7.95117
 Alpha  occ. eigenvalues --   -7.95090  -1.13515  -0.92826  -0.65134  -0.62958
 Alpha  occ. eigenvalues --   -0.50433  -0.44928  -0.41427
 Alpha virt. eigenvalues --    0.13601   0.28389   0.31710   0.31815   0.74188
 Alpha virt. eigenvalues --    0.78567   0.80440   0.84568   0.94178   0.97480
 Alpha virt. eigenvalues --    1.02607   1.27048   1.31391   1.31450   1.84340

 Mulliken charges:
               1
     1  H    0.291679
     2  C   -0.712662
     3  Cl  -0.113549
     4  H    0.267283
     5  H    0.267249
 Sum of Mulliken charges =  -0.00000

 Dipole moment (field-independent basis, Debye):
    X=              2.5825    Y=             -0.0005    Z=              0.4009  Tot=              2.6134
 Quadrupole moment (field-independent basis, Debye-Ang):
   XX=            -18.5388   YY=            -20.1527   ZZ=            -20.8900
   XY=              0.0007   XZ=             -0.7271   YZ=             -0.0000

 Normal termination of Gaussian 16 at Fri Sep 22 17:18:32 2023.
