 Gaussian 16, Revision A.03,
 Gaussian 16:  ES64L-G16RevA.03 25-Dec-2016

 ----------
 # hf/3-21g
 ----------

 -----------------------
 tmpdir/M2_conf_28_7.gjf
 -----------------------
 Symbolic Z-matrix:
 Charge =  0 Multiplicity = 1

                         Standard orientation:
 ---------------------------------------------------------------------
 Center     Atomic      Atomic             Coordinates (Angstroms)
 Number     Number       Type             X           Y           Z
 ---------------------------------------------------------------------
      1          1           0        0.429068   -0.224885    0.957018
      2          6           0        0.022449    0.017136   -0.006675
      3          1           0        0.639891   -0.473967   -0.734829
      4          1           0       -0.114112    1.073244   -0.141442
      5          1           0       -1.089542   -0.477210   -0.040699
 ---------------------------------------------------------------------

 SCF Done:  E(RHF) =  -39.9662066653     A.U. after    9 cycles

 The electronic state is 1-A.
 Alpha  occ. eigenvalues --  -11.15720  -0.93804  -0.56528  -0.54437  -0.50516
 Alpha virt. eigenvalues --    0.28270   0.32329   0.35227   0.36040   0.90955
 Alpha virt. eigenvalues --    0.92818   0.97990   1.24907   1.32713   1.35849
 Alpha virt. eigenvalues --    1.37947   1.94469

 Mulliken charges:
               1
     1  H    0.205033
     2  C   -0.771608
     3  H    0.206217
     4  H    0.207404
     5  H    0.152955
 Sum of Mulliken charges =   0.00000

 Dipole moment (field-independent basis, Debye):
    X=              0.0894    Y=              0.0137    Z=              0.0357  Tot=              0.0972
 Quadrupole moment (field-independent basis, Debye-Ang):
   XX=             -8.4815   YY=             -8.3614   ZZ=             -8.5908
   XY=             -0.1775   XZ=             -0.0222   YZ=             -0.0069

 Normal termination of Gaussian 16 at Fri Sep 22 17:14:49 2023.
