 Gaussian 16, Revision A.03,
 Gaussian 16:  ES64L-G16RevA.03 25-Dec-2016

 ----------
 # hf/3-21g
 ----------

 -----------------------
 tmpdir/M2_conf_11_0.gjf
 -----------------------
 Symbolic Z-matrix:
 Charge =  0 Multiplicity = 1

                         Standard orientation:
 ---------------------------------------------------------------------
 Center     Atomic      Atomic             Coordinates (Angstroms)
 Number     Number       Type             X           Y           Z
 ---------------------------------------------------------------------
      1          6           0       -0.030876   -0.004465   -0.000055
      2          1           0       -0.428974    1.011180   -0.006838
      3          1           0       -0.281042   -0.549760   -0.890389
      4          1           0       -0.286331   -0.539533    0.894958
      5          1           0        1.181603    0.104902    0.002602
 ---------------------------------------------------------------------

 SCF Done:  E(RHF) =  -39.9668976160     A.U. after    9 cycles

 The electronic state is 1-A.
 Alpha  occ. eigenvalues --  -11.15930  -0.93586  -0.55664  -0.55262  -0.50258
 Alpha virt. eigenvalues --    0.28252   0.32105   0.35338   0.35686   0.91885
 Alpha virt. eigenvalues --    0.92671   0.97722   1.24976   1.31659   1.35981
 Alpha virt. eigenvalues --    1.36896   1.94440

 Mulliken charges:
               1
     1  C   -0.768146
     2  H    0.201963
     3  H    0.207053
     4  H    0.207049
     5  H    0.152081
 Sum of Mulliken charges =  -0.00000

 Dipole moment (field-independent basis, Debye):
    X=             -0.0647    Y=             -0.0164    Z=             -0.0001  Tot=              0.0668
 Quadrupole moment (field-independent basis, Debye-Ang):
   XX=             -8.6703   YY=             -8.3978   ZZ=             -8.4071
   XY=             -0.0276   XZ=             -0.0012   YZ=              0.0002

 Normal termination of Gaussian 16 at Fri Sep 22 17:14:23 2023.
