 Gaussian 16, Revision A.03,
 Gaussian 16:  ES64L-G16RevA.03 25-Dec-2016

 ----------
 # hf/3-21g
 ----------

 ------------------------
 tmpdir/M2_conf_272_7.gjf
 ------------------------
 Symbolic Z-matrix:
 Charge =  0 Multiplicity = 1

                         Standard orientation:
 ---------------------------------------------------------------------
 Center     Atomic      Atomic             Coordinates (Angstroms)
 Number     Number       Type             X           Y           Z
 ---------------------------------------------------------------------
      1          1           0       -1.047687    0.076234   -0.328496
      2          6           0       -0.023681   -0.028954   -0.023595
      3          1           0        0.767399   -0.286628   -0.702130
      4          1           0        0.089176   -0.687345    0.816618
      5          1           0        0.333196    1.071466    0.355580
 ---------------------------------------------------------------------

 SCF Done:  E(RHF) =  -39.9621499145     A.U. after    9 cycles

 The electronic state is 1-A.
 Alpha  occ. eigenvalues --  -11.15756  -0.93853  -0.57683  -0.54160  -0.49531
 Alpha virt. eigenvalues --    0.28317   0.31657   0.35020   0.36465   0.90534
 Alpha virt. eigenvalues --    0.94633   0.97322   1.25314   1.31557   1.35689
 Alpha virt. eigenvalues --    1.39115   1.94569

 Mulliken charges:
               1
     1  H    0.211540
     2  C   -0.778595
     3  H    0.211627
     4  H    0.206147
     5  H    0.149280
 Sum of Mulliken charges =  -0.00000

 Dipole moment (field-independent basis, Debye):
    X=              0.0371    Y=             -0.0657    Z=              0.0201  Tot=              0.0781
 Quadrupole moment (field-independent basis, Debye-Ang):
   XX=             -8.0630   YY=             -8.6481   ZZ=             -8.7519
   XY=             -0.1337   XZ=             -0.0344   YZ=             -0.1377

 Normal termination of Gaussian 16 at Fri Sep 22 17:21:02 2023.
