 Gaussian 16, Revision A.03,
 Gaussian 16:  ES64L-G16RevA.03 25-Dec-2016

 ----------
 # hf/3-21g
 ----------

 ------------------------
 tmpdir/M2_conf_177_8.gjf
 ------------------------
 Symbolic Z-matrix:
 Charge =  0 Multiplicity = 1

                         Standard orientation:
 ---------------------------------------------------------------------
 Center     Atomic      Atomic             Coordinates (Angstroms)
 Number     Number       Type             X           Y           Z
 ---------------------------------------------------------------------
      1          1           0       -1.084872   -0.001143    1.056444
      2          6           0       -1.205032   -0.000004   -0.010410
      3         17           0        0.686862    0.000023   -0.014903
      4          1           0       -1.680669   -0.892085   -0.371159
      5          1           0       -1.680927    0.892864   -0.369476
 ---------------------------------------------------------------------

 SCF Done:  E(RHF) =  -496.666509728     A.U. after   11 cycles

 The electronic state is 1-A.
 Alpha  occ. eigenvalues -- -104.09030 -11.24876 -10.48443  -7.94812  -7.94405
 Alpha  occ. eigenvalues --   -7.94397  -1.11932  -0.93174  -0.64028  -0.63134
 Alpha  occ. eigenvalues --   -0.50693  -0.44173  -0.42990
 Alpha virt. eigenvalues --    0.15357   0.27565   0.31450   0.31553   0.74062
 Alpha virt. eigenvalues --    0.79452   0.80904   0.85342   0.92847   0.96226
 Alpha virt. eigenvalues --    1.01298   1.29602   1.31181   1.32175   1.88745

 Mulliken charges:
               1
     1  H    0.283962
     2  C   -0.706766
     3  Cl  -0.109372
     4  H    0.266111
     5  H    0.266065
 Sum of Mulliken charges =  -0.00000

 Dipole moment (field-independent basis, Debye):
    X=             -2.7870    Y=             -0.0004    Z=              0.2344  Tot=              2.7968
 Quadrupole moment (field-independent basis, Debye-Ang):
   XX=            -18.5208   YY=            -20.1803   ZZ=            -20.4528
   XY=             -0.0007   XZ=              0.5541   YZ=              0.0000

 Normal termination of Gaussian 16 at Fri Sep 22 17:18:33 2023.
