 Gaussian 16, Revision A.03,
 Gaussian 16:  ES64L-G16RevA.03 25-Dec-2016

 ----------
 # hf/3-21g
 ----------

 -----------------------
 tmpdir/M2_conf_81_1.gjf
 -----------------------
 Symbolic Z-matrix:
 Charge =  0 Multiplicity = 1

                         Standard orientation:
 ---------------------------------------------------------------------
 Center     Atomic      Atomic             Coordinates (Angstroms)
 Number     Number       Type             X           Y           Z
 ---------------------------------------------------------------------
      1          6           0       -0.032241   -0.000060    0.016164
      2          1           0       -0.132735   -0.001328    0.978732
      3          1           0       -0.418575   -0.892443   -0.438348
      4          1           0       -0.420892    0.892499   -0.436490
      5          1           0        1.165650    0.001633   -0.200881
 ---------------------------------------------------------------------

 SCF Done:  E(RHF) =  -39.9561454507     A.U. after    9 cycles

 The electronic state is 1-A.
 Alpha  occ. eigenvalues --  -11.14504  -0.95202  -0.57968  -0.55497  -0.50290
 Alpha virt. eigenvalues --    0.28566   0.32652   0.35680   0.38076   0.87126
 Alpha virt. eigenvalues --    0.92170   0.97579   1.25444   1.34337   1.37134
 Alpha virt. eigenvalues --    1.47509   1.96414

 Mulliken charges:
               1
     1  C   -0.781702
     2  H    0.230761
     3  H    0.202182
     4  H    0.202128
     5  H    0.146632
 Sum of Mulliken charges =  -0.00000

 Dipole moment (field-independent basis, Debye):
    X=             -0.0859    Y=             -0.0003    Z=              0.0685  Tot=              0.1099
 Quadrupole moment (field-independent basis, Debye-Ang):
   XX=             -8.5423   YY=             -8.2830   ZZ=             -8.3726
   XY=             -0.0005   XZ=              0.0489   YZ=             -0.0001

 Normal termination of Gaussian 16 at Fri Sep 22 17:16:08 2023.
