 Gaussian 16, Revision A.03,
 Gaussian 16:  ES64L-G16RevA.03 25-Dec-2016

 ----------
 # hf/3-21g
 ----------

 ------------------------
 tmpdir/M2_conf_189_3.gjf
 ------------------------
 Symbolic Z-matrix:
 Charge =  0 Multiplicity = 1

                         Standard orientation:
 ---------------------------------------------------------------------
 Center     Atomic      Atomic             Coordinates (Angstroms)
 Number     Number       Type             X           Y           Z
 ---------------------------------------------------------------------
      1          6           0       -1.829395    0.000011    0.000009
      2         17           0        1.021505   -0.000009   -0.000002
      3          1           0       -2.129763   -0.278192    0.992267
      4          1           0       -2.129449    0.998720   -0.255261
      5          1           0       -2.130003   -0.720433   -0.737022
 ---------------------------------------------------------------------

 SCF Done:  E(RHF) =  -496.583230352     A.U. after   10 cycles

 The electronic state is 1-A.
 Alpha  occ. eigenvalues -- -104.04330 -11.33945 -10.42960  -7.89275  -7.89060
 Alpha  occ. eigenvalues --   -7.89060  -1.02752  -0.97217  -0.67530  -0.67526
 Alpha  occ. eigenvalues --   -0.39164  -0.39164  -0.37861
 Alpha virt. eigenvalues --   -0.03424   0.23162   0.27979   0.27983   0.72716
 Alpha virt. eigenvalues --    0.78967   0.78974   0.87648   0.91137   0.91143
 Alpha virt. eigenvalues --    0.97479   1.21372   1.25355   1.25364   1.72717

 Mulliken charges:
               1
     1  C   -0.375223
     2  Cl  -0.482756
     3  H    0.286001
     4  H    0.286005
     5  H    0.285973
 Sum of Mulliken charges =   0.00000

 Dipole moment (field-independent basis, Debye):
    X=             -7.0414    Y=              0.0001    Z=              0.0001  Tot=              7.0414
 Quadrupole moment (field-independent basis, Debye-Ang):
   XX=            -11.7994   YY=            -20.4209   ZZ=            -20.4224
   XY=              0.0003   XZ=             -0.0000   YZ=             -0.0001

 Normal termination of Gaussian 16 at Fri Sep 22 17:18:56 2023.
