 Gaussian 16, Revision A.03,
 Gaussian 16:  ES64L-G16RevA.03 25-Dec-2016

 ----------
 # hf/3-21g
 ----------

 ------------------------
 tmpdir/M2_conf_215_7.gjf
 ------------------------
 Symbolic Z-matrix:
 Charge =  0 Multiplicity = 1

                         Standard orientation:
 ---------------------------------------------------------------------
 Center     Atomic      Atomic             Coordinates (Angstroms)
 Number     Number       Type             X           Y           Z
 ---------------------------------------------------------------------
      1          1           0        0.491591   -0.138424    0.932965
      2          6           0        0.011526    0.024421   -0.013415
      3          1           0        0.767989   -0.302370   -0.701599
      4          1           0       -0.380981    1.018876   -0.109182
      5          1           0       -0.947754   -0.724607   -0.041693
 ---------------------------------------------------------------------

 SCF Done:  E(RHF) =  -39.9636432072     A.U. after    9 cycles

 The electronic state is 1-A.
 Alpha  occ. eigenvalues --  -11.15722  -0.93872  -0.57315  -0.53356  -0.50674
 Alpha virt. eigenvalues --    0.28196   0.32336   0.34823   0.36288   0.90380
 Alpha virt. eigenvalues --    0.93568   0.98456   1.24766   1.32663   1.35058
 Alpha virt. eigenvalues --    1.38981   1.94106

 Mulliken charges:
               1
     1  H    0.204131
     2  C   -0.774517
     3  H    0.207041
     4  H    0.208710
     5  H    0.154635
 Sum of Mulliken charges =  -0.00000

 Dipole moment (field-independent basis, Debye):
    X=              0.1110    Y=              0.0255    Z=              0.0683  Tot=              0.1328
 Quadrupole moment (field-independent basis, Debye-Ang):
   XX=             -8.2487   YY=             -8.4186   ZZ=             -8.7698
   XY=             -0.2316   XZ=             -0.0245   YZ=             -0.0130

 Normal termination of Gaussian 16 at Fri Sep 22 17:19:35 2023.
