 Gaussian 16, Revision A.03,
 Gaussian 16:  ES64L-G16RevA.03 25-Dec-2016

 ----------
 # hf/3-21g
 ----------

 ------------------------
 tmpdir/M2_conf_242_7.gjf
 ------------------------
 Symbolic Z-matrix:
 Charge =  0 Multiplicity = 1

                         Standard orientation:
 ---------------------------------------------------------------------
 Center     Atomic      Atomic             Coordinates (Angstroms)
 Number     Number       Type             X           Y           Z
 ---------------------------------------------------------------------
      1          1           0        0.470930   -0.166825    0.943122
      2          6           0        0.015765    0.022305   -0.010646
      3          1           0        0.729929   -0.360397   -0.715001
      4          1           0       -0.296684    1.043220   -0.121471
      5          1           0       -0.998763   -0.649828   -0.042777
 ---------------------------------------------------------------------

 SCF Done:  E(RHF) =  -39.9648964100     A.U. after    9 cycles

 The electronic state is 1-A.
 Alpha  occ. eigenvalues --  -11.15720  -0.93839  -0.56996  -0.53798  -0.50615
 Alpha virt. eigenvalues --    0.28230   0.32340   0.34986   0.36195   0.90584
 Alpha virt. eigenvalues --    0.93275   0.98247   1.24823   1.32724   1.35353
 Alpha virt. eigenvalues --    1.38546   1.94279

 Mulliken charges:
               1
     1  H    0.204488
     2  C   -0.773157
     3  H    0.206626
     4  H    0.208122
     5  H    0.153921
 Sum of Mulliken charges =  -0.00000

 Dipole moment (field-independent basis, Debye):
    X=              0.1013    Y=              0.0217    Z=              0.0547  Tot=              0.1172
 Quadrupole moment (field-independent basis, Debye-Ang):
   XX=             -8.3400   YY=             -8.3982   ZZ=             -8.6967
   XY=             -0.2200   XZ=             -0.0242   YZ=             -0.0112

 Normal termination of Gaussian 16 at Fri Sep 22 17:20:16 2023.
