 Gaussian 16, Revision A.03,
 Gaussian 16:  ES64L-G16RevA.03 25-Dec-2016

 ----------
 # hf/3-21g
 ----------

 ------------------------
 tmpdir/M2_conf_275_8.gjf
 ------------------------
 Symbolic Z-matrix:
 Charge =  0 Multiplicity = 1

                         Standard orientation:
 ---------------------------------------------------------------------
 Center     Atomic      Atomic             Coordinates (Angstroms)
 Number     Number       Type             X           Y           Z
 ---------------------------------------------------------------------
      1          1           0       -0.665254   -0.000134    0.890014
      2          6           0       -1.213322   -0.000015   -0.033154
      3         17           0        0.678538    0.000012   -0.021160
      4          1           0       -1.794809   -0.892465   -0.165757
      5          1           0       -1.795144    0.892485   -0.165618
 ---------------------------------------------------------------------

 SCF Done:  E(RHF) =  -496.573951727     A.U. after   12 cycles

 The electronic state is 1-A.
 Alpha  occ. eigenvalues -- -104.10452 -11.23581 -10.50157  -7.96510  -7.96066
 Alpha  occ. eigenvalues --   -7.96018  -1.15595  -0.92388  -0.66123  -0.62638
 Alpha  occ. eigenvalues --   -0.50904  -0.45833  -0.39515
 Alpha virt. eigenvalues --    0.12291   0.29512   0.32158   0.32189   0.74021
 Alpha virt. eigenvalues --    0.77824   0.80133   0.84507   0.93720   0.98114
 Alpha virt. eigenvalues --    1.03302   1.23682   1.31117   1.31801   1.81902

 Mulliken charges:
               1
     1  H    0.295098
     2  C   -0.725181
     3  Cl  -0.107929
     4  H    0.269026
     5  H    0.268986
 Sum of Mulliken charges =  -0.00000

 Dipole moment (field-independent basis, Debye):
    X=             -2.2880    Y=             -0.0002    Z=              0.5313  Tot=              2.3489
 Quadrupole moment (field-independent basis, Debye-Ang):
   XX=            -18.6610   YY=            -20.0999   ZZ=            -21.2486
   XY=             -0.0003   XZ=              0.6799   YZ=              0.0000

 Normal termination of Gaussian 16 at Fri Sep 22 17:21:07 2023.
