 Gaussian 16, Revision A.03,
 Gaussian 16:  ES64L-G16RevA.03 25-Dec-2016

 ----------
 # hf/3-21g
 ----------

 ----------------------
 tmpdir/M2_conf_7_4.gjf
 ----------------------
 Symbolic Z-matrix:
 Charge =  0 Multiplicity = 1

                         Standard orientation:
 ---------------------------------------------------------------------
 Center     Atomic      Atomic             Coordinates (Angstroms)
 Number     Number       Type             X           Y           Z
 ---------------------------------------------------------------------
      1          1           0        0.495304   -0.131263    0.931069
      2          6           0        0.010771    0.024686   -0.013968
      3          1           0        0.773566   -0.294766   -0.698598
      4          1           0       -0.394434    1.014307   -0.109165
      5          1           0       -0.939060   -0.736394   -0.039500
 ---------------------------------------------------------------------

 SCF Done:  E(RHF) =  -39.9633777338     A.U. after    9 cycles

 The electronic state is 1-A.
 Alpha  occ. eigenvalues --  -11.15722  -0.93880  -0.57371  -0.53275  -0.50686
 Alpha virt. eigenvalues --    0.28189   0.32333   0.34796   0.36302   0.90338
 Alpha virt. eigenvalues --    0.93633   0.98495   1.24755   1.32634   1.35022
 Alpha virt. eigenvalues --    1.39062   1.94069

 Mulliken charges:
               1
     1  H    0.204123
     2  C   -0.774798
     3  H    0.207131
     4  H    0.208776
     5  H    0.154769
 Sum of Mulliken charges =   0.00000

 Dipole moment (field-independent basis, Debye):
    X=              0.1131    Y=              0.0262    Z=              0.0709  Tot=              0.1360
 Quadrupole moment (field-independent basis, Debye-Ang):
   XX=             -8.2327   YY=             -8.4215   ZZ=             -8.7835
   XY=             -0.2329   XZ=             -0.0238   YZ=             -0.0130

 Normal termination of Gaussian 16 at Fri Sep 22 17:14:17 2023.
