 Gaussian 16, Revision A.03,
 Gaussian 16:  ES64L-G16RevA.03 25-Dec-2016

 ----------
 # hf/3-21g
 ----------

 ------------------------
 tmpdir/M2_conf_243_2.gjf
 ------------------------
 Symbolic Z-matrix:
 Charge =  0 Multiplicity = 1

                         Standard orientation:
 ---------------------------------------------------------------------
 Center     Atomic      Atomic             Coordinates (Angstroms)
 Number     Number       Type             X           Y           Z
 ---------------------------------------------------------------------
      1          6           0        0.032277    0.000013    0.015146
      2          1           0        0.141438   -0.002461    0.984717
      3          1           0        0.418135   -0.890419   -0.443594
      4          1           0        0.413988    0.894731   -0.439165
      5          1           0       -1.167222   -0.001930   -0.192835
 ---------------------------------------------------------------------

 SCF Done:  E(RHF) =  -39.9577723670     A.U. after    9 cycles

 The electronic state is 1-A.
 Alpha  occ. eigenvalues --  -11.14593  -0.95078  -0.57791  -0.55509  -0.50289
 Alpha virt. eigenvalues --    0.28554   0.32632   0.35682   0.37892   0.87476
 Alpha virt. eigenvalues --    0.92154   0.97569   1.25422   1.34262   1.37126
 Alpha virt. eigenvalues --    1.46551   1.96232

 Mulliken charges:
               1
     1  C   -0.781141
     2  H    0.229129
     3  H    0.202525
     4  H    0.202481
     5  H    0.147006
 Sum of Mulliken charges =   0.00000

 Dipole moment (field-independent basis, Debye):
    X=              0.0853    Y=             -0.0001    Z=              0.0644  Tot=              0.1068
 Quadrupole moment (field-independent basis, Debye-Ang):
   XX=             -8.5517   YY=             -8.2908   ZZ=             -8.3742
   XY=             -0.0011   XZ=             -0.0463   YZ=             -0.0006

 Normal termination of Gaussian 16 at Fri Sep 22 17:20:18 2023.
