 Gaussian 16, Revision A.03,
 Gaussian 16:  ES64L-G16RevA.03 25-Dec-2016

 ----------
 # hf/3-21g
 ----------

 ------------------------
 tmpdir/M2_conf_286_4.gjf
 ------------------------
 Symbolic Z-matrix:
 Charge =  0 Multiplicity = 1

                         Standard orientation:
 ---------------------------------------------------------------------
 Center     Atomic      Atomic             Coordinates (Angstroms)
 Number     Number       Type             X           Y           Z
 ---------------------------------------------------------------------
      1          1           0        0.440438   -0.207451    0.954308
      2          6           0        0.021004    0.018464   -0.007579
      3          1           0        0.662747   -0.450142   -0.729507
      4          1           0       -0.159606    1.068399   -0.140319
      5          1           0       -1.069604   -0.521590   -0.039009
 ---------------------------------------------------------------------

 SCF Done:  E(RHF) =  -39.9659752949     A.U. after    9 cycles

 The electronic state is 1-A.
 Alpha  occ. eigenvalues --  -11.15720  -0.93811  -0.56626  -0.54302  -0.50539
 Alpha virt. eigenvalues --    0.28262   0.32332   0.35178   0.36073   0.90858
 Alpha virt. eigenvalues --    0.92930   0.98039   1.24889   1.32717   1.35750
 Alpha virt. eigenvalues --    1.38067   1.94434

 Mulliken charges:
               1
     1  H    0.204966
     2  C   -0.771896
     3  H    0.206288
     4  H    0.207490
     5  H    0.153153
 Sum of Mulliken charges =   0.00000

 Dipole moment (field-independent basis, Debye):
    X=              0.0919    Y=              0.0155    Z=              0.0397  Tot=              0.1013
 Quadrupole moment (field-independent basis, Debye-Ang):
   XX=             -8.4516   YY=             -8.3684   ZZ=             -8.6137
   XY=             -0.1902   XZ=             -0.0217   YZ=             -0.0076

 Normal termination of Gaussian 16 at Fri Sep 22 17:21:28 2023.
