 Gaussian 16, Revision A.03,
 Gaussian 16:  ES64L-G16RevA.03 25-Dec-2016

 ----------
 # hf/3-21g
 ----------

 ------------------------
 tmpdir/M2_conf_207_1.gjf
 ------------------------
 Symbolic Z-matrix:
 Charge =  0 Multiplicity = 1

                         Standard orientation:
 ---------------------------------------------------------------------
 Center     Atomic      Atomic             Coordinates (Angstroms)
 Number     Number       Type             X           Y           Z
 ---------------------------------------------------------------------
      1          6           0       -0.024382   -0.018447    0.000059
      2          1           0       -0.800115    0.801014   -0.002645
      3          1           0       -0.056096   -0.611148    0.894420
      4          1           0       -0.055892   -0.617190   -0.890514
      5          1           0        1.058397    0.538008   -0.001614
 ---------------------------------------------------------------------

 SCF Done:  E(RHF) =  -39.9655082265     A.U. after    9 cycles

 The electronic state is 1-A.
 Alpha  occ. eigenvalues --  -11.16364  -0.93219  -0.55727  -0.54488  -0.50213
 Alpha virt. eigenvalues --    0.28071   0.31752   0.34691   0.35687   0.91793
 Alpha virt. eigenvalues --    0.94122   0.98098   1.24707   1.29419   1.34820
 Alpha virt. eigenvalues --    1.36808   1.94019

 Mulliken charges:
               1
     1  C   -0.762102
     2  H    0.191892
     3  H    0.208351
     4  H    0.208296
     5  H    0.153563
 Sum of Mulliken charges =   0.00000

 Dipole moment (field-independent basis, Debye):
    X=             -0.0327    Y=             -0.0566    Z=              0.0003  Tot=              0.0654
 Quadrupole moment (field-independent basis, Debye-Ang):
   XX=             -8.6370   YY=             -8.4723   ZZ=             -8.4434
   XY=             -0.1277   XZ=              0.0003   YZ=              0.0003

 Normal termination of Gaussian 16 at Fri Sep 22 17:19:23 2023.
