 Gaussian 16, Revision A.03,
 Gaussian 16:  ES64L-G16RevA.03 25-Dec-2016

 ----------
 # hf/3-21g
 ----------

 -----------------------
 tmpdir/M2_conf_96_2.gjf
 -----------------------
 Symbolic Z-matrix:
 Charge =  0 Multiplicity = 1

                         Standard orientation:
 ---------------------------------------------------------------------
 Center     Atomic      Atomic             Coordinates (Angstroms)
 Number     Number       Type             X           Y           Z
 ---------------------------------------------------------------------
      1          6           0        0.032129    0.000015    0.005871
      2          1           0        0.234335   -0.008014    1.028440
      3          1           0        0.379015   -0.887611   -0.488082
      4          1           0        0.374371    0.897486   -0.473750
      5          1           0       -1.180493   -0.001949   -0.101837
 ---------------------------------------------------------------------

 SCF Done:  E(RHF) =  -39.9659363881     A.U. after    9 cycles

 The electronic state is 1-A.
 Alpha  occ. eigenvalues --  -11.15361  -0.94146  -0.56316  -0.55592  -0.50282
 Alpha virt. eigenvalues --    0.28414   0.32404   0.35687   0.36359   0.90511
 Alpha virt. eigenvalues --    0.91989   0.97563   1.25203   1.33360   1.37011
 Alpha virt. eigenvalues --    1.39388   1.95060

 Mulliken charges:
               1
     1  C   -0.774713
     2  H    0.214148
     3  H    0.205296
     4  H    0.205249
     5  H    0.150021
 Sum of Mulliken charges =  -0.00000

 Dipole moment (field-independent basis, Debye):
    X=              0.0773    Y=             -0.0001    Z=              0.0244  Tot=              0.0810
 Quadrupole moment (field-independent basis, Debye-Ang):
   XX=             -8.6251   YY=             -8.3594   ZZ=             -8.3851
   XY=             -0.0011   XZ=             -0.0255   YZ=             -0.0005

 Normal termination of Gaussian 16 at Fri Sep 22 17:16:31 2023.
