 Gaussian 16, Revision A.03,
 Gaussian 16:  ES64L-G16RevA.03 25-Dec-2016

 ----------
 # hf/3-21g
 ----------

 ------------------------
 tmpdir/M2_conf_297_9.gjf
 ------------------------
 Symbolic Z-matrix:
 Charge =  0 Multiplicity = 1

                         Standard orientation:
 ---------------------------------------------------------------------
 Center     Atomic      Atomic             Coordinates (Angstroms)
 Number     Number       Type             X           Y           Z
 ---------------------------------------------------------------------
      1          1           0        1.230511   -0.006636    1.067153
      2          6           0        1.203504    0.000042   -0.006086
      3         17           0       -0.688391    0.000060   -0.010325
      4          1           0        1.625656   -0.889839   -0.432814
      5          1           0        1.625463    0.895211   -0.422293
 ---------------------------------------------------------------------

 SCF Done:  E(RHF) =  -496.680089147     A.U. after   11 cycles

 The electronic state is 1-A.
 Alpha  occ. eigenvalues -- -104.08870 -11.24962 -10.48266  -7.94639  -7.94234
 Alpha  occ. eigenvalues --   -7.94231  -1.11531  -0.93271  -0.63614  -0.63174
 Alpha  occ. eigenvalues --   -0.51008  -0.43955  -0.43389
 Alpha virt. eigenvalues --    0.16047   0.27397   0.31392   0.31473   0.73941
 Alpha virt. eigenvalues --    0.79880   0.81051   0.85631   0.92436   0.95410
 Alpha virt. eigenvalues --    1.00474   1.30420   1.31170   1.32355   1.90598

 Mulliken charges:
               1
     1  H    0.279314
     2  C   -0.704942
     3  Cl  -0.107585
     4  H    0.266620
     5  H    0.266593
 Sum of Mulliken charges =   0.00000

 Dipole moment (field-independent basis, Debye):
    X=              2.8358    Y=             -0.0010    Z=              0.1500  Tot=              2.8398
 Quadrupole moment (field-independent basis, Debye-Ang):
   XX=            -18.5433   YY=            -20.1832   ZZ=            -20.2959
   XY=              0.0020   XZ=             -0.3852   YZ=             -0.0001

 Normal termination of Gaussian 16 at Fri Sep 22 17:21:44 2023.
