 Gaussian 16, Revision A.03,
 Gaussian 16:  ES64L-G16RevA.03 25-Dec-2016

 ----------
 # hf/3-21g
 ----------

 -----------------------
 tmpdir/M2_conf_16_9.gjf
 -----------------------
 Symbolic Z-matrix:
 Charge =  0 Multiplicity = 1

                         Standard orientation:
 ---------------------------------------------------------------------
 Center     Atomic      Atomic             Coordinates (Angstroms)
 Number     Number       Type             X           Y           Z
 ---------------------------------------------------------------------
      1          1           0        1.410965   -0.053010    1.049918
      2          6           0        1.202491    0.000105   -0.001906
      3         17           0       -0.689410    0.000177   -0.003654
      4          1           0        1.547176   -0.866733   -0.532924
      5          1           0        1.546879    0.916103   -0.443438
 ---------------------------------------------------------------------

 SCF Done:  E(RHF) =  -496.688434960     A.U. after   11 cycles

 The electronic state is 1-A.
 Alpha  occ. eigenvalues -- -104.08782 -11.24998 -10.48172  -7.94547  -7.94143
 Alpha  occ. eigenvalues --   -7.94142  -1.11306  -0.93330  -0.63308  -0.63217
 Alpha  occ. eigenvalues --   -0.51283  -0.43786  -0.43655
 Alpha virt. eigenvalues --    0.16538   0.27335   0.31368   0.31403   0.73839
 Alpha virt. eigenvalues --    0.80404   0.80918   0.85544   0.93047   0.94281
 Alpha virt. eigenvalues --    0.99672   1.31112   1.31201   1.32265   1.91850

 Mulliken charges:
               1
     1  H    0.273103
     2  C   -0.702990
     3  Cl  -0.107027
     4  H    0.268469
     5  H    0.268445
 Sum of Mulliken charges =   0.00000

 Dipole moment (field-independent basis, Debye):
    X=              2.8631    Y=             -0.0025    Z=              0.0494  Tot=              2.8635
 Quadrupole moment (field-independent basis, Debye-Ang):
   XX=            -18.5664   YY=            -20.1822   ZZ=            -20.1925
   XY=              0.0064   XZ=             -0.1366   YZ=             -0.0002

 Normal termination of Gaussian 16 at Fri Sep 22 17:14:31 2023.
