 Gaussian 16, Revision A.03,
 Gaussian 16:  ES64L-G16RevA.03 25-Dec-2016

 ----------
 # hf/3-21g
 ----------

 -----------------------
 tmpdir/M2_conf_37_4.gjf
 -----------------------
 Symbolic Z-matrix:
 Charge =  0 Multiplicity = 1

                         Standard orientation:
 ---------------------------------------------------------------------
 Center     Atomic      Atomic             Coordinates (Angstroms)
 Number     Number       Type             X           Y           Z
 ---------------------------------------------------------------------
      1          1           0       -1.015305    0.235285   -0.340895
      2          6           0       -0.025018   -0.025753   -0.019371
      3          1           0        0.686077   -0.435701   -0.711405
      4          1           0       -0.028479   -0.659540    0.847177
      5          1           0        0.507812    1.014475    0.321350
 ---------------------------------------------------------------------

 SCF Done:  E(RHF) =  -39.9639434154     A.U. after    9 cycles

 The electronic state is 1-A.
 Alpha  occ. eigenvalues --  -11.15747  -0.93821  -0.57238  -0.54467  -0.49742
 Alpha virt. eigenvalues --    0.28327   0.31846   0.35157   0.36300   0.90802
 Alpha virt. eigenvalues --    0.93895   0.97369   1.25271   1.31790   1.35902
 Alpha virt. eigenvalues --    1.38605   1.94617

 Mulliken charges:
               1
     1  H    0.210034
     2  C   -0.775544
     3  H    0.209807
     4  H    0.206035
     5  H    0.149668
 Sum of Mulliken charges =  -0.00000

 Dipole moment (field-independent basis, Debye):
    X=              0.0136    Y=             -0.0679    Z=              0.0127  Tot=              0.0704
 Quadrupole moment (field-independent basis, Debye-Ang):
   XX=             -8.1952   YY=             -8.5946   ZZ=             -8.6657
   XY=             -0.1964   XZ=             -0.0521   YZ=             -0.1177

 Normal termination of Gaussian 16 at Fri Sep 22 17:15:02 2023.
