 Gaussian 16, Revision A.03,
 Gaussian 16:  ES64L-G16RevA.03 25-Dec-2016

 ----------
 # hf/3-21g
 ----------

 ------------------------
 tmpdir/M2_conf_296_6.gjf
 ------------------------
 Symbolic Z-matrix:
 Charge =  0 Multiplicity = 1

                         Standard orientation:
 ---------------------------------------------------------------------
 Center     Atomic      Atomic             Coordinates (Angstroms)
 Number     Number       Type             X           Y           Z
 ---------------------------------------------------------------------
      1          1           0       -1.491257   -0.228981    1.007877
      2          6           0       -1.202362    0.000070   -0.000221
      3         17           0        0.689540    0.000090   -0.000453
      4          1           0       -1.508138    0.984040   -0.301744
      5          1           0       -1.508619   -0.757016   -0.697096
 ---------------------------------------------------------------------

 SCF Done:  E(RHF) =  -496.689467404     A.U. after   11 cycles

 The electronic state is 1-A.
 Alpha  occ. eigenvalues -- -104.08772 -11.25001 -10.48162  -7.94536  -7.94132
 Alpha  occ. eigenvalues --   -7.94132  -1.11280  -0.93337  -0.63250  -0.63240
 Alpha  occ. eigenvalues --   -0.51323  -0.43733  -0.43720
 Alpha virt. eigenvalues --    0.16605   0.27332   0.31377   0.31380   0.73825
 Alpha virt. eigenvalues --    0.80648   0.80716   0.85498   0.93577   0.93747
 Alpha virt. eigenvalues --    0.99528   1.31220   1.31233   1.32199   1.92006

 Mulliken charges:
               1
     1  H    0.270315
     2  C   -0.702617
     3  Cl  -0.107057
     4  H    0.269691
     5  H    0.269668
 Sum of Mulliken charges =  -0.00000

 Dipole moment (field-independent basis, Debye):
    X=             -2.8663    Y=             -0.0013    Z=              0.0061  Tot=              2.8663
 Quadrupole moment (field-independent basis, Debye-Ang):
   XX=            -18.5701   YY=            -20.1800   ZZ=            -20.1810
   XY=             -0.0032   XZ=              0.0167   YZ=             -0.0002

 Normal termination of Gaussian 16 at Fri Sep 22 17:21:43 2023.
