 Gaussian 16, Revision A.03,
 Gaussian 16:  ES64L-G16RevA.03 25-Dec-2016

 ----------
 # hf/3-21g
 ----------

 ------------------------
 tmpdir/M2_conf_277_2.gjf
 ------------------------
 Symbolic Z-matrix:
 Charge =  0 Multiplicity = 1

                         Standard orientation:
 ---------------------------------------------------------------------
 Center     Atomic      Atomic             Coordinates (Angstroms)
 Number     Number       Type             X           Y           Z
 ---------------------------------------------------------------------
      1          6           0        0.007562   -0.029488   -0.000015
      2          1           0        1.131164    0.337119   -0.002461
      3          1           0       -0.246386   -0.568395    0.892895
      4          1           0       -0.251142   -0.567629   -0.892259
      5          1           0       -0.679006    0.975836    0.001918
 ---------------------------------------------------------------------

 SCF Done:  E(RHF) =  -39.9610965140     A.U. after    9 cycles

 The electronic state is 1-A.
 Alpha  occ. eigenvalues --  -11.16976  -0.92777  -0.55831  -0.53464  -0.50076
 Alpha virt. eigenvalues --    0.27663   0.31067   0.34039   0.35686   0.91692
 Alpha virt. eigenvalues --    0.95374   0.99423   1.23748   1.26544   1.34041
 Alpha virt. eigenvalues --    1.36666   1.93423

 Mulliken charges:
               1
     1  C   -0.751997
     2  H    0.176683
     3  H    0.209924
     4  H    0.209872
     5  H    0.155517
 Sum of Mulliken charges =  -0.00000

 Dipole moment (field-independent basis, Debye):
    X=             -0.0407    Y=             -0.0739    Z=              0.0002  Tot=              0.0844
 Quadrupole moment (field-independent basis, Debye-Ang):
   XX=             -8.5073   YY=             -8.6600   ZZ=             -8.4916
   XY=              0.1506   XZ=              0.0010   YZ=             -0.0007

 Normal termination of Gaussian 16 at Fri Sep 22 17:21:09 2023.
