 Gaussian 16, Revision A.03,
 Gaussian 16:  ES64L-G16RevA.03 25-Dec-2016

 ----------
 # hf/3-21g
 ----------

 ------------------------
 tmpdir/M2_conf_117_3.gjf
 ------------------------
 Symbolic Z-matrix:
 Charge =  0 Multiplicity = 1

                         Standard orientation:
 ---------------------------------------------------------------------
 Center     Atomic      Atomic             Coordinates (Angstroms)
 Number     Number       Type             X           Y           Z
 ---------------------------------------------------------------------
      1          6           0       -1.323383    0.000017    0.000010
      2         17           0        0.753617   -0.000013   -0.000003
      3          1           0       -1.623751   -0.278185    0.992268
      4          1           0       -1.623430    0.998729   -0.255258
      5          1           0       -1.623999   -0.720424   -0.737021
 ---------------------------------------------------------------------

 SCF Done:  E(RHF) =  -496.680436510     A.U. after   10 cycles

 The electronic state is 1-A.
 Alpha  occ. eigenvalues -- -104.08580 -11.26975 -10.47567  -7.93913  -7.93583
 Alpha  occ. eigenvalues --   -7.93583  -1.07404  -0.95084  -0.63303  -0.63298
 Alpha  occ. eigenvalues --   -0.48178  -0.43324  -0.43324
 Alpha virt. eigenvalues --    0.10796   0.26607   0.31086   0.31090   0.73502
 Alpha virt. eigenvalues --    0.79800   0.79805   0.85969   0.93658   0.93668
 Alpha virt. eigenvalues --    1.03012   1.30111   1.30284   1.30294   1.86413

 Mulliken charges:
               1
     1  C   -0.594561
     2  Cl  -0.215018
     3  H    0.269880
     4  H    0.269865
     5  H    0.269834
 Sum of Mulliken charges =  -0.00000

 Dipole moment (field-independent basis, Debye):
    X=             -3.5450    Y=              0.0001    Z=              0.0001  Tot=              3.5450
 Quadrupole moment (field-independent basis, Debye-Ang):
   XX=            -17.3587   YY=            -20.3117   ZZ=            -20.3131
   XY=              0.0006   XZ=             -0.0001   YZ=             -0.0001

 Normal termination of Gaussian 16 at Fri Sep 22 17:17:02 2023.
