 Gaussian 16, Revision A.03,
 Gaussian 16:  ES64L-G16RevA.03 25-Dec-2016

 ----------
 # hf/3-21g
 ----------

 ------------------------
 tmpdir/M2_conf_182_2.gjf
 ------------------------
 Symbolic Z-matrix:
 Charge =  0 Multiplicity = 1

                         Standard orientation:
 ---------------------------------------------------------------------
 Center     Atomic      Atomic             Coordinates (Angstroms)
 Number     Number       Type             X           Y           Z
 ---------------------------------------------------------------------
      1          6           0        0.032262    0.000013    0.019309
      2          1           0        0.117499   -0.001778    0.956238
      3          1           0        0.427728   -0.890763   -0.430497
      4          1           0        0.423718    0.894391   -0.427313
      5          1           0       -1.162515   -0.001927   -0.214278
 ---------------------------------------------------------------------

 SCF Done:  E(RHF) =  -39.9493185846     A.U. after    9 cycles

 The electronic state is 1-A.
 Alpha  occ. eigenvalues --  -11.14207  -0.95647  -0.58560  -0.55474  -0.50289
 Alpha virt. eigenvalues --    0.28604   0.32705   0.35679   0.38693   0.85943
 Alpha virt. eigenvalues --    0.92243   0.97611   1.25512   1.34555   1.37168
 Alpha virt. eigenvalues --    1.50901   1.97136

 Mulliken charges:
               1
     1  C   -0.783269
     2  H    0.236033
     3  H    0.200958
     4  H    0.200916
     5  H    0.145362
 Sum of Mulliken charges =  -0.00000

 Dipole moment (field-independent basis, Debye):
    X=              0.0884    Y=             -0.0000    Z=              0.0803  Tot=              0.1194
 Quadrupole moment (field-independent basis, Debye-Ang):
   XX=             -8.5126   YY=             -8.2535   ZZ=             -8.3663
   XY=             -0.0010   XZ=             -0.0500   YZ=             -0.0006

 Normal termination of Gaussian 16 at Fri Sep 22 17:18:41 2023.
