 Gaussian 16, Revision A.03,
 Gaussian 16:  ES64L-G16RevA.03 25-Dec-2016

 ----------
 # hf/3-21g
 ----------

 ------------------------
 tmpdir/M2_conf_267_8.gjf
 ------------------------
 Symbolic Z-matrix:
 Charge =  0 Multiplicity = 1

                         Standard orientation:
 ---------------------------------------------------------------------
 Center     Atomic      Atomic             Coordinates (Angstroms)
 Number     Number       Type             X           Y           Z
 ---------------------------------------------------------------------
      1          1           0        0.440203    0.000019    0.680696
      2          6           0        1.220955    0.000020   -0.056219
      3         17           0       -0.670541   -0.000010   -0.017407
      4          1           0        1.816455    0.892490   -0.023737
      5          1           0        1.816810   -0.892460   -0.023728
 ---------------------------------------------------------------------

 SCF Done:  E(RHF) =  -496.460961360     A.U. after   12 cycles

 The electronic state is 1-A.
 Alpha  occ. eigenvalues -- -104.13104 -11.20826 -10.53273  -7.99660  -7.99083
 Alpha  occ. eigenvalues --   -7.99014  -1.22341  -0.91132  -0.68277  -0.61510
 Alpha  occ. eigenvalues --   -0.53063  -0.48226  -0.35034
 Alpha virt. eigenvalues --    0.10551   0.32028   0.33336   0.35213   0.72706
 Alpha virt. eigenvalues --    0.76081   0.76934   0.80702   0.91356   0.99024
 Alpha virt. eigenvalues --    1.04842   1.20202   1.33186   1.33370   1.81429

 Mulliken charges:
               1
     1  H    0.276172
     2  C   -0.784592
     3  Cl  -0.033839
     4  H    0.271146
     5  H    0.271112
 Sum of Mulliken charges =   0.00000

 Dipole moment (field-independent basis, Debye):
    X=              1.2481    Y=              0.0001    Z=              0.8668  Tot=              1.5195
 Quadrupole moment (field-independent basis, Debye-Ang):
   XX=            -19.1113   YY=            -19.8712   ZZ=            -21.8863
   XY=             -0.0003   XZ=             -0.0511   YZ=              0.0000

 Normal termination of Gaussian 16 at Fri Sep 22 17:20:54 2023.
