 Gaussian 16, Revision A.03,
 Gaussian 16:  ES64L-G16RevA.03 25-Dec-2016

 ----------
 # hf/3-21g
 ----------

 ------------------------
 tmpdir/M2_conf_213_5.gjf
 ------------------------
 Symbolic Z-matrix:
 Charge =  0 Multiplicity = 1

                         Standard orientation:
 ---------------------------------------------------------------------
 Center     Atomic      Atomic             Coordinates (Angstroms)
 Number     Number       Type             X           Y           Z
 ---------------------------------------------------------------------
      1          1           0       -0.354525   -0.308079    0.972146
      2          6           0       -0.029884    0.005531   -0.001735
      3          1           0       -0.434879   -0.634968   -0.762233
      4          1           0       -0.210027    1.049025   -0.178593
      5          1           0        1.178734   -0.139166   -0.020912
 ---------------------------------------------------------------------

 SCF Done:  E(RHF) =  -39.9669732614     A.U. after    9 cycles

 The electronic state is 1-A.
 Alpha  occ. eigenvalues --  -11.15723  -0.93779  -0.55901  -0.55283  -0.50352
 Alpha virt. eigenvalues --    0.28308   0.32272   0.35551   0.35797   0.91586
 Alpha virt. eigenvalues --    0.92193   0.97725   1.25020   1.32554   1.36607
 Alpha virt. eigenvalues --    1.37216   1.94617

 Mulliken charges:
               1
     1  H    0.205993
     2  C   -0.770632
     3  H    0.206198
     4  H    0.206642
     5  H    0.151798
 Sum of Mulliken charges =  -0.00000

 Dipole moment (field-independent basis, Debye):
    X=             -0.0760    Y=              0.0023    Z=              0.0109  Tot=              0.0768
 Quadrupole moment (field-independent basis, Debye-Ang):
   XX=             -8.6288   YY=             -8.3568   ZZ=             -8.4501
   XY=              0.0567   XZ=              0.0107   YZ=             -0.0007

 Normal termination of Gaussian 16 at Fri Sep 22 17:19:32 2023.
