 Gaussian 16, Revision A.03,
 Gaussian 16:  ES64L-G16RevA.03 25-Dec-2016

 ----------
 # hf/3-21g
 ----------

 ------------------------
 tmpdir/M2_conf_280_4.gjf
 ------------------------
 Symbolic Z-matrix:
 Charge =  0 Multiplicity = 1

                         Standard orientation:
 ---------------------------------------------------------------------
 Center     Atomic      Atomic             Coordinates (Angstroms)
 Number     Number       Type             X           Y           Z
 ---------------------------------------------------------------------
      1          1           0       -0.914653    0.491048   -0.346194
      2          6           0       -0.029542   -0.019119   -0.016807
      3          1           0        0.522764   -0.619414   -0.714814
      4          1           0       -0.197999   -0.604143    0.867486
      5          1           0        0.767138    0.847224    0.294361
 ---------------------------------------------------------------------

 SCF Done:  E(RHF) =  -39.9647614509     A.U. after    9 cycles

 The electronic state is 1-A.
 Alpha  occ. eigenvalues --  -11.15743  -0.93807  -0.56984  -0.54646  -0.49847
 Alpha virt. eigenvalues --    0.28330   0.31934   0.35239   0.36204   0.90963
 Alpha virt. eigenvalues --    0.93519   0.97399   1.25243   1.31913   1.36042
 Alpha virt. eigenvalues --    1.38326   1.94638

 Mulliken charges:
               1
     1  H    0.209281
     2  C   -0.774185
     3  H    0.208965
     4  H    0.206035
     5  H    0.149903
 Sum of Mulliken charges =   0.00000

 Dipole moment (field-independent basis, Debye):
    X=             -0.0115    Y=             -0.0659    Z=              0.0092  Tot=              0.0675
 Quadrupole moment (field-independent basis, Debye-Ang):
   XX=             -8.3576   YY=             -8.4767   ZZ=             -8.6175
   XY=             -0.2504   XZ=             -0.0757   YZ=             -0.0911

 Normal termination of Gaussian 16 at Fri Sep 22 17:21:14 2023.
