 Gaussian 16, Revision A.03,
 Gaussian 16:  ES64L-G16RevA.03 25-Dec-2016

 ----------
 # hf/3-21g
 ----------

 -----------------------
 tmpdir/M2_conf_91_6.gjf
 -----------------------
 Symbolic Z-matrix:
 Charge =  0 Multiplicity = 1

                         Standard orientation:
 ---------------------------------------------------------------------
 Center     Atomic      Atomic             Coordinates (Angstroms)
 Number     Number       Type             X           Y           Z
 ---------------------------------------------------------------------
      1          1           0       -1.283350   -0.005425    1.065633
      2          6           0       -1.203105    0.000041   -0.004749
      3         17           0        0.688787    0.000032   -0.008467
      4          1           0       -1.603488    0.894993   -0.442204
      5          1           0       -1.603909   -0.890366   -0.451001
 ---------------------------------------------------------------------

 SCF Done:  E(RHF) =  -496.683436197     A.U. after   11 cycles

 The electronic state is 1-A.
 Alpha  occ. eigenvalues -- -104.08834 -11.24978 -10.48227  -7.94600  -7.94195
 Alpha  occ. eigenvalues --   -7.94193  -1.11439  -0.93294  -0.63502  -0.63185
 Alpha  occ. eigenvalues --   -0.51109  -0.43896  -0.43488
 Alpha virt. eigenvalues --    0.16235   0.27368   0.31381   0.31447   0.73903
 Alpha virt. eigenvalues --    0.80034   0.81055   0.85642   0.92480   0.95100
 Alpha virt. eigenvalues --    1.00197   1.30651   1.31169   1.32381   1.91093

 Mulliken charges:
               1
     1  H    0.277590
     2  C   -0.704306
     3  Cl  -0.107275
     4  H    0.267004
     5  H    0.266986
 Sum of Mulliken charges =  -0.00000

 Dipole moment (field-independent basis, Debye):
    X=             -2.8471    Y=             -0.0006    Z=              0.1203  Tot=              2.8496
 Quadrupole moment (field-independent basis, Debye-Ang):
   XX=            -18.5517   YY=            -20.1826   ZZ=            -20.2554
   XY=             -0.0011   XZ=              0.3157   YZ=             -0.0001

 Normal termination of Gaussian 16 at Fri Sep 22 17:16:23 2023.
