 Gaussian 16, Revision A.03,
 Gaussian 16:  ES64L-G16RevA.03 25-Dec-2016

 ----------
 # hf/3-21g
 ----------

 ------------------------
 tmpdir/M2_conf_294_3.gjf
 ------------------------
 Symbolic Z-matrix:
 Charge =  0 Multiplicity = 1

                         Standard orientation:
 ---------------------------------------------------------------------
 Center     Atomic      Atomic             Coordinates (Angstroms)
 Number     Number       Type             X           Y           Z
 ---------------------------------------------------------------------
      1          6           0       -2.538883    0.000006    0.000008
      2         17           0        1.397117   -0.000007   -0.000002
      3          1           0       -2.839252   -0.278197    0.992265
      4          1           0       -2.838941    0.998714   -0.255263
      5          1           0       -2.839488   -0.720440   -0.737023
 ---------------------------------------------------------------------

 SCF Done:  E(RHF) =  -496.491179619     A.U. after   10 cycles

 The electronic state is 1-A.
 Alpha  occ. eigenvalues -- -103.98249 -11.39092 -10.37035  -7.83355  -7.83179
 Alpha  occ. eigenvalues --   -7.83179  -1.07258  -0.92286  -0.72503  -0.72498
 Alpha  occ. eigenvalues --   -0.34243  -0.34243  -0.30404
 Alpha virt. eigenvalues --   -0.12045   0.19387   0.23970   0.23973   0.75201
 Alpha virt. eigenvalues --    0.78238   0.78252   0.83582   0.90390   0.90390
 Alpha virt. eigenvalues --    0.94621   1.08845   1.20767   1.20776   1.61221

 Mulliken charges:
               1
     1  C   -0.335938
     2  Cl  -0.611595
     3  H    0.315847
     4  H    0.315856
     5  H    0.315830
 Sum of Mulliken charges =  -0.00000

 Dipole moment (field-independent basis, Debye):
    X=            -11.9563    Y=              0.0001    Z=              0.0000  Tot=             11.9563
 Quadrupole moment (field-independent basis, Debye-Ang):
   XX=             -3.6930   YY=            -20.3768   ZZ=            -20.3784
   XY=              0.0002   XZ=              0.0000   YZ=             -0.0001

 Normal termination of Gaussian 16 at Fri Sep 22 17:21:40 2023.
