 Gaussian 16, Revision A.03,
 Gaussian 16:  ES64L-G16RevA.03 25-Dec-2016

 ----------
 # hf/3-21g
 ----------

 -----------------------
 tmpdir/M2_conf_81_7.gjf
 -----------------------
 Symbolic Z-matrix:
 Charge =  0 Multiplicity = 1

                         Standard orientation:
 ---------------------------------------------------------------------
 Center     Atomic      Atomic             Coordinates (Angstroms)
 Number     Number       Type             X           Y           Z
 ---------------------------------------------------------------------
      1          1           0       -0.892567    0.530221   -0.345599
      2          6           0       -0.030186   -0.017964   -0.016342
      3          1           0        0.489454   -0.645531   -0.715447
      4          1           0       -0.221488   -0.590156    0.871449
      5          1           0        0.805719    0.813248    0.287649
 ---------------------------------------------------------------------

 SCF Done:  E(RHF) =  -39.9648655782     A.U. after    9 cycles

 The electronic state is 1-A.
 Alpha  occ. eigenvalues --  -11.15742  -0.93806  -0.56945  -0.54674  -0.49862
 Alpha virt. eigenvalues --    0.28331   0.31945   0.35255   0.36187   0.90978
 Alpha virt. eigenvalues --    0.93478   0.97402   1.25239   1.31924   1.36074
 Alpha virt. eigenvalues --    1.38282   1.94641

 Mulliken charges:
               1
     1  H    0.209134
     2  C   -0.774021
     3  H    0.208847
     4  H    0.206100
     5  H    0.149939
 Sum of Mulliken charges =  -0.00000

 Dipole moment (field-independent basis, Debye):
    X=             -0.0154    Y=             -0.0649    Z=              0.0090  Tot=              0.0673
 Quadrupole moment (field-independent basis, Debye-Ang):
   XX=             -8.3859   YY=             -8.4549   ZZ=             -8.6103
   XY=             -0.2524   XZ=             -0.0782   YZ=             -0.0857

 Normal termination of Gaussian 16 at Fri Sep 22 17:16:08 2023.
