 Gaussian 16, Revision A.03,
 Gaussian 16:  ES64L-G16RevA.03 25-Dec-2016

 ----------
 # hf/3-21g
 ----------

 ------------------------
 tmpdir/M2_conf_125_8.gjf
 ------------------------
 Symbolic Z-matrix:
 Charge =  0 Multiplicity = 1

                         Standard orientation:
 ---------------------------------------------------------------------
 Center     Atomic      Atomic             Coordinates (Angstroms)
 Number     Number       Type             X           Y           Z
 ---------------------------------------------------------------------
      1          1           0       -1.344967   -0.009482    1.060802
      2          6           0       -1.202751    0.000017   -0.003294
      3         17           0        0.689146    0.000061   -0.006197
      4          1           0       -1.576909   -0.888266   -0.475669
      5          1           0       -1.577101    0.896616   -0.460013
 ---------------------------------------------------------------------

 SCF Done:  E(RHF) =  -496.686378057     A.U. after   11 cycles

 The electronic state is 1-A.
 Alpha  occ. eigenvalues -- -104.08803 -11.24991 -10.48194  -7.94567  -7.94163
 Alpha  occ. eigenvalues --   -7.94162  -1.11360  -0.93315  -0.63396  -0.63198
 Alpha  occ. eigenvalues --   -0.51207  -0.43838  -0.43580
 Alpha virt. eigenvalues --    0.16410   0.27345   0.31372   0.31424   0.73866
 Alpha virt. eigenvalues --    0.80211   0.81019   0.85606   0.92695   0.94704
 Alpha virt. eigenvalues --    0.99911   1.30910   1.31183   1.32330   1.91536

 Mulliken charges:
               1
     1  H    0.275428
     2  C   -0.703592
     3  Cl  -0.107088
     4  H    0.267650
     5  H    0.267602
 Sum of Mulliken charges =   0.00000

 Dipole moment (field-independent basis, Debye):
    X=             -2.8566    Y=             -0.0009    Z=              0.0856  Tot=              2.8579
 Quadrupole moment (field-independent basis, Debye-Ang):
   XX=            -18.5602   YY=            -20.1834   ZZ=            -20.2177
   XY=             -0.0021   XZ=              0.2316   YZ=              0.0000

 Normal termination of Gaussian 16 at Fri Sep 22 17:17:14 2023.
