 Gaussian 16, Revision A.03,
 Gaussian 16:  ES64L-G16RevA.03 25-Dec-2016

 ----------
 # hf/3-21g
 ----------

 ------------------------
 tmpdir/M2_conf_156_8.gjf
 ------------------------
 Symbolic Z-matrix:
 Charge =  0 Multiplicity = 1

                         Standard orientation:
 ---------------------------------------------------------------------
 Center     Atomic      Atomic             Coordinates (Angstroms)
 Number     Number       Type             X           Y           Z
 ---------------------------------------------------------------------
      1          1           0       -1.323698   -0.007274    1.062980
      2          6           0       -1.202860    0.000013   -0.003773
      3         17           0        0.689034    0.000053   -0.006993
      4          1           0       -1.586260   -0.889310   -0.466685
      5          1           0       -1.586458    0.895601   -0.454766
 ---------------------------------------------------------------------

 SCF Done:  E(RHF) =  -496.685476597     A.U. after   11 cycles

 The electronic state is 1-A.
 Alpha  occ. eigenvalues -- -104.08812 -11.24987 -10.48203  -7.94577  -7.94173
 Alpha  occ. eigenvalues --   -7.94172  -1.11384  -0.93308  -0.63430  -0.63193
 Alpha  occ. eigenvalues --   -0.51176  -0.43857  -0.43551
 Alpha virt. eigenvalues --    0.16355   0.27351   0.31375   0.31432   0.73878
 Alpha virt. eigenvalues --    0.80149   0.81038   0.85623   0.92608   0.94838
 Alpha virt. eigenvalues --    1.00004   1.30830   1.31179   1.32345   1.91398

 Mulliken charges:
               1
     1  H    0.276166
     2  C   -0.703823
     3  Cl  -0.107134
     4  H    0.267419
     5  H    0.267372
 Sum of Mulliken charges =  -0.00000

 Dipole moment (field-independent basis, Debye):
    X=             -2.8537    Y=             -0.0008    Z=              0.0974  Tot=              2.8554
 Quadrupole moment (field-independent basis, Debye-Ang):
   XX=            -18.5575   YY=            -20.1836   ZZ=            -20.2290
   XY=             -0.0018   XZ=              0.2613   YZ=              0.0000

 Normal termination of Gaussian 16 at Fri Sep 22 17:18:01 2023.
