 Gaussian 16, Revision A.03,
 Gaussian 16:  ES64L-G16RevA.03 25-Dec-2016

 ----------
 # hf/3-21g
 ----------

 ------------------------
 tmpdir/M2_conf_159_4.gjf
 ------------------------
 Symbolic Z-matrix:
 Charge =  0 Multiplicity = 1

                         Standard orientation:
 ---------------------------------------------------------------------
 Center     Atomic      Atomic             Coordinates (Angstroms)
 Number     Number       Type             X           Y           Z
 ---------------------------------------------------------------------
      1          1           0       -0.763176    0.700542   -0.348690
      2          6           0       -0.032737   -0.011832   -0.015270
      3          1           0        0.334313   -0.737772   -0.715908
      4          1           0       -0.334979   -0.521170    0.880179
      5          1           0        0.960263    0.629389    0.276037
 ---------------------------------------------------------------------

 SCF Done:  E(RHF) =  -39.9651711335     A.U. after    9 cycles

 The electronic state is 1-A.
 Alpha  occ. eigenvalues --  -11.15740  -0.93801  -0.56838  -0.54751  -0.49903
 Alpha virt. eigenvalues --    0.28331   0.31979   0.35288   0.36148   0.91059
 Alpha virt. eigenvalues --    0.93314   0.97419   1.25225   1.31981   1.36127
 Alpha virt. eigenvalues --    1.38168   1.94648

 Mulliken charges:
               1
     1  H    0.208884
     2  C   -0.773512
     3  H    0.208538
     4  H    0.206046
     5  H    0.150044
 Sum of Mulliken charges =   0.00000

 Dipole moment (field-independent basis, Debye):
    X=             -0.0309    Y=             -0.0582    Z=              0.0073  Tot=              0.0663
 Quadrupole moment (field-independent basis, Debye-Ang):
   XX=             -8.4989   YY=             -8.3608   ZZ=             -8.5900
   XY=             -0.2345   XZ=             -0.0907   YZ=             -0.0646

 Normal termination of Gaussian 16 at Fri Sep 22 17:18:06 2023.
