 Gaussian 16, Revision A.03,
 Gaussian 16:  ES64L-G16RevA.03 25-Dec-2016

 ----------
 # hf/3-21g
 ----------

 ------------------------
 tmpdir/M2_conf_180_2.gjf
 ------------------------
 Symbolic Z-matrix:
 Charge =  0 Multiplicity = 1

                         Standard orientation:
 ---------------------------------------------------------------------
 Center     Atomic      Atomic             Coordinates (Angstroms)
 Number     Number       Type             X           Y           Z
 ---------------------------------------------------------------------
      1          6           0        0.030212   -0.007078   -0.000014
      2          1           0        0.493678    0.989475   -0.010051
      3          1           0        0.252017   -0.553865    0.896662
      4          1           0        0.246267   -0.569821   -0.888419
      5          1           0       -1.173235    0.176681    0.001893
 ---------------------------------------------------------------------

 SCF Done:  E(RHF) =  -39.9667334743     A.U. after    9 cycles

 The electronic state is 1-A.
 Alpha  occ. eigenvalues --  -11.16024  -0.93503  -0.55680  -0.55090  -0.50251
 Alpha virt. eigenvalues --    0.28218   0.32039   0.35184   0.35689   0.91860
 Alpha virt. eigenvalues --    0.93012   0.97777   1.24929   1.31218   1.35644
 Alpha virt. eigenvalues --    1.36885   1.94347

 Mulliken charges:
               1
     1  C   -0.766921
     2  H    0.199802
     3  H    0.207381
     4  H    0.207332
     5  H    0.152406
 Sum of Mulliken charges =  -0.00000

 Dipole moment (field-independent basis, Debye):
    X=              0.0605    Y=             -0.0253    Z=              0.0001  Tot=              0.0656
 Quadrupole moment (field-independent basis, Debye-Ang):
   XX=             -8.6726   YY=             -8.4043   ZZ=             -8.4151
   XY=              0.0465   XZ=              0.0012   YZ=              0.0002

 Normal termination of Gaussian 16 at Fri Sep 22 17:18:38 2023.
