 Gaussian 16, Revision A.03,
 Gaussian 16:  ES64L-G16RevA.03 25-Dec-2016

 ----------
 # hf/3-21g
 ----------

 ------------------------
 tmpdir/M2_conf_178_9.gjf
 ------------------------
 Symbolic Z-matrix:
 Charge =  0 Multiplicity = 1

                         Standard orientation:
 ---------------------------------------------------------------------
 Center     Atomic      Atomic             Coordinates (Angstroms)
 Number     Number       Type             X           Y           Z
 ---------------------------------------------------------------------
      1          1           0        0.885426   -0.001352    1.005029
      2          6           0        1.208199    0.000019   -0.018901
      3         17           0       -0.683707    0.000027   -0.019438
      4          1           0        1.744185   -0.892152   -0.281476
      5          1           0        1.744207    0.892928   -0.279698
 ---------------------------------------------------------------------

 SCF Done:  E(RHF) =  -496.634904984     A.U. after   11 cycles

 The electronic state is 1-A.
 Alpha  occ. eigenvalues -- -104.09454 -11.24565 -10.48937  -7.95299  -7.94884
 Alpha  occ. eigenvalues --   -7.94863  -1.13002  -0.92936  -0.64829  -0.63024
 Alpha  occ. eigenvalues --   -0.50413  -0.44692  -0.41931
 Alpha virt. eigenvalues --    0.14061   0.28112   0.31617   0.31733   0.74186
 Alpha virt. eigenvalues --    0.78798   0.80548   0.84701   0.93959   0.97214
 Alpha virt. eigenvalues --    1.02337   1.27860   1.31308   1.31650   1.85408

 Mulliken charges:
               1
     1  H    0.289939
     2  C   -0.710480
     3  Cl  -0.113008
     4  H    0.266791
     5  H    0.266758
 Sum of Mulliken charges =  -0.00000

 Dipole moment (field-independent basis, Debye):
    X=              2.6508    Y=             -0.0005    Z=              0.3591  Tot=              2.6750
 Quadrupole moment (field-independent basis, Debye-Ang):
   XX=            -18.5211   YY=            -20.1631   ZZ=            -20.7712
   XY=              0.0008   XZ=             -0.7071   YZ=             -0.0000

 Normal termination of Gaussian 16 at Fri Sep 22 17:18:34 2023.
