 Gaussian 16, Revision A.03,
 Gaussian 16:  ES64L-G16RevA.03 25-Dec-2016

 ----------
 # hf/3-21g
 ----------

 ------------------------
 tmpdir/M2_conf_184_5.gjf
 ------------------------
 Symbolic Z-matrix:
 Charge =  0 Multiplicity = 1

                         Standard orientation:
 ---------------------------------------------------------------------
 Center     Atomic      Atomic             Coordinates (Angstroms)
 Number     Number       Type             X           Y           Z
 ---------------------------------------------------------------------
      1          1           0       -0.355200   -0.307350    0.972052
      2          6           0       -0.029832    0.005661   -0.001779
      3          1           0       -0.437227   -0.633761   -0.761908
      4          1           0       -0.206927    1.049748   -0.178213
      5          1           0        1.178348   -0.142602   -0.021258
 ---------------------------------------------------------------------

 SCF Done:  E(RHF) =  -39.9669713356     A.U. after    9 cycles

 The electronic state is 1-A.
 Alpha  occ. eigenvalues --  -11.15723  -0.93779  -0.55907  -0.55275  -0.50354
 Alpha virt. eigenvalues --    0.28307   0.32272   0.35548   0.35800   0.91579
 Alpha virt. eigenvalues --    0.92199   0.97727   1.25019   1.32556   1.36599
 Alpha virt. eigenvalues --    1.37223   1.94616

 Mulliken charges:
               1
     1  H    0.205982
     2  C   -0.770633
     3  H    0.206194
     4  H    0.206648
     5  H    0.151809
 Sum of Mulliken charges =  -0.00000

 Dipole moment (field-independent basis, Debye):
    X=             -0.0761    Y=              0.0024    Z=              0.0112  Tot=              0.0769
 Quadrupole moment (field-independent basis, Debye-Ang):
   XX=             -8.6279   YY=             -8.3563   ZZ=             -8.4515
   XY=              0.0580   XZ=              0.0109   YZ=             -0.0007

 Normal termination of Gaussian 16 at Fri Sep 22 17:18:49 2023.
