 Gaussian 16, Revision A.03,
 Gaussian 16:  ES64L-G16RevA.03 25-Dec-2016

 ----------
 # hf/3-21g
 ----------

 ------------------------
 tmpdir/M2_conf_172_8.gjf
 ------------------------
 Symbolic Z-matrix:
 Charge =  0 Multiplicity = 1

                         Standard orientation:
 ---------------------------------------------------------------------
 Center     Atomic      Atomic             Coordinates (Angstroms)
 Number     Number       Type             X           Y           Z
 ---------------------------------------------------------------------
      1          1           0       -1.024990   -0.000825    1.045660
      2          6           0       -1.205850   -0.000006   -0.012596
      3         17           0        0.686050    0.000020   -0.016504
      4          1           0       -1.701248   -0.892215   -0.345346
      5          1           0       -1.701519    0.892735   -0.344174
 ---------------------------------------------------------------------

 SCF Done:  E(RHF) =  -496.658805034     A.U. after   11 cycles

 The electronic state is 1-A.
 Alpha  occ. eigenvalues -- -104.09127 -11.24814 -10.48554  -7.94921  -7.94512
 Alpha  occ. eigenvalues --   -7.94502  -1.12176  -0.93118  -0.64239  -0.63111
 Alpha  occ. eigenvalues --   -0.50573  -0.44296  -0.42750
 Alpha virt. eigenvalues --    0.15007   0.27682   0.31486   0.31596   0.74111
 Alpha virt. eigenvalues --    0.79268   0.80805   0.85146   0.93176   0.96539
 Alpha virt. eigenvalues --    1.01633   1.29178   1.31201   1.32048   1.87811

 Mulliken charges:
               1
     1  H    0.285790
     2  C   -0.707596
     3  Cl  -0.110452
     4  H    0.266152
     5  H    0.266106
 Sum of Mulliken charges =  -0.00000

 Dipole moment (field-independent basis, Debye):
    X=             -2.7568    Y=             -0.0003    Z=              0.2704  Tot=              2.7700
 Quadrupole moment (field-independent basis, Debye-Ang):
   XX=            -18.5147   YY=            -20.1773   ZZ=            -20.5361
   XY=             -0.0006   XZ=              0.6115   YZ=              0.0000

 Normal termination of Gaussian 16 at Fri Sep 22 17:18:25 2023.
