 Gaussian 16, Revision A.03,
 Gaussian 16:  ES64L-G16RevA.03 25-Dec-2016

 ----------
 # hf/3-21g
 ----------

 -----------------------
 tmpdir/M2_conf_91_8.gjf
 -----------------------
 Symbolic Z-matrix:
 Charge =  0 Multiplicity = 1

                         Standard orientation:
 ---------------------------------------------------------------------
 Center     Atomic      Atomic             Coordinates (Angstroms)
 Number     Number       Type             X           Y           Z
 ---------------------------------------------------------------------
      1          1           0       -1.489475    0.963725   -0.375375
      2          6           0       -1.202366   -0.000228    0.000100
      3         17           0        0.689537   -0.000499    0.000190
      4          1           0       -1.509150   -0.152868    1.017332
      5          1           0       -1.509299   -0.801002   -0.645788
 ---------------------------------------------------------------------

 SCF Done:  E(RHF) =  -496.689461905     A.U. after   11 cycles

 The electronic state is 1-A.
 Alpha  occ. eigenvalues -- -104.08772 -11.25001 -10.48162  -7.94536  -7.94132
 Alpha  occ. eigenvalues --   -7.94132  -1.11280  -0.93337  -0.63253  -0.63239
 Alpha  occ. eigenvalues --   -0.51323  -0.43734  -0.43719
 Alpha virt. eigenvalues --    0.16605   0.27332   0.31375   0.31381   0.73825
 Alpha virt. eigenvalues --    0.80641   0.80723   0.85499   0.93576   0.93748
 Alpha virt. eigenvalues --    0.99528   1.31221   1.31233   1.32197   1.92005

 Mulliken charges:
               1
     1  H    0.270341
     2  C   -0.702617
     3  Cl  -0.107063
     4  H    0.269694
     5  H    0.269646
 Sum of Mulliken charges =   0.00000

 Dipole moment (field-independent basis, Debye):
    X=             -2.8663    Y=              0.0065    Z=             -0.0024  Tot=              2.8663
 Quadrupole moment (field-independent basis, Debye-Ang):
   XX=            -18.5703   YY=            -20.1797   ZZ=            -20.1813
   XY=              0.0188   XZ=             -0.0074   YZ=             -0.0003

 Normal termination of Gaussian 16 at Fri Sep 22 17:16:23 2023.
