 Gaussian 16, Revision A.03,
 Gaussian 16:  ES64L-G16RevA.03 25-Dec-2016

 ----------
 # hf/3-21g
 ----------

 -----------------------
 tmpdir/M2_conf_29_8.gjf
 -----------------------
 Symbolic Z-matrix:
 Charge =  0 Multiplicity = 1

                         Standard orientation:
 ---------------------------------------------------------------------
 Center     Atomic      Atomic             Coordinates (Angstroms)
 Number     Number       Type             X           Y           Z
 ---------------------------------------------------------------------
      1          1           0       -1.571938   -0.055277    1.007975
      2          6           0       -1.202444   -0.000090    0.001473
      3         17           0        0.689459   -0.000151    0.002819
      4          1           0       -1.467041   -0.861952   -0.581073
      5          1           0       -1.467164    0.920338   -0.483660
 ---------------------------------------------------------------------

 SCF Done:  E(RHF) =  -496.688878365     A.U. after   11 cycles

 The electronic state is 1-A.
 Alpha  occ. eigenvalues -- -104.08777 -11.25000 -10.48167  -7.94541  -7.94137
 Alpha  occ. eigenvalues --   -7.94137  -1.11294  -0.93332  -0.63271  -0.63240
 Alpha  occ. eigenvalues --   -0.51298  -0.43757  -0.43689
 Alpha virt. eigenvalues --    0.16564   0.27332   0.31366   0.31399   0.73833
 Alpha virt. eigenvalues --    0.80451   0.80899   0.85531   0.93167   0.94125
 Alpha virt. eigenvalues --    0.99634   1.31102   1.31256   1.32259   1.91922

 Mulliken charges:
               1
     1  H    0.267523
     2  C   -0.702903
     3  Cl  -0.107002
     4  H    0.271215
     5  H    0.271167
 Sum of Mulliken charges =  -0.00000

 Dipole moment (field-independent basis, Debye):
    X=             -2.8646    Y=              0.0019    Z=             -0.0366  Tot=              2.8648
 Quadrupole moment (field-independent basis, Debye-Ang):
   XX=            -18.5681   YY=            -20.1795   ZZ=            -20.1893
   XY=              0.0058   XZ=             -0.1053   YZ=              0.0002

 Normal termination of Gaussian 16 at Fri Sep 22 17:14:51 2023.
