 Gaussian 16, Revision A.03,
 Gaussian 16:  ES64L-G16RevA.03 25-Dec-2016

 ----------
 # hf/3-21g
 ----------

 -----------------------
 tmpdir/M2_conf_68_8.gjf
 -----------------------
 Symbolic Z-matrix:
 Charge =  0 Multiplicity = 1

                         Standard orientation:
 ---------------------------------------------------------------------
 Center     Atomic      Atomic             Coordinates (Angstroms)
 Number     Number       Type             X           Y           Z
 ---------------------------------------------------------------------
      1          1           0       -1.237771   -0.003172    1.067191
      2          6           0       -1.203445    0.000004   -0.005855
      3         17           0        0.688447    0.000036   -0.010078
      4          1           0       -1.622471   -0.891201   -0.432879
      5          1           0       -1.622692    0.893742   -0.427854
 ---------------------------------------------------------------------

 SCF Done:  E(RHF) =  -496.680599805     A.U. after   11 cycles

 The electronic state is 1-A.
 Alpha  occ. eigenvalues -- -104.08864 -11.24965 -10.48260  -7.94632  -7.94227
 Alpha  occ. eigenvalues --   -7.94225  -1.11517  -0.93274  -0.63600  -0.63174
 Alpha  occ. eigenvalues --   -0.51022  -0.43946  -0.43404
 Alpha virt. eigenvalues --    0.16075   0.27392   0.31391   0.31468   0.73935
 Alpha virt. eigenvalues --    0.79901   0.81055   0.85636   0.92437   0.95363
 Alpha virt. eigenvalues --    1.00435   1.30459   1.31168   1.32356   1.90670

 Mulliken charges:
               1
     1  H    0.279079
     2  C   -0.704842
     3  Cl  -0.107542
     4  H    0.266676
     5  H    0.266629
 Sum of Mulliken charges =  -0.00000

 Dipole moment (field-independent basis, Debye):
    X=             -2.8376    Y=             -0.0005    Z=              0.1457  Tot=              2.8413
 Quadrupole moment (field-independent basis, Debye-Ang):
   XX=            -18.5447   YY=            -20.1836   ZZ=            -20.2892
   XY=             -0.0012   XZ=              0.3762   YZ=              0.0000

 Normal termination of Gaussian 16 at Fri Sep 22 17:15:49 2023.
