 Gaussian 16, Revision A.03,
 Gaussian 16:  ES64L-G16RevA.03 25-Dec-2016

 ----------
 # hf/3-21g
 ----------

 ------------------------
 tmpdir/M2_conf_139_3.gjf
 ------------------------
 Symbolic Z-matrix:
 Charge =  0 Multiplicity = 1

                         Standard orientation:
 ---------------------------------------------------------------------
 Center     Atomic      Atomic             Coordinates (Angstroms)
 Number     Number       Type             X           Y           Z
 ---------------------------------------------------------------------
      1          6           0       -1.477103    0.000015    0.000010
      2         17           0        0.834997   -0.000012   -0.000003
      3          1           0       -1.777471   -0.278188    0.992268
      4          1           0       -1.777153    0.998725   -0.255259
      5          1           0       -1.777715   -0.720428   -0.737022
 ---------------------------------------------------------------------

 SCF Done:  E(RHF) =  -496.653924490     A.U. after   10 cycles

 The electronic state is 1-A.
 Alpha  occ. eigenvalues -- -104.07687 -11.29334 -10.46406  -7.92731  -7.92460
 Alpha  occ. eigenvalues --   -7.92460  -1.04131  -0.96861  -0.64226  -0.64221
 Alpha  occ. eigenvalues --   -0.44503  -0.42237  -0.42237
 Alpha virt. eigenvalues --    0.05096   0.25632   0.30369   0.30373   0.73303
 Alpha virt. eigenvalues --    0.78944   0.78949   0.88205   0.93448   0.93457
 Alpha virt. eigenvalues --    1.01721   1.27776   1.28805   1.28814   1.81444

 Mulliken charges:
               1
     1  C   -0.491215
     2  Cl  -0.322665
     3  H    0.271309
     4  H    0.271302
     5  H    0.271269
 Sum of Mulliken charges =  -0.00000

 Dipole moment (field-independent basis, Debye):
    X=             -4.5217    Y=              0.0001    Z=              0.0001  Tot=              4.5217
 Quadrupole moment (field-independent basis, Debye-Ang):
   XX=            -15.7111   YY=            -20.3973   ZZ=            -20.3987
   XY=              0.0005   XZ=             -0.0001   YZ=             -0.0001

 Normal termination of Gaussian 16 at Fri Sep 22 17:17:35 2023.
