 Gaussian 16, Revision A.03,
 Gaussian 16:  ES64L-G16RevA.03 25-Dec-2016

 ----------
 # hf/3-21g
 ----------

 ------------------------
 tmpdir/M2_conf_283_5.gjf
 ------------------------
 Symbolic Z-matrix:
 Charge =  0 Multiplicity = 1

                         Standard orientation:
 ---------------------------------------------------------------------
 Center     Atomic      Atomic             Coordinates (Angstroms)
 Number     Number       Type             X           Y           Z
 ---------------------------------------------------------------------
      1          1           0        1.021499    0.210981   -0.339140
      2          6           0        0.024618   -0.026312   -0.019596
      3          1           0       -0.696879   -0.417976   -0.711441
      4          1           0        0.010833   -0.661186    0.846056
      5          1           0       -0.483160    1.026050    0.322103
 ---------------------------------------------------------------------

 SCF Done:  E(RHF) =  -39.9638504997     A.U. after    9 cycles

 The electronic state is 1-A.
 Alpha  occ. eigenvalues --  -11.15747  -0.93823  -0.57266  -0.54446  -0.49731
 Alpha virt. eigenvalues --    0.28327   0.31836   0.35148   0.36310   0.90786
 Alpha virt. eigenvalues --    0.93937   0.97363   1.25275   1.31778   1.35886
 Alpha virt. eigenvalues --    1.38638   1.94618

 Mulliken charges:
               1
     1  H    0.210123
     2  C   -0.775712
     3  H    0.209905
     4  H    0.206043
     5  H    0.149643
 Sum of Mulliken charges =  -0.00000

 Dipole moment (field-independent basis, Debye):
    X=             -0.0160    Y=             -0.0677    Z=              0.0133  Tot=              0.0709
 Quadrupole moment (field-independent basis, Debye-Ang):
   XX=             -8.1818   YY=             -8.6041   ZZ=             -8.6700
   XY=              0.1886   XZ=              0.0493   YZ=             -0.1192

 Normal termination of Gaussian 16 at Fri Sep 22 17:21:19 2023.
