 Gaussian 16, Revision A.03,
 Gaussian 16:  ES64L-G16RevA.03 25-Dec-2016

 ----------
 # hf/3-21g
 ----------

 ------------------------
 tmpdir/M2_conf_251_5.gjf
 ------------------------
 Symbolic Z-matrix:
 Charge =  0 Multiplicity = 1

                         Standard orientation:
 ---------------------------------------------------------------------
 Center     Atomic      Atomic             Coordinates (Angstroms)
 Number     Number       Type             X           Y           Z
 ---------------------------------------------------------------------
      1          1           0       -0.456023   -0.187138    0.949082
      2          6           0       -0.018590    0.020439   -0.008911
      3          1           0       -0.697775   -0.404882   -0.723346
      4          1           0        0.230143    1.057672   -0.130934
      5          1           0        1.035195   -0.588287   -0.041336
 ---------------------------------------------------------------------

 SCF Done:  E(RHF) =  -39.9655329310     A.U. after    9 cycles

 The electronic state is 1-A.
 Alpha  occ. eigenvalues --  -11.15720  -0.93822  -0.56793  -0.54078  -0.50573
 Alpha virt. eigenvalues --    0.28248   0.32336   0.35093   0.36129   0.90725
 Alpha virt. eigenvalues --    0.93092   0.98128   1.24859   1.32723   1.35570
 Alpha virt. eigenvalues --    1.38279   1.94368

 Mulliken charges:
               1
     1  H    0.204778
     2  C   -0.772421
     3  H    0.206416
     4  H    0.207740
     5  H    0.153487
 Sum of Mulliken charges =   0.00000

 Dipole moment (field-independent basis, Debye):
    X=             -0.0959    Y=              0.0188    Z=              0.0464  Tot=              0.1082
 Quadrupole moment (field-independent basis, Debye-Ang):
   XX=             -8.3994   YY=             -8.3837   ZZ=             -8.6510
   XY=              0.2071   XZ=              0.0230   YZ=             -0.0094

 Normal termination of Gaussian 16 at Fri Sep 22 17:20:30 2023.
