 Gaussian 16, Revision A.03,
 Gaussian 16:  ES64L-G16RevA.03 25-Dec-2016

 ----------
 # hf/3-21g
 ----------

 ------------------------
 tmpdir/M2_conf_195_7.gjf
 ------------------------
 Symbolic Z-matrix:
 Charge =  0 Multiplicity = 1

                         Standard orientation:
 ---------------------------------------------------------------------
 Center     Atomic      Atomic             Coordinates (Angstroms)
 Number     Number       Type             X           Y           Z
 ---------------------------------------------------------------------
      1          1           0        0.521470   -0.104421    0.913259
      2          6           0        0.004624    0.026715   -0.018562
      3          1           0        0.812971   -0.229414   -0.677046
      4          1           0       -0.480806    0.981535   -0.088210
      5          1           0       -0.881379   -0.807990   -0.036629
 ---------------------------------------------------------------------

 SCF Done:  E(RHF) =  -39.9605889990     A.U. after    9 cycles

 The electronic state is 1-A.
 Alpha  occ. eigenvalues --  -11.15728  -0.93953  -0.57901  -0.52533  -0.50765
 Alpha virt. eigenvalues --    0.28120   0.32308   0.34524   0.36430   0.90104
 Alpha virt. eigenvalues --    0.94051   0.98912   1.24656   1.32384   1.34637
 Alpha virt. eigenvalues --    1.39818   1.93680

 Mulliken charges:
               1
     1  H    0.203404
     2  C   -0.777447
     3  H    0.207990
     4  H    0.209995
     5  H    0.156059
 Sum of Mulliken charges =   0.00000

 Dipole moment (field-independent basis, Debye):
    X=              0.1319    Y=              0.0298    Z=              0.0948  Tot=              0.1651
 Quadrupole moment (field-independent basis, Debye-Ang):
   XX=             -8.0972   YY=             -8.4411   ZZ=             -8.9061
   XY=             -0.2380   XZ=             -0.0244   YZ=             -0.0146

 Normal termination of Gaussian 16 at Fri Sep 22 17:19:05 2023.
