 Gaussian 16, Revision A.03,
 Gaussian 16:  ES64L-G16RevA.03 25-Dec-2016

 ----------
 # hf/3-21g
 ----------

 -----------------------
 tmpdir/M2_conf_26_6.gjf
 -----------------------
 Symbolic Z-matrix:
 Charge =  0 Multiplicity = 1

                         Standard orientation:
 ---------------------------------------------------------------------
 Center     Atomic      Atomic             Coordinates (Angstroms)
 Number     Number       Type             X           Y           Z
 ---------------------------------------------------------------------
      1          1           0       -1.304651   -0.006443    1.064310
      2          6           0       -1.202969    0.000043   -0.004243
      3         17           0        0.688925    0.000036   -0.007693
      4          1           0       -1.594413    0.895464   -0.448770
      5          1           0       -1.594841   -0.889885   -0.459296
 ---------------------------------------------------------------------

 SCF Done:  E(RHF) =  -496.684567069     A.U. after   11 cycles

 The electronic state is 1-A.
 Alpha  occ. eigenvalues -- -104.08822 -11.24983 -10.48214  -7.94587  -7.94183
 Alpha  occ. eigenvalues --   -7.94181  -1.11408  -0.93302  -0.63462  -0.63190
 Alpha  occ. eigenvalues --   -0.51146  -0.43875  -0.43522
 Alpha virt. eigenvalues --    0.16301   0.27359   0.31377   0.31438   0.73889
 Alpha virt. eigenvalues --    0.80095   0.81047   0.85634   0.92534   0.94969
 Alpha virt. eigenvalues --    1.00093   1.30741   1.31172   1.32374   1.91263

 Mulliken charges:
               1
     1  H    0.276863
     2  C   -0.704054
     3  Cl  -0.107190
     4  H    0.267200
     5  H    0.267181
 Sum of Mulliken charges =  -0.00000

 Dipole moment (field-independent basis, Debye):
    X=             -2.8508    Y=             -0.0006    Z=              0.1083  Tot=              2.8528
 Quadrupole moment (field-independent basis, Debye-Ang):
   XX=            -18.5548   YY=            -20.1826   ZZ=            -20.2414
   XY=             -0.0013   XZ=              0.2869   YZ=             -0.0001

 Normal termination of Gaussian 16 at Fri Sep 22 17:14:46 2023.
