 Gaussian 16, Revision A.03,
 Gaussian 16:  ES64L-G16RevA.03 25-Dec-2016

 ----------
 # hf/3-21g
 ----------

 -----------------------
 tmpdir/M2_conf_19_8.gjf
 -----------------------
 Symbolic Z-matrix:
 Charge =  0 Multiplicity = 1

                         Standard orientation:
 ---------------------------------------------------------------------
 Center     Atomic      Atomic             Coordinates (Angstroms)
 Number     Number       Type             X           Y           Z
 ---------------------------------------------------------------------
      1          1           0       -1.463306   -0.242257    1.012033
      2          6           0       -1.202385    0.000173   -0.000767
      3         17           0        0.689513    0.000373   -0.001541
      4          1           0       -1.521973   -0.750554   -0.698228
      5          1           0       -1.522130    0.985428   -0.282999
 ---------------------------------------------------------------------

 SCF Done:  E(RHF) =  -496.689290538     A.U. after   11 cycles

 The electronic state is 1-A.
 Alpha  occ. eigenvalues -- -104.08774 -11.25001 -10.48163  -7.94538  -7.94134
 Alpha  occ. eigenvalues --   -7.94134  -1.11285  -0.93336  -0.63267  -0.63230
 Alpha  occ. eigenvalues --   -0.51316  -0.43750  -0.43701
 Alpha virt. eigenvalues --    0.16593   0.27332   0.31372   0.31387   0.73827
 Alpha virt. eigenvalues --    0.80561   0.80797   0.85507   0.93395   0.93927
 Alpha virt. eigenvalues --    0.99554   1.31209   1.31220   1.32210   1.91979

 Mulliken charges:
               1
     1  H    0.271260
     2  C   -0.702687
     3  Cl  -0.107052
     4  H    0.269263
     5  H    0.269215
 Sum of Mulliken charges =   0.00000

 Dipole moment (field-independent basis, Debye):
    X=             -2.8657    Y=             -0.0050    Z=              0.0203  Tot=              2.8658
 Quadrupole moment (field-independent basis, Debye-Ang):
   XX=            -18.5697   YY=            -20.1816   ZZ=            -20.1817
   XY=             -0.0138   XZ=              0.0579   YZ=             -0.0003

 Normal termination of Gaussian 16 at Fri Sep 22 17:14:36 2023.
