 Gaussian 16, Revision A.03,
 Gaussian 16:  ES64L-G16RevA.03 25-Dec-2016

 ----------
 # hf/3-21g
 ----------

 ------------------------
 tmpdir/M2_conf_198_1.gjf
 ------------------------
 Symbolic Z-matrix:
 Charge =  0 Multiplicity = 1

                         Standard orientation:
 ---------------------------------------------------------------------
 Center     Atomic      Atomic             Coordinates (Angstroms)
 Number     Number       Type             X           Y           Z
 ---------------------------------------------------------------------
      1          6           0       -0.012761   -0.027579    0.000059
      2          1           0       -1.067560    0.459428   -0.001662
      3          1           0        0.178422   -0.590270    0.893932
      4          1           0        0.179566   -0.594695   -0.891006
      5          1           0        0.786138    0.891013   -0.001618
 ---------------------------------------------------------------------

 SCF Done:  E(RHF) =  -39.9630430045     A.U. after    9 cycles

 The electronic state is 1-A.
 Alpha  occ. eigenvalues --  -11.16748  -0.92932  -0.55789  -0.53835  -0.50141
 Alpha virt. eigenvalues --    0.27843   0.31341   0.34248   0.35686   0.91726
 Alpha virt. eigenvalues --    0.95037   0.98804   1.24251   1.27446   1.34281
 Alpha virt. eigenvalues --    1.36719   1.93649

 Mulliken charges:
               1
     1  C   -0.755983
     2  H    0.182503
     3  H    0.209363
     4  H    0.209307
     5  H    0.154810
 Sum of Mulliken charges =  -0.00000

 Dipole moment (field-independent basis, Debye):
    X=              0.0157    Y=             -0.0728    Z=              0.0003  Tot=              0.0745
 Quadrupole moment (field-independent basis, Debye-Ang):
   XX=             -8.5382   YY=             -8.6073   ZZ=             -8.4742
   XY=             -0.1590   XZ=              0.0002   YZ=              0.0004

 Normal termination of Gaussian 16 at Fri Sep 22 17:19:09 2023.
