 Gaussian 16, Revision A.03,
 Gaussian 16:  ES64L-G16RevA.03 25-Dec-2016

 ----------
 # hf/3-21g
 ----------

 -----------------------
 tmpdir/M2_conf_46_8.gjf
 -----------------------
 Symbolic Z-matrix:
 Charge =  0 Multiplicity = 1

                         Standard orientation:
 ---------------------------------------------------------------------
 Center     Atomic      Atomic             Coordinates (Angstroms)
 Number     Number       Type             X           Y           Z
 ---------------------------------------------------------------------
      1          1           0       -1.505868    0.983021   -0.307172
      2          6           0       -1.202363    0.000088   -0.000017
      3         17           0        0.689539    0.000122   -0.000042
      4          1           0       -1.500985   -0.226471    1.005803
      5          1           0       -1.501129   -0.759149   -0.697811
 ---------------------------------------------------------------------

 SCF Done:  E(RHF) =  -496.689482344     A.U. after   10 cycles

 The electronic state is 1-A.
 Alpha  occ. eigenvalues -- -104.08772 -11.25001 -10.48161  -7.94536  -7.94132
 Alpha  occ. eigenvalues --   -7.94132  -1.11280  -0.93337  -0.63247  -0.63244
 Alpha  occ. eigenvalues --   -0.51323  -0.43729  -0.43724
 Alpha virt. eigenvalues --    0.16606   0.27332   0.31376   0.31380   0.73825
 Alpha virt. eigenvalues --    0.80673   0.80691   0.85498   0.93634   0.93691
 Alpha virt. eigenvalues --    0.99525   1.31224   1.31232   1.32196   1.92008

 Mulliken charges:
               1
     1  H    0.269769
     2  C   -0.702610
     3  Cl  -0.107064
     4  H    0.269976
     5  H    0.269928
 Sum of Mulliken charges =  -0.00000

 Dipole moment (field-independent basis, Debye):
    X=             -2.8663    Y=             -0.0017    Z=              0.0007  Tot=              2.8663
 Quadrupole moment (field-independent basis, Debye-Ang):
   XX=            -18.5704   YY=            -20.1797   ZZ=            -20.1810
   XY=             -0.0044   XZ=              0.0013   YZ=             -0.0001

 Normal termination of Gaussian 16 at Fri Sep 22 17:15:16 2023.
