 Gaussian 16, Revision A.03,
 Gaussian 16:  ES64L-G16RevA.03 25-Dec-2016

 ----------
 # hf/3-21g
 ----------

 ------------------------
 tmpdir/M2_conf_265_1.gjf
 ------------------------
 Symbolic Z-matrix:
 Charge =  0 Multiplicity = 1

                         Standard orientation:
 ---------------------------------------------------------------------
 Center     Atomic      Atomic             Coordinates (Angstroms)
 Number     Number       Type             X           Y           Z
 ---------------------------------------------------------------------
      1          6           0       -0.031150   -0.003155    0.000058
      2          1           0       -0.397646    1.019822   -0.010689
      3          1           0       -0.299058   -0.526058    0.898378
      4          1           0       -0.300402   -0.545555   -0.886459
      5          1           0        1.184003    0.070719   -0.001576
 ---------------------------------------------------------------------

 SCF Done:  E(RHF) =  -39.9669454746     A.U. after    9 cycles

 The electronic state is 1-A.
 Alpha  occ. eigenvalues --  -11.15879  -0.93633  -0.55656  -0.55358  -0.50261
 Alpha virt. eigenvalues --    0.28270   0.32138   0.35423   0.35687   0.91883
 Alpha virt. eigenvalues --    0.92496   0.97696   1.25001   1.31875   1.36195
 Alpha virt. eigenvalues --    1.36911   1.94492

 Mulliken charges:
               1
     1  C   -0.768804
     2  H    0.203060
     3  H    0.206949
     4  H    0.206894
     5  H    0.151901
 Sum of Mulliken charges =  -0.00000

 Dipole moment (field-independent basis, Debye):
    X=             -0.0665    Y=             -0.0121    Z=              0.0003  Tot=              0.0676
 Quadrupole moment (field-independent basis, Debye-Ang):
   XX=             -8.6680   YY=             -8.3942   ZZ=             -8.4037
   XY=             -0.0180   XZ=              0.0004   YZ=              0.0002

 Normal termination of Gaussian 16 at Fri Sep 22 17:20:51 2023.
