 Gaussian 16, Revision A.03,
 Gaussian 16:  ES64L-G16RevA.03 25-Dec-2016

 ----------
 # hf/3-21g
 ----------

 ------------------------
 tmpdir/M2_conf_113_3.gjf
 ------------------------
 Symbolic Z-matrix:
 Charge =  0 Multiplicity = 1

                         Standard orientation:
 ---------------------------------------------------------------------
 Center     Atomic      Atomic             Coordinates (Angstroms)
 Number     Number       Type             X           Y           Z
 ---------------------------------------------------------------------
      1          6           0       -1.273757    0.000018    0.000010
      2         17           0        0.727343   -0.000014   -0.000003
      3          1           0       -1.574124   -0.278184    0.992269
      4          1           0       -1.573802    0.998730   -0.255258
      5          1           0       -1.574373   -0.720423   -0.737021
 ---------------------------------------------------------------------

 SCF Done:  E(RHF) =  -496.686029183     A.U. after   10 cycles

 The electronic state is 1-A.
 Alpha  occ. eigenvalues -- -104.08720 -11.26176 -10.47849  -7.94205  -7.93848
 Alpha  occ. eigenvalues --   -7.93848  -1.08829  -0.94405  -0.63185  -0.63180
 Alpha  occ. eigenvalues --   -0.49446  -0.43557  -0.43557
 Alpha virt. eigenvalues --    0.13027   0.26902   0.31239   0.31242   0.73610
 Alpha virt. eigenvalues --    0.80161   0.80165   0.85617   0.93647   0.93658
 Alpha virt. eigenvalues --    1.02067   1.30705   1.30714   1.30930   1.88552

 Mulliken charges:
               1
     1  C   -0.636279
     2  Cl  -0.173407
     3  H    0.269918
     4  H    0.269899
     5  H    0.269869
 Sum of Mulliken charges =  -0.00000

 Dipole moment (field-independent basis, Debye):
    X=             -3.2558    Y=              0.0001    Z=              0.0001  Tot=              3.2558
 Quadrupole moment (field-independent basis, Debye-Ang):
   XX=            -17.8683   YY=            -20.2656   ZZ=            -20.2669
   XY=              0.0006   XZ=             -0.0001   YZ=             -0.0001

 Normal termination of Gaussian 16 at Fri Sep 22 17:16:56 2023.
