 Gaussian 16, Revision A.03,
 Gaussian 16:  ES64L-G16RevA.03 25-Dec-2016

 ----------
 # hf/3-21g
 ----------

 ------------------------
 tmpdir/M2_conf_208_2.gjf
 ------------------------
 Symbolic Z-matrix:
 Charge =  0 Multiplicity = 1

                         Standard orientation:
 ---------------------------------------------------------------------
 Center     Atomic      Atomic             Coordinates (Angstroms)
 Number     Number       Type             X           Y           Z
 ---------------------------------------------------------------------
      1          6           0        0.000387   -0.030924   -0.000016
      2          1           0        1.196075    0.212414   -0.001848
      3          1           0       -0.313995   -0.537499    0.892590
      4          1           0       -0.317698   -0.535698   -0.892567
      5          1           0       -0.566702    1.046325    0.001921
 ---------------------------------------------------------------------

 SCF Done:  E(RHF) =  -39.9565943010     A.U. after    9 cycles

 The electronic state is 1-A.
 Alpha  occ. eigenvalues --  -11.17403  -0.92515  -0.55909  -0.52849  -0.49879
 Alpha virt. eigenvalues --    0.27207   0.30541   0.33751   0.35683   0.91624
 Alpha virt. eigenvalues --    0.95719   1.00843   1.22233   1.25617   1.33674
 Alpha virt. eigenvalues --    1.36555   1.92972

 Mulliken charges:
               1
     1  C   -0.743825
     2  H    0.165307
     3  H    0.210890
     4  H    0.210838
     5  H    0.156789
 Sum of Mulliken charges =   0.00000

 Dipole moment (field-independent basis, Debye):
    X=             -0.0829    Y=             -0.0721    Z=              0.0002  Tot=              0.1099
 Quadrupole moment (field-independent basis, Debye-Ang):
   XX=             -8.4841   YY=             -8.7224   ZZ=             -8.5249
   XY=              0.1354   XZ=              0.0009   YZ=             -0.0008

 Normal termination of Gaussian 16 at Fri Sep 22 17:19:24 2023.
