 Gaussian 16, Revision A.03,
 Gaussian 16:  ES64L-G16RevA.03 25-Dec-2016

 ----------
 # hf/3-21g
 ----------

 -----------------------
 tmpdir/M2_conf_49_7.gjf
 -----------------------
 Symbolic Z-matrix:
 Charge =  0 Multiplicity = 1

                         Standard orientation:
 ---------------------------------------------------------------------
 Center     Atomic      Atomic             Coordinates (Angstroms)
 Number     Number       Type             X           Y           Z
 ---------------------------------------------------------------------
      1          1           0        0.364513   -0.299005    0.970119
      2          6           0        0.028955    0.007684   -0.002486
      3          1           0        0.473793   -0.611747   -0.758158
      4          1           0        0.159076    1.060076   -0.168955
      5          1           0       -1.171108   -0.195426   -0.028091
 ---------------------------------------------------------------------

 SCF Done:  E(RHF) =  -39.9669273277     A.U. after    9 cycles

 The electronic state is 1-A.
 Alpha  occ. eigenvalues --  -11.15722  -0.93782  -0.56007  -0.55141  -0.50383
 Alpha virt. eigenvalues --    0.28302   0.32286   0.35495   0.35842   0.91477
 Alpha virt. eigenvalues --    0.92288   0.97764   1.25001   1.32593   1.36468
 Alpha virt. eigenvalues --    1.37337   1.94600

 Mulliken charges:
               1
     1  H    0.205764
     2  C   -0.770691
     3  H    0.206150
     4  H    0.206794
     5  H    0.151983
 Sum of Mulliken charges =  -0.00000

 Dipole moment (field-independent basis, Debye):
    X=              0.0781    Y=              0.0037    Z=              0.0152  Tot=              0.0796
 Quadrupole moment (field-independent basis, Debye-Ang):
   XX=             -8.6121   YY=             -8.3497   ZZ=             -8.4733
   XY=             -0.0787   XZ=             -0.0146   YZ=             -0.0014

 Normal termination of Gaussian 16 at Fri Sep 22 17:15:20 2023.
