 Gaussian 16, Revision A.03,
 Gaussian 16:  ES64L-G16RevA.03 25-Dec-2016

 ----------
 # hf/3-21g
 ----------

 -----------------------
 tmpdir/M2_conf_75_4.gjf
 -----------------------
 Symbolic Z-matrix:
 Charge =  0 Multiplicity = 1

                         Standard orientation:
 ---------------------------------------------------------------------
 Center     Atomic      Atomic             Coordinates (Angstroms)
 Number     Number       Type             X           Y           Z
 ---------------------------------------------------------------------
      1          1           0       -0.848820    0.595778   -0.347489
      2          6           0       -0.031265   -0.015731   -0.016056
      3          1           0        0.436799   -0.682363   -0.715435
      4          1           0       -0.266532   -0.568625    0.873642
      5          1           0        0.866144    0.749594    0.285619
 ---------------------------------------------------------------------

 SCF Done:  E(RHF) =  -39.9649686538     A.U. after    9 cycles

 The electronic state is 1-A.
 Alpha  occ. eigenvalues --  -11.15741  -0.93804  -0.56912  -0.54698  -0.49875
 Alpha virt. eigenvalues --    0.28331   0.31957   0.35263   0.36177   0.91010
 Alpha virt. eigenvalues --    0.93417   0.97409   1.25234   1.31946   1.36083
 Alpha virt. eigenvalues --    1.38248   1.94643

 Mulliken charges:
               1
     1  H    0.209083
     2  C   -0.773843
     3  H    0.208749
     4  H    0.206040
     5  H    0.149972
 Sum of Mulliken charges =   0.00000

 Dipole moment (field-independent basis, Debye):
    X=             -0.0211    Y=             -0.0629    Z=              0.0082  Tot=              0.0669
 Quadrupole moment (field-independent basis, Debye-Ang):
   XX=             -8.4271   YY=             -8.4197   ZZ=             -8.6039
   XY=             -0.2510   XZ=             -0.0839   YZ=             -0.0788

 Normal termination of Gaussian 16 at Fri Sep 22 17:16:00 2023.
