 Gaussian 16, Revision A.03,
 Gaussian 16:  ES64L-G16RevA.03 25-Dec-2016

 ----------
 # hf/3-21g
 ----------

 ------------------------
 tmpdir/M2_conf_129_4.gjf
 ------------------------
 Symbolic Z-matrix:
 Charge =  0 Multiplicity = 1

                         Standard orientation:
 ---------------------------------------------------------------------
 Center     Atomic      Atomic             Coordinates (Angstroms)
 Number     Number       Type             X           Y           Z
 ---------------------------------------------------------------------
      1          1           0       -0.331065    0.971484   -0.352089
      2          6           0       -0.032541    0.000941   -0.004071
      3          1           0       -0.249354   -0.793314   -0.693107
      4          1           0       -0.405157   -0.215039    0.979348
      5          1           0        1.180824    0.031222    0.090277
 ---------------------------------------------------------------------

 SCF Done:  E(RHF) =  -39.9667775831     A.U. after    9 cycles

 The electronic state is 1-A.
 Alpha  occ. eigenvalues --  -11.15728  -0.93777  -0.55914  -0.55430  -0.50199
 Alpha virt. eigenvalues --    0.28324   0.32190   0.35596   0.35794   0.91715
 Alpha virt. eigenvalues --    0.92194   0.97577   1.25105   1.32360   1.36732
 Alpha virt. eigenvalues --    1.37215   1.94664

 Mulliken charges:
               1
     1  H    0.206916
     2  C   -0.770946
     3  H    0.206713
     4  H    0.206287
     5  H    0.151030
 Sum of Mulliken charges =   0.00000

 Dipole moment (field-independent basis, Debye):
    X=             -0.0669    Y=             -0.0089    Z=             -0.0002  Tot=              0.0675
 Quadrupole moment (field-independent basis, Debye-Ang):
   XX=             -8.6664   YY=             -8.3448   ZZ=             -8.4286
   XY=             -0.0152   XZ=             -0.0370   YZ=             -0.0019

 Normal termination of Gaussian 16 at Fri Sep 22 17:17:20 2023.
