 Gaussian 16, Revision A.03,
 Gaussian 16:  ES64L-G16RevA.03 25-Dec-2016

 ----------
 # hf/3-21g
 ----------

 ------------------------
 tmpdir/M2_conf_194_6.gjf
 ------------------------
 Symbolic Z-matrix:
 Charge =  0 Multiplicity = 1

                         Standard orientation:
 ---------------------------------------------------------------------
 Center     Atomic      Atomic             Coordinates (Angstroms)
 Number     Number       Type             X           Y           Z
 ---------------------------------------------------------------------
      1          1           0       -0.906404   -0.001022    1.012374
      2          6           0       -1.207799    0.000028   -0.017843
      3         17           0        0.684096    0.000013   -0.019071
      4          1           0       -1.738080    0.893010   -0.289868
      5          1           0       -1.738353   -0.892370   -0.291243
 ---------------------------------------------------------------------

 SCF Done:  E(RHF) =  -496.639087908     A.U. after   11 cycles

 The electronic state is 1-A.
 Alpha  occ. eigenvalues -- -104.09394 -11.24615 -10.48866  -7.95228  -7.94814
 Alpha  occ. eigenvalues --   -7.94796  -1.12851  -0.92968  -0.64731  -0.63041
 Alpha  occ. eigenvalues --   -0.50421  -0.44620  -0.42083
 Alpha virt. eigenvalues --    0.14214   0.28033   0.31592   0.31706   0.74181
 Alpha virt. eigenvalues --    0.78875   0.80585   0.84756   0.93852   0.97127
 Alpha virt. eigenvalues --    1.02236   1.28091   1.31279   1.31732   1.85781

 Mulliken charges:
               1
     1  H    0.289372
     2  C   -0.709905
     3  Cl  -0.112708
     4  H    0.266625
     5  H    0.266616
 Sum of Mulliken charges =  -0.00000

 Dipole moment (field-independent basis, Debye):
    X=             -2.6709    Y=             -0.0003    Z=              0.3454  Tot=              2.6931
 Quadrupole moment (field-independent basis, Debye-Ang):
   XX=            -18.5177   YY=            -20.1653   ZZ=            -20.7328
   XY=             -0.0004   XZ=              0.6961   YZ=             -0.0001

 Normal termination of Gaussian 16 at Fri Sep 22 17:19:03 2023.
