 Gaussian 16, Revision A.03,
 Gaussian 16:  ES64L-G16RevA.03 25-Dec-2016

 ----------
 # hf/3-21g
 ----------

 ------------------------
 tmpdir/M2_conf_213_4.gjf
 ------------------------
 Symbolic Z-matrix:
 Charge =  0 Multiplicity = 1

                         Standard orientation:
 ---------------------------------------------------------------------
 Center     Atomic      Atomic             Coordinates (Angstroms)
 Number     Number       Type             X           Y           Z
 ---------------------------------------------------------------------
      1          1           0       -0.330997    0.971483   -0.352102
      2          6           0       -0.032535    0.000935   -0.004042
      3          1           0       -0.249981   -0.793275   -0.692930
      4          1           0       -0.404696   -0.214752    0.979614
      5          1           0        1.180886    0.030932    0.089672
 ---------------------------------------------------------------------

 SCF Done:  E(RHF) =  -39.9667794053     A.U. after    9 cycles

 The electronic state is 1-A.
 Alpha  occ. eigenvalues --  -11.15728  -0.93777  -0.55912  -0.55432  -0.50199
 Alpha virt. eigenvalues --    0.28324   0.32190   0.35597   0.35794   0.91716
 Alpha virt. eigenvalues --    0.92192   0.97577   1.25105   1.32361   1.36734
 Alpha virt. eigenvalues --    1.37213   1.94664

 Mulliken charges:
               1
     1  H    0.206912
     2  C   -0.770943
     3  H    0.206711
     4  H    0.206288
     5  H    0.151032
 Sum of Mulliken charges =   0.00000

 Dipole moment (field-independent basis, Debye):
    X=             -0.0670    Y=             -0.0089    Z=             -0.0002  Tot=              0.0676
 Quadrupole moment (field-independent basis, Debye-Ang):
   XX=             -8.6664   YY=             -8.3452   ZZ=             -8.4282
   XY=             -0.0151   XZ=             -0.0367   YZ=             -0.0018

 Normal termination of Gaussian 16 at Fri Sep 22 17:19:32 2023.
