 Gaussian 16, Revision A.03,
 Gaussian 16:  ES64L-G16RevA.03 25-Dec-2016

 ----------
 # hf/3-21g
 ----------

 -----------------------
 tmpdir/M2_conf_63_0.gjf
 -----------------------
 Symbolic Z-matrix:
 Charge =  0 Multiplicity = 1

                         Standard orientation:
 ---------------------------------------------------------------------
 Center     Atomic      Atomic             Coordinates (Angstroms)
 Number     Number       Type             X           Y           Z
 ---------------------------------------------------------------------
      1          6           0       -0.032239    0.000055    0.010951
      2          1           0       -0.174198   -0.001679    1.009105
      3          1           0       -0.400153    0.894669   -0.454805
      4          1           0       -0.405066   -0.890704   -0.458252
      5          1           0        1.172850   -0.002618   -0.161753
 ---------------------------------------------------------------------

 SCF Done:  E(RHF) =  -39.9629027972     A.U. after    9 cycles

 The electronic state is 1-A.
 Alpha  occ. eigenvalues --  -11.14966  -0.94597  -0.57068  -0.55545  -0.50288
 Alpha virt. eigenvalues --    0.28494   0.32538   0.35682   0.37138   0.88945
 Alpha virt. eigenvalues --    0.92080   0.97551   1.25323   1.33901   1.37067
 Alpha virt. eigenvalues --    1.42827   1.95592

 Mulliken charges:
               1
     1  C   -0.778362
     2  H    0.222115
     3  H    0.203873
     4  H    0.203867
     5  H    0.148506
 Sum of Mulliken charges =   0.00000

 Dipole moment (field-independent basis, Debye):
    X=             -0.0818    Y=              0.0002    Z=              0.0469  Tot=              0.0943
 Quadrupole moment (field-independent basis, Debye-Ang):
   XX=             -8.5876   YY=             -8.3245   ZZ=             -8.3808
   XY=              0.0012   XZ=              0.0400   YZ=             -0.0004

 Normal termination of Gaussian 16 at Fri Sep 22 17:15:42 2023.
