 Gaussian 16, Revision A.03,
 Gaussian 16:  ES64L-G16RevA.03 25-Dec-2016

 ----------
 # hf/3-21g
 ----------

 -----------------------
 tmpdir/M2_conf_39_9.gjf
 -----------------------
 Symbolic Z-matrix:
 Charge =  0 Multiplicity = 1

                         Standard orientation:
 ---------------------------------------------------------------------
 Center     Atomic      Atomic             Coordinates (Angstroms)
 Number     Number       Type             X           Y           Z
 ---------------------------------------------------------------------
      1          1           0        1.427423   -0.078298    1.045270
      2          6           0        1.202446    0.000126   -0.001559
      3         17           0       -0.689453    0.000217   -0.003004
      4          1           0        1.539452   -0.853142   -0.558835
      5          1           0        1.539146    0.926990   -0.426015
 ---------------------------------------------------------------------

 SCF Done:  E(RHF) =  -496.688777407     A.U. after   11 cycles

 The electronic state is 1-A.
 Alpha  occ. eigenvalues -- -104.08779 -11.24999 -10.48169  -7.94543  -7.94139
 Alpha  occ. eigenvalues --   -7.94139  -1.11297  -0.93332  -0.63292  -0.63221
 Alpha  occ. eigenvalues --   -0.51296  -0.43775  -0.43671
 Alpha virt. eigenvalues --    0.16560   0.27334   0.31368   0.31398   0.73834
 Alpha virt. eigenvalues --    0.80453   0.80884   0.85530   0.93151   0.94172
 Alpha virt. eigenvalues --    0.99627   1.31151   1.31206   1.32246   1.91902

 Mulliken charges:
               1
     1  H    0.272521
     2  C   -0.702876
     3  Cl  -0.107028
     4  H    0.268703
     5  H    0.268680
 Sum of Mulliken charges =  -0.00000

 Dipole moment (field-independent basis, Debye):
    X=              2.8641    Y=             -0.0031    Z=              0.0404  Tot=              2.8644
 Quadrupole moment (field-independent basis, Debye-Ang):
   XX=            -18.5676   YY=            -20.1819   ZZ=            -20.1883
   XY=              0.0079   XZ=             -0.1123   YZ=             -0.0003

 Normal termination of Gaussian 16 at Fri Sep 22 17:15:06 2023.
