 Gaussian 16, Revision A.03,
 Gaussian 16:  ES64L-G16RevA.03 25-Dec-2016

 ----------
 # hf/3-21g
 ----------

 ------------------------
 tmpdir/M2_conf_192_5.gjf
 ------------------------
 Symbolic Z-matrix:
 Charge =  0 Multiplicity = 1

                         Standard orientation:
 ---------------------------------------------------------------------
 Center     Atomic      Atomic             Coordinates (Angstroms)
 Number     Number       Type             X           Y           Z
 ---------------------------------------------------------------------
      1          1           0       -0.465972   -0.172891    0.945350
      2          6           0       -0.016836    0.021631   -0.009965
      3          1           0       -0.718665   -0.376536   -0.718140
      4          1           0        0.273987    1.048580   -0.125762
      5          1           0        1.011664   -0.628942   -0.041660
 ---------------------------------------------------------------------

 SCF Done:  E(RHF) =  -39.9651535871     A.U. after    9 cycles

 The electronic state is 1-A.
 Alpha  occ. eigenvalues --  -11.15720  -0.93833  -0.56916  -0.53908  -0.50598
 Alpha virt. eigenvalues --    0.28237   0.32338   0.35030   0.36169   0.90632
 Alpha virt. eigenvalues --    0.93212   0.98199   1.24837   1.32719   1.35443
 Alpha virt. eigenvalues --    1.38440   1.94314

 Mulliken charges:
               1
     1  H    0.204638
     2  C   -0.772862
     3  H    0.206537
     4  H    0.207939
     5  H    0.153747
 Sum of Mulliken charges =   0.00000

 Dipole moment (field-independent basis, Debye):
    X=             -0.0992    Y=              0.0207    Z=              0.0514  Tot=              0.1136
 Quadrupole moment (field-independent basis, Debye-Ang):
   XX=             -8.3620   YY=             -8.3935   ZZ=             -8.6790
   XY=              0.2159   XZ=              0.0234   YZ=             -0.0105

 Normal termination of Gaussian 16 at Fri Sep 22 17:19:00 2023.
