 Gaussian 16, Revision A.03,
 Gaussian 16:  ES64L-G16RevA.03 25-Dec-2016

 ----------
 # hf/3-21g
 ----------

 ------------------------
 tmpdir/M2_conf_155_8.gjf
 ------------------------
 Symbolic Z-matrix:
 Charge =  0 Multiplicity = 1

                         Standard orientation:
 ---------------------------------------------------------------------
 Center     Atomic      Atomic             Coordinates (Angstroms)
 Number     Number       Type             X           Y           Z
 ---------------------------------------------------------------------
      1          1           0       -1.339188   -0.008793    1.061439
      2          6           0       -1.202783    0.000016   -0.003423
      3         17           0        0.689119    0.000058   -0.006415
      4          1           0       -1.579471   -0.888593   -0.473167
      5          1           0       -1.579664    0.896298   -0.458679
 ---------------------------------------------------------------------

 SCF Done:  E(RHF) =  -496.686144644     A.U. after   11 cycles

 The electronic state is 1-A.
 Alpha  occ. eigenvalues -- -104.08805 -11.24990 -10.48196  -7.94570  -7.94166
 Alpha  occ. eigenvalues --   -7.94165  -1.11366  -0.93313  -0.63405  -0.63196
 Alpha  occ. eigenvalues --   -0.51199  -0.43843  -0.43572
 Alpha virt. eigenvalues --    0.16395   0.27347   0.31373   0.31426   0.73869
 Alpha virt. eigenvalues --    0.80194   0.81024   0.85610   0.92670   0.94741
 Alpha virt. eigenvalues --    0.99936   1.30889   1.31182   1.32335   1.91500

 Mulliken charges:
               1
     1  H    0.275629
     2  C   -0.703649
     3  Cl  -0.107103
     4  H    0.267585
     5  H    0.267538
 Sum of Mulliken charges =  -0.00000

 Dipole moment (field-independent basis, Debye):
    X=             -2.8559    Y=             -0.0009    Z=              0.0888  Tot=              2.8573
 Quadrupole moment (field-independent basis, Debye-Ang):
   XX=            -18.5594   YY=            -20.1835   ZZ=            -20.2206
   XY=             -0.0020   XZ=              0.2397   YZ=              0.0000

 Normal termination of Gaussian 16 at Fri Sep 22 17:17:59 2023.
