 Gaussian 16, Revision A.03,
 Gaussian 16:  ES64L-G16RevA.03 25-Dec-2016

 ----------
 # hf/3-21g
 ----------

 ----------------------
 tmpdir/M2_conf_0_5.gjf
 ----------------------
 Symbolic Z-matrix:
 Charge =  0 Multiplicity = 1

                         Standard orientation:
 ---------------------------------------------------------------------
 Center     Atomic      Atomic             Coordinates (Angstroms)
 Number     Number       Type             X           Y           Z
 ---------------------------------------------------------------------
      1          1           0        0.375251    0.959820   -0.350103
      2          6           0        0.033554    0.001124   -0.009028
      3          1           0        0.123639   -0.804688   -0.712708
      4          1           0        0.463210   -0.276179    0.934957
      5          1           0       -1.163422    0.114301    0.182023
 ---------------------------------------------------------------------

 SCF Done:  E(RHF) =  -39.9663078719     A.U. after    9 cycles

 The electronic state is 1-A.
 Alpha  occ. eigenvalues --  -11.15732  -0.93783  -0.56300  -0.55144  -0.50087
 Alpha virt. eigenvalues --    0.28330   0.32117   0.35469   0.35942   0.91433
 Alpha virt. eigenvalues --    0.92626   0.97501   1.25157   1.32214   1.36465
 Alpha virt. eigenvalues --    1.37604   1.94669

 Mulliken charges:
               1
     1  H    0.207638
     2  C   -0.771687
     3  H    0.207298
     4  H    0.206154
     5  H    0.150597
 Sum of Mulliken charges =   0.00000

 Dipole moment (field-independent basis, Debye):
    X=              0.0607    Y=             -0.0235    Z=              0.0021  Tot=              0.0651
 Quadrupole moment (field-independent basis, Debye-Ang):
   XX=             -8.6662   YY=             -8.2859   ZZ=             -8.4913
   XY=              0.0535   XZ=              0.0736   YZ=             -0.0094

 Normal termination of Gaussian 16 at Fri Sep 22 17:14:07 2023.
