 Gaussian 16, Revision A.03,
 Gaussian 16:  ES64L-G16RevA.03 25-Dec-2016

 ----------
 # hf/3-21g
 ----------

 -----------------------
 tmpdir/M2_conf_97_2.gjf
 -----------------------
 Symbolic Z-matrix:
 Charge =  0 Multiplicity = 1

                         Standard orientation:
 ---------------------------------------------------------------------
 Center     Atomic      Atomic             Coordinates (Angstroms)
 Number     Number       Type             X           Y           Z
 ---------------------------------------------------------------------
      1          6           0        0.032077    0.000015    0.004826
      2          1           0        0.249501   -0.010036    1.030588
      3          1           0        0.372329   -0.886581   -0.495550
      4          1           0        0.367608    0.898484   -0.477662
      5          1           0       -1.181901   -0.001955   -0.086334
 ---------------------------------------------------------------------

 SCF Done:  E(RHF) =  -39.9662607833     A.U. after    9 cycles

 The electronic state is 1-A.
 Alpha  occ. eigenvalues --  -11.15433  -0.94069  -0.56180  -0.55601  -0.50280
 Alpha virt. eigenvalues --    0.28397   0.32374   0.35687   0.36221   0.90794
 Alpha virt. eigenvalues --    0.91975   0.97572   1.25178   1.33221   1.36998
 Alpha virt. eigenvalues --    1.38837   1.94974

 Mulliken charges:
               1
     1  C   -0.773963
     2  H    0.212647
     3  H    0.205536
     4  H    0.205490
     5  H    0.150291
 Sum of Mulliken charges =   0.00000

 Dipole moment (field-independent basis, Debye):
    X=              0.0762    Y=             -0.0001    Z=              0.0198  Tot=              0.0788
 Quadrupole moment (field-independent basis, Debye-Ang):
   XX=             -8.6318   YY=             -8.3656   ZZ=             -8.3859
   XY=             -0.0011   XZ=             -0.0217   YZ=             -0.0005

 Normal termination of Gaussian 16 at Fri Sep 22 17:16:32 2023.
