 Gaussian 16, Revision A.03,
 Gaussian 16:  ES64L-G16RevA.03 25-Dec-2016

 ----------
 # hf/3-21g
 ----------

 -----------------------
 tmpdir/M2_conf_47_4.gjf
 -----------------------
 Symbolic Z-matrix:
 Charge =  0 Multiplicity = 1

                         Standard orientation:
 ---------------------------------------------------------------------
 Center     Atomic      Atomic             Coordinates (Angstroms)
 Number     Number       Type             X           Y           Z
 ---------------------------------------------------------------------
      1          1           0        0.468809   -0.167490    0.944345
      2          6           0        0.016265    0.021964   -0.010379
      3          1           0        0.724207   -0.370250   -0.715792
      4          1           0       -0.285510    1.045799   -0.125695
      5          1           0       -1.005094   -0.639841   -0.040583
 ---------------------------------------------------------------------

 SCF Done:  E(RHF) =  -39.9650191015     A.U. after    9 cycles

 The electronic state is 1-A.
 Alpha  occ. eigenvalues --  -11.15720  -0.93836  -0.56956  -0.53850  -0.50609
 Alpha virt. eigenvalues --    0.28233   0.32339   0.35008   0.36181   0.90601
 Alpha virt. eigenvalues --    0.93252   0.98223   1.24830   1.32717   1.35403
 Alpha virt. eigenvalues --    1.38494   1.94297

 Mulliken charges:
               1
     1  H    0.204587
     2  C   -0.773021
     3  H    0.206587
     4  H    0.208007
     5  H    0.153840
 Sum of Mulliken charges =   0.00000

 Dipole moment (field-independent basis, Debye):
    X=              0.1005    Y=              0.0212    Z=              0.0532  Tot=              0.1156
 Quadrupole moment (field-independent basis, Debye-Ang):
   XX=             -8.3511   YY=             -8.3951   ZZ=             -8.6885
   XY=             -0.2181   XZ=             -0.0231   YZ=             -0.0106

 Normal termination of Gaussian 16 at Fri Sep 22 17:15:18 2023.
