 Gaussian 16, Revision A.03,
 Gaussian 16:  ES64L-G16RevA.03 25-Dec-2016

 ----------
 # hf/3-21g
 ----------

 ------------------------
 tmpdir/M2_conf_187_7.gjf
 ------------------------
 Symbolic Z-matrix:
 Charge =  0 Multiplicity = 1

                         Standard orientation:
 ---------------------------------------------------------------------
 Center     Atomic      Atomic             Coordinates (Angstroms)
 Number     Number       Type             X           Y           Z
 ---------------------------------------------------------------------
      1          1           0       -1.048969    0.069652   -0.327194
      2          6           0       -0.023807   -0.029064   -0.024020
      3          1           0        0.771319   -0.278287   -0.700983
      4          1           0        0.095028   -0.689585    0.813694
      5          1           0        0.325460    1.072604    0.358602
 ---------------------------------------------------------------------

 SCF Done:  E(RHF) =  -39.9619421667     A.U. after    9 cycles

 The electronic state is 1-A.
 Alpha  occ. eigenvalues --  -11.15757  -0.93856  -0.57729  -0.54130  -0.49507
 Alpha virt. eigenvalues --    0.28315   0.31636   0.35007   0.36482   0.90510
 Alpha virt. eigenvalues --    0.94712   0.97319   1.25317   1.31533   1.35668
 Alpha virt. eigenvalues --    1.39168   1.94563

 Mulliken charges:
               1
     1  H    0.211715
     2  C   -0.778951
     3  H    0.211838
     4  H    0.206155
     5  H    0.149243
 Sum of Mulliken charges =  -0.00000

 Dipole moment (field-independent basis, Debye):
    X=              0.0389    Y=             -0.0655    Z=              0.0208  Tot=              0.0790
 Quadrupole moment (field-independent basis, Debye-Ang):
   XX=             -8.0529   YY=             -8.6501   ZZ=             -8.7608
   XY=             -0.1306   XZ=             -0.0335   YZ=             -0.1391

 Normal termination of Gaussian 16 at Fri Sep 22 17:18:53 2023.
