 Gaussian 16, Revision A.03,
 Gaussian 16:  ES64L-G16RevA.03 25-Dec-2016

 ----------
 # hf/3-21g
 ----------

 ------------------------
 tmpdir/M2_conf_200_0.gjf
 ------------------------
 Symbolic Z-matrix:
 Charge =  0 Multiplicity = 1

                         Standard orientation:
 ---------------------------------------------------------------------
 Center     Atomic      Atomic             Coordinates (Angstroms)
 Number     Number       Type             X           Y           Z
 ---------------------------------------------------------------------
      1          6           0       -0.032084    0.000056    0.005304
      2          1           0       -0.241184   -0.004063    1.030081
      3          1           0       -0.371230    0.895855   -0.479615
      4          1           0       -0.376275   -0.889504   -0.487463
      5          1           0        1.181192   -0.002624   -0.094826
 ---------------------------------------------------------------------

 SCF Done:  E(RHF) =  -39.9661288372     A.U. after    9 cycles

 The electronic state is 1-A.
 Alpha  occ. eigenvalues --  -11.15404  -0.94101  -0.56236  -0.55595  -0.50281
 Alpha virt. eigenvalues --    0.28404   0.32386   0.35685   0.36280   0.90671
 Alpha virt. eigenvalues --    0.91988   0.97569   1.25188   1.33274   1.36996
 Alpha virt. eigenvalues --    1.39071   1.95008

 Mulliken charges:
               1
     1  C   -0.774264
     2  H    0.213309
     3  H    0.205390
     4  H    0.205385
     5  H    0.150181
 Sum of Mulliken charges =  -0.00000

 Dipole moment (field-independent basis, Debye):
    X=             -0.0766    Y=              0.0001    Z=              0.0221  Tot=              0.0798
 Quadrupole moment (field-independent basis, Debye-Ang):
   XX=             -8.6289   YY=             -8.3628   ZZ=             -8.3861
   XY=              0.0012   XZ=              0.0241   YZ=             -0.0003

 Normal termination of Gaussian 16 at Fri Sep 22 17:19:12 2023.
