 Gaussian 16, Revision A.03,
 Gaussian 16:  ES64L-G16RevA.03 25-Dec-2016

 ----------
 # hf/3-21g
 ----------

 ------------------------
 tmpdir/M2_conf_207_3.gjf
 ------------------------
 Symbolic Z-matrix:
 Charge =  0 Multiplicity = 1

                         Standard orientation:
 ---------------------------------------------------------------------
 Center     Atomic      Atomic             Coordinates (Angstroms)
 Number     Number       Type             X           Y           Z
 ---------------------------------------------------------------------
      1          6           0       -1.958987    0.000010    0.000009
      2         17           0        1.090113   -0.000009   -0.000002
      3          1           0       -2.259356   -0.278193    0.992266
      4          1           0       -2.259042    0.998719   -0.255262
      5          1           0       -2.259594   -0.720435   -0.737023
 ---------------------------------------------------------------------

 SCF Done:  E(RHF) =  -496.560809711     A.U. after   10 cycles

 The electronic state is 1-A.
 Alpha  occ. eigenvalues -- -104.03041 -11.35300 -10.41701  -7.88017  -7.87810
 Alpha  occ. eigenvalues --   -7.87810  -1.03680  -0.96227  -0.68722  -0.68717
 Alpha  occ. eigenvalues --   -0.38096  -0.38096  -0.36021
 Alpha virt. eigenvalues --   -0.05622   0.22293   0.27070   0.27074   0.72401
 Alpha virt. eigenvalues --    0.79262   0.79272   0.85505   0.90235   0.90240
 Alpha virt. eigenvalues --    0.98185   1.18493   1.24241   1.24250   1.69400

 Mulliken charges:
               1
     1  C   -0.358561
     2  Cl  -0.520842
     3  H    0.293141
     4  H    0.293146
     5  H    0.293116
 Sum of Mulliken charges =  -0.00000

 Dipole moment (field-independent basis, Debye):
    X=             -7.9954    Y=              0.0001    Z=              0.0001  Tot=              7.9954
 Quadrupole moment (field-independent basis, Debye-Ang):
   XX=            -10.3543   YY=            -20.4110   ZZ=            -20.4126
   XY=              0.0003   XZ=             -0.0000   YZ=             -0.0001

 Normal termination of Gaussian 16 at Fri Sep 22 17:19:23 2023.
