 Gaussian 16, Revision A.03,
 Gaussian 16:  ES64L-G16RevA.03 25-Dec-2016

 ----------
 # hf/3-21g
 ----------

 ------------------------
 tmpdir/M2_conf_287_2.gjf
 ------------------------
 Symbolic Z-matrix:
 Charge =  0 Multiplicity = 1

                         Standard orientation:
 ---------------------------------------------------------------------
 Center     Atomic      Atomic             Coordinates (Angstroms)
 Number     Number       Type             X           Y           Z
 ---------------------------------------------------------------------
      1          6           0        0.010432   -0.028543   -0.000015
      2          1           0        1.098688    0.401914   -0.002742
      3          1           0       -0.209847   -0.581840    0.893035
      4          1           0       -0.215024   -0.581666   -0.892118
      5          1           0       -0.736410    0.932852    0.001917
 ---------------------------------------------------------------------

 SCF Done:  E(RHF) =  -39.9622584820     A.U. after    9 cycles

 The electronic state is 1-A.
 Alpha  occ. eigenvalues --  -11.16845  -0.92865  -0.55808  -0.53672  -0.50117
 Alpha virt. eigenvalues --    0.27771   0.31228   0.34153   0.35687   0.91714
 Alpha virt. eigenvalues --    0.95193   0.99053   1.24065   1.27030   1.34171
 Alpha virt. eigenvalues --    1.36698   1.93554

 Mulliken charges:
               1
     1  C   -0.754323
     2  H    0.180054
     3  H    0.209605
     4  H    0.209554
     5  H    0.155111
 Sum of Mulliken charges =  -0.00000

 Dipole moment (field-independent basis, Debye):
    X=             -0.0266    Y=             -0.0737    Z=              0.0002  Tot=              0.0784
 Quadrupole moment (field-independent basis, Debye-Ang):
   XX=             -8.5226   YY=             -8.6325   ZZ=             -8.4813
   XY=              0.1558   XZ=              0.0010   YZ=             -0.0007

 Normal termination of Gaussian 16 at Fri Sep 22 17:21:29 2023.
