 Gaussian 16, Revision A.03,
 Gaussian 16:  ES64L-G16RevA.03 25-Dec-2016

 ----------
 # hf/3-21g
 ----------

 ------------------------
 tmpdir/M2_conf_110_0.gjf
 ------------------------
 Symbolic Z-matrix:
 Charge =  0 Multiplicity = 1

                         Standard orientation:
 ---------------------------------------------------------------------
 Center     Atomic      Atomic             Coordinates (Angstroms)
 Number     Number       Type             X           Y           Z
 ---------------------------------------------------------------------
      1          6           0       -0.030043   -0.007588   -0.000056
      2          1           0       -0.505110    0.985414   -0.004362
      3          1           0       -0.240298   -0.567494   -0.891639
      4          1           0       -0.245629   -0.561915    0.893728
      5          1           0        1.171295    0.189521    0.002607
 ---------------------------------------------------------------------

 SCF Done:  E(RHF) =  -39.9666914469     A.U. after    9 cycles

 The electronic state is 1-A.
 Alpha  occ. eigenvalues --  -11.16046  -0.93483  -0.55681  -0.55052  -0.50249
 Alpha virt. eigenvalues --    0.28210   0.32024   0.35151   0.35686   0.91863
 Alpha virt. eigenvalues --    0.93082   0.97791   1.24917   1.31118   1.35571
 Alpha virt. eigenvalues --    1.36872   1.94325

 Mulliken charges:
               1
     1  C   -0.766626
     2  H    0.199355
     3  H    0.207396
     4  H    0.207392
     5  H    0.152483
 Sum of Mulliken charges =  -0.00000

 Dipole moment (field-independent basis, Debye):
    X=             -0.0596    Y=             -0.0268    Z=             -0.0001  Tot=              0.0653
 Quadrupole moment (field-independent basis, Debye-Ang):
   XX=             -8.6732   YY=             -8.4062   ZZ=             -8.4166
   XY=             -0.0495   XZ=             -0.0012   YZ=              0.0001

 Normal termination of Gaussian 16 at Fri Sep 22 17:16:51 2023.
