 Gaussian 16, Revision A.03,
 Gaussian 16:  ES64L-G16RevA.03 25-Dec-2016

 ----------
 # hf/3-21g
 ----------

 ------------------------
 tmpdir/M2_conf_215_0.gjf
 ------------------------
 Symbolic Z-matrix:
 Charge =  0 Multiplicity = 1

                         Standard orientation:
 ---------------------------------------------------------------------
 Center     Atomic      Atomic             Coordinates (Angstroms)
 Number     Number       Type             X           Y           Z
 ---------------------------------------------------------------------
      1          6           0       -0.031918    0.000056    0.002717
      2          1           0       -0.282087   -0.008489    1.033047
      3          1           0       -0.352759    0.898045   -0.490538
      4          1           0       -0.357873   -0.887262   -0.506226
      5          1           0        1.184226   -0.002633   -0.052589
 ---------------------------------------------------------------------

 SCF Done:  E(RHF) =  -39.9667038578     A.U. after    9 cycles

 The electronic state is 1-A.
 Alpha  occ. eigenvalues --  -11.15572  -0.93927  -0.55922  -0.55617  -0.50276
 Alpha virt. eigenvalues --    0.28361   0.32310   0.35685   0.35965   0.91325
 Alpha virt. eigenvalues --    0.91955   0.97597   1.25128   1.32901   1.36966
 Alpha virt. eigenvalues --    1.37874   1.94815

 Mulliken charges:
               1
     1  C   -0.772450
     2  H    0.209773
     3  H    0.205940
     4  H    0.205935
     5  H    0.150802
 Sum of Mulliken charges =  -0.00000

 Dipole moment (field-independent basis, Debye):
    X=             -0.0740    Y=              0.0001    Z=              0.0111  Tot=              0.0748
 Quadrupole moment (field-independent basis, Debye-Ang):
   XX=             -8.6441   YY=             -8.3771   ZZ=             -8.3882
   XY=              0.0012   XZ=              0.0134   YZ=             -0.0003

 Normal termination of Gaussian 16 at Fri Sep 22 17:19:35 2023.
