 Gaussian 16, Revision A.03,
 Gaussian 16:  ES64L-G16RevA.03 25-Dec-2016

 ----------
 # hf/3-21g
 ----------

 ------------------------
 tmpdir/M2_conf_292_0.gjf
 ------------------------
 Symbolic Z-matrix:
 Charge =  0 Multiplicity = 1

                         Standard orientation:
 ---------------------------------------------------------------------
 Center     Atomic      Atomic             Coordinates (Angstroms)
 Number     Number       Type             X           Y           Z
 ---------------------------------------------------------------------
      1          6           0        0.003391   -0.030452    0.000057
      2          1           0        1.170435    0.258152    0.000978
      3          1           0       -0.292768   -0.547137    0.893338
      4          1           0       -0.290127   -0.550658   -0.892041
      5          1           0       -0.607884    1.022358   -0.002615
 ---------------------------------------------------------------------

 SCF Done:  E(RHF) =  -39.9588322470     A.U. after    9 cycles

 The electronic state is 1-A.
 Alpha  occ. eigenvalues --  -11.17206  -0.92630  -0.55870  -0.53121  -0.49985
 Alpha virt. eigenvalues --    0.27441   0.30784   0.33870   0.35682   0.91663
 Alpha virt. eigenvalues --    0.95600   1.00147   1.23011   1.25942   1.33825
 Alpha virt. eigenvalues --    1.36600   1.93185

 Mulliken charges:
               1
     1  C   -0.747725
     2  H    0.170694
     3  H    0.210408
     4  H    0.210407
     5  H    0.156216
 Sum of Mulliken charges =   0.00000

 Dipole moment (field-independent basis, Debye):
    X=             -0.0635    Y=             -0.0731    Z=              0.0001  Tot=              0.0968
 Quadrupole moment (field-independent basis, Debye-Ang):
   XX=             -8.4920   YY=             -8.6968   ZZ=             -8.5093
   XY=              0.1417   XZ=             -0.0009   YZ=              0.0009

 Normal termination of Gaussian 16 at Fri Sep 22 17:21:37 2023.
