 Gaussian 16, Revision A.03,
 Gaussian 16:  ES64L-G16RevA.03 25-Dec-2016

 ----------
 # hf/3-21g
 ----------

 -----------------------
 tmpdir/M2_conf_14_2.gjf
 -----------------------
 Symbolic Z-matrix:
 Charge =  0 Multiplicity = 1

                         Standard orientation:
 ---------------------------------------------------------------------
 Center     Atomic      Atomic             Coordinates (Angstroms)
 Number     Number       Type             X           Y           Z
 ---------------------------------------------------------------------
      1          6           0        0.003501   -0.031335    0.000016
      2          1           0       -1.227344    0.166856    0.001582
      3          1           0        0.338648   -0.524657   -0.892457
      4          1           0        0.341863   -0.522507    0.892700
      5          1           0        0.525825    1.068316   -0.001922
 ---------------------------------------------------------------------

 SCF Done:  E(RHF) =  -39.9529709013     A.U. after    9 cycles

 The electronic state is 1-A.
 Alpha  occ. eigenvalues --  -11.17691  -0.92357  -0.55966  -0.52505  -0.49671
 Alpha virt. eigenvalues --    0.26791   0.30215   0.33609   0.35680   0.91581
 Alpha virt. eigenvalues --    0.95819   1.01884   1.21047   1.25328   1.33454
 Alpha virt. eigenvalues --    1.36475   1.92639

 Mulliken charges:
               1
     1  C   -0.737768
     2  H    0.157251
     3  H    0.211483
     4  H    0.211430
     5  H    0.157605
 Sum of Mulliken charges =  -0.00000

 Dipole moment (field-independent basis, Debye):
    X=              0.1109    Y=             -0.0703    Z=             -0.0002  Tot=              0.1313
 Quadrupole moment (field-independent basis, Debye-Ang):
   XX=             -8.4793   YY=             -8.7535   ZZ=             -8.5470
   XY=             -0.1285   XZ=              0.0009   YZ=              0.0009

 Normal termination of Gaussian 16 at Fri Sep 22 17:14:28 2023.
