 Gaussian 16, Revision A.03,
 Gaussian 16:  ES64L-G16RevA.03 25-Dec-2016

 ----------
 # hf/3-21g
 ----------

 ------------------------
 tmpdir/M2_conf_136_8.gjf
 ------------------------
 Symbolic Z-matrix:
 Charge =  0 Multiplicity = 1

                         Standard orientation:
 ---------------------------------------------------------------------
 Center     Atomic      Atomic             Coordinates (Angstroms)
 Number     Number       Type             X           Y           Z
 ---------------------------------------------------------------------
      1          1           0       -1.337691   -0.008627    1.061598
      2          6           0       -1.202786    0.000016   -0.003457
      3         17           0        0.689109    0.000058   -0.006471
      4          1           0       -1.580124   -0.888671   -0.472529
      5          1           0       -1.580318    0.896222   -0.458322
 ---------------------------------------------------------------------

 SCF Done:  E(RHF) =  -496.686082978     A.U. after   11 cycles

 The electronic state is 1-A.
 Alpha  occ. eigenvalues -- -104.08806 -11.24989 -10.48197  -7.94571  -7.94166
 Alpha  occ. eigenvalues --   -7.94165  -1.11368  -0.93313  -0.63408  -0.63196
 Alpha  occ. eigenvalues --   -0.51197  -0.43844  -0.43570
 Alpha virt. eigenvalues --    0.16392   0.27347   0.31373   0.31426   0.73870
 Alpha virt. eigenvalues --    0.80189   0.81026   0.85612   0.92663   0.94750
 Alpha virt. eigenvalues --    0.99942   1.30883   1.31182   1.32336   1.91491

 Mulliken charges:
               1
     1  H    0.275681
     2  C   -0.703670
     3  Cl  -0.107101
     4  H    0.267569
     5  H    0.267521
 Sum of Mulliken charges =  -0.00000

 Dipole moment (field-independent basis, Debye):
    X=             -2.8556    Y=             -0.0008    Z=              0.0896  Tot=              2.8571
 Quadrupole moment (field-independent basis, Debye-Ang):
   XX=            -18.5593   YY=            -20.1835   ZZ=            -20.2214
   XY=             -0.0020   XZ=              0.2418   YZ=              0.0000

 Normal termination of Gaussian 16 at Fri Sep 22 17:17:30 2023.
