 Gaussian 16, Revision A.03,
 Gaussian 16:  ES64L-G16RevA.03 25-Dec-2016

 ----------
 # hf/3-21g
 ----------

 ------------------------
 tmpdir/M2_conf_296_7.gjf
 ------------------------
 Symbolic Z-matrix:
 Charge =  0 Multiplicity = 1

                         Standard orientation:
 ---------------------------------------------------------------------
 Center     Atomic      Atomic             Coordinates (Angstroms)
 Number     Number       Type             X           Y           Z
 ---------------------------------------------------------------------
      1          1           0       -0.329210    0.975305   -0.345307
      2          6           0       -0.032714    0.001270   -0.004775
      3          1           0       -0.238180   -0.789344   -0.701427
      4          1           0       -0.415753   -0.226705    0.971689
      5          1           0        1.179425    0.033126    0.103696
 ---------------------------------------------------------------------

 SCF Done:  E(RHF) =  -39.9667226138     A.U. after    9 cycles

 The electronic state is 1-A.
 Alpha  occ. eigenvalues --  -11.15729  -0.93778  -0.55972  -0.55388  -0.50182
 Alpha virt. eigenvalues --    0.28326   0.32179   0.35579   0.35815   0.91661
 Alpha virt. eigenvalues --    0.92268   0.97564   1.25113   1.32337   1.36699
 Alpha virt. eigenvalues --    1.37267   1.94666

 Mulliken charges:
               1
     1  H    0.206968
     2  C   -0.771036
     3  H    0.206783
     4  H    0.206322
     5  H    0.150962
 Sum of Mulliken charges =  -0.00000

 Dipole moment (field-independent basis, Debye):
    X=             -0.0662    Y=             -0.0107    Z=              0.0003  Tot=              0.0670
 Quadrupole moment (field-independent basis, Debye-Ang):
   XX=             -8.6680   YY=             -8.3344   ZZ=             -8.4379
   XY=             -0.0162   XZ=             -0.0427   YZ=             -0.0022

 Normal termination of Gaussian 16 at Fri Sep 22 17:21:43 2023.
