 Gaussian 16, Revision A.03,
 Gaussian 16:  ES64L-G16RevA.03 25-Dec-2016

 ----------
 # hf/3-21g
 ----------

 ------------------------
 tmpdir/M2_conf_187_6.gjf
 ------------------------
 Symbolic Z-matrix:
 Charge =  0 Multiplicity = 1

                         Standard orientation:
 ---------------------------------------------------------------------
 Center     Atomic      Atomic             Coordinates (Angstroms)
 Number     Number       Type             X           Y           Z
 ---------------------------------------------------------------------
      1          1           0       -0.835964   -0.000837    0.984839
      2          6           0       -1.209188    0.000027   -0.021586
      3         17           0        0.682711    0.000011   -0.020166
      4          1           0       -1.757380    0.892932   -0.255718
      5          1           0       -1.757619   -0.892448   -0.256788
 ---------------------------------------------------------------------

 SCF Done:  E(RHF) =  -496.624049349     A.U. after   11 cycles

 The electronic state is 1-A.
 Alpha  occ. eigenvalues -- -104.09613 -11.24425 -10.49129  -7.95488  -7.95070
 Alpha  occ. eigenvalues --   -7.95044  -1.13413  -0.92847  -0.65076  -0.62971
 Alpha  occ. eigenvalues --   -0.50423  -0.44881  -0.41529
 Alpha virt. eigenvalues --    0.13687   0.28336   0.31691   0.31796   0.74190
 Alpha virt. eigenvalues --    0.78612   0.80457   0.84587   0.94143   0.97441
 Alpha virt. eigenvalues --    1.02557   1.27207   1.31367   1.31498   1.84534

 Mulliken charges:
               1
     1  H    0.291413
     2  C   -0.712188
     3  Cl  -0.113535
     4  H    0.267158
     5  H    0.267152
 Sum of Mulliken charges =   0.00000

 Dipole moment (field-independent basis, Debye):
    X=             -2.5965    Y=             -0.0003    Z=              0.3932  Tot=              2.6261
 Quadrupole moment (field-independent basis, Debye-Ang):
   XX=            -18.5349   YY=            -20.1542   ZZ=            -20.8679
   XY=             -0.0004   XZ=              0.7241   YZ=             -0.0001

 Normal termination of Gaussian 16 at Fri Sep 22 17:18:53 2023.
