 Gaussian 16, Revision A.03,
 Gaussian 16:  ES64L-G16RevA.03 25-Dec-2016

 ----------
 # hf/3-21g
 ----------

 ------------------------
 tmpdir/M2_conf_104_2.gjf
 ------------------------
 Symbolic Z-matrix:
 Charge =  0 Multiplicity = 1

                         Standard orientation:
 ---------------------------------------------------------------------
 Center     Atomic      Atomic             Coordinates (Angstroms)
 Number     Number       Type             X           Y           Z
 ---------------------------------------------------------------------
      1          6           0        0.031966    0.000015    0.003112
      2          1           0        0.276743   -0.016280    1.032381
      3          1           0        0.360099   -0.883380   -0.510835
      4          1           0        0.355245    0.901542   -0.482030
      5          1           0       -1.183885   -0.001975   -0.058188
 ---------------------------------------------------------------------

 SCF Done:  E(RHF) =  -39.9666357893     A.U. after    9 cycles

 The electronic state is 1-A.
 Alpha  occ. eigenvalues --  -11.15544  -0.93955  -0.55972  -0.55615  -0.50277
 Alpha virt. eigenvalues --    0.28369   0.32324   0.35688   0.36014   0.91226
 Alpha virt. eigenvalues --    0.91952   0.97590   1.25139   1.32974   1.36978
 Alpha virt. eigenvalues --    1.38049   1.94847

 Mulliken charges:
               1
     1  C   -0.772764
     2  H    0.210313
     3  H    0.205899
     4  H    0.205852
     5  H    0.150700
 Sum of Mulliken charges =   0.00000

 Dipole moment (field-independent basis, Debye):
    X=              0.0745    Y=             -0.0001    Z=              0.0126  Tot=              0.0755
 Quadrupole moment (field-independent basis, Debye-Ang):
   XX=             -8.6418   YY=             -8.3750   ZZ=             -8.3873
   XY=             -0.0011   XZ=             -0.0145   YZ=             -0.0004

 Normal termination of Gaussian 16 at Fri Sep 22 17:16:43 2023.
