 Gaussian 16, Revision A.03,
 Gaussian 16:  ES64L-G16RevA.03 25-Dec-2016

 ----------
 # hf/3-21g
 ----------

 ------------------------
 tmpdir/M2_conf_116_1.gjf
 ------------------------
 Symbolic Z-matrix:
 Charge =  0 Multiplicity = 1

                         Standard orientation:
 ---------------------------------------------------------------------
 Center     Atomic      Atomic             Coordinates (Angstroms)
 Number     Number       Type             X           Y           Z
 ---------------------------------------------------------------------
      1          6           0       -0.010483   -0.028533    0.000059
      2          1           0       -1.097924    0.402359   -0.001529
      3          1           0        0.211590   -0.579871    0.893866
      4          1           0        0.212795   -0.584085   -0.891072
      5          1           0        0.736440    0.932798   -0.001619
 ---------------------------------------------------------------------

 SCF Done:  E(RHF) =  -39.9623160842     A.U. after    9 cycles

 The electronic state is 1-A.
 Alpha  occ. eigenvalues --  -11.16838  -0.92869  -0.55804  -0.53689  -0.50117
 Alpha virt. eigenvalues --    0.27776   0.31234   0.34163   0.35685   0.91711
 Alpha virt. eigenvalues --    0.95190   0.99030   1.24081   1.27056   1.34184
 Alpha virt. eigenvalues --    1.36697   1.93561

 Mulliken charges:
               1
     1  C   -0.754443
     2  H    0.180231
     3  H    0.209588
     4  H    0.209532
     5  H    0.155093
 Sum of Mulliken charges =   0.00000

 Dipole moment (field-independent basis, Debye):
    X=              0.0261    Y=             -0.0735    Z=              0.0003  Tot=              0.0780
 Quadrupole moment (field-independent basis, Debye-Ang):
   XX=             -8.5234   YY=             -8.6305   ZZ=             -8.4813
   XY=             -0.1563   XZ=              0.0002   YZ=              0.0004

 Normal termination of Gaussian 16 at Fri Sep 22 17:17:01 2023.
