 Gaussian 16, Revision A.03,
 Gaussian 16:  ES64L-G16RevA.03 25-Dec-2016

 ----------
 # hf/3-21g
 ----------

 ------------------------
 tmpdir/M2_conf_238_7.gjf
 ------------------------
 Symbolic Z-matrix:
 Charge =  0 Multiplicity = 1

                         Standard orientation:
 ---------------------------------------------------------------------
 Center     Atomic      Atomic             Coordinates (Angstroms)
 Number     Number       Type             X           Y           Z
 ---------------------------------------------------------------------
      1          1           0        0.497883   -0.130417    0.929310
      2          6           0        0.010132    0.024981   -0.014389
      3          1           0        0.778443   -0.285570   -0.696940
      4          1           0       -0.404496    1.010901   -0.105050
      5          1           0       -0.932622   -0.744803   -0.040985
 ---------------------------------------------------------------------

 SCF Done:  E(RHF) =  -39.9631375363     A.U. after    9 cycles

 The electronic state is 1-A.
 Alpha  occ. eigenvalues --  -11.15723  -0.93886  -0.57427  -0.53200  -0.50693
 Alpha virt. eigenvalues --    0.28183   0.32333   0.34766   0.36318   0.90318
 Alpha virt. eigenvalues --    0.93666   0.98536   1.24745   1.32628   1.34965
 Alpha virt. eigenvalues --    1.39137   1.94036

 Mulliken charges:
               1
     1  H    0.204003
     2  C   -0.775039
     3  H    0.207208
     4  H    0.208934
     5  H    0.154894
 Sum of Mulliken charges =   0.00000

 Dipole moment (field-independent basis, Debye):
    X=              0.1147    Y=              0.0265    Z=              0.0731  Tot=              0.1386
 Quadrupole moment (field-independent basis, Debye-Ang):
   XX=             -8.2184   YY=             -8.4242   ZZ=             -8.7955
   XY=             -0.2339   XZ=             -0.0246   YZ=             -0.0135

 Normal termination of Gaussian 16 at Fri Sep 22 17:20:10 2023.
