 Gaussian 16, Revision A.03,
 Gaussian 16:  ES64L-G16RevA.03 25-Dec-2016

 ----------
 # hf/3-21g
 ----------

 ------------------------
 tmpdir/M2_conf_108_1.gjf
 ------------------------
 Symbolic Z-matrix:
 Charge =  0 Multiplicity = 1

                         Standard orientation:
 ---------------------------------------------------------------------
 Center     Atomic      Atomic             Coordinates (Angstroms)
 Number     Number       Type             X           Y           Z
 ---------------------------------------------------------------------
      1          6           0       -0.027372   -0.013928    0.000059
      2          1           0       -0.673042    0.898283   -0.003280
      3          1           0       -0.142856   -0.595651    0.894734
      4          1           0       -0.143148   -0.602697   -0.890196
      5          1           0        1.123279    0.383633   -0.001611
 ---------------------------------------------------------------------

 SCF Done:  E(RHF) =  -39.9660711013     A.U. after    9 cycles

 The electronic state is 1-A.
 Alpha  occ. eigenvalues --  -11.16239  -0.93320  -0.55708  -0.54709  -0.50229
 Alpha virt. eigenvalues --    0.28130   0.31866   0.34862   0.35687   0.91816
 Alpha virt. eigenvalues --    0.93741   0.97953   1.24800   1.30102   1.35068
 Alpha virt. eigenvalues --    1.36836   1.94139

 Mulliken charges:
               1
     1  C   -0.763940
     2  H    0.194846
     3  H    0.208003
     4  H    0.207947
     5  H    0.153143
 Sum of Mulliken charges =   0.00000

 Dipole moment (field-independent basis, Debye):
    X=             -0.0459    Y=             -0.0455    Z=              0.0003  Tot=              0.0646
 Quadrupole moment (field-independent basis, Debye-Ang):
   XX=             -8.6617   YY=             -8.4356   ZZ=             -8.4333
   XY=             -0.0961   XZ=              0.0004   YZ=              0.0003

 Normal termination of Gaussian 16 at Fri Sep 22 17:16:49 2023.
