 Gaussian 16, Revision A.03,
 Gaussian 16:  ES64L-G16RevA.03 25-Dec-2016

 ----------
 # hf/3-21g
 ----------

 ------------------------
 tmpdir/M2_conf_220_9.gjf
 ------------------------
 Symbolic Z-matrix:
 Charge =  0 Multiplicity = 1

                         Standard orientation:
 ---------------------------------------------------------------------
 Center     Atomic      Atomic             Coordinates (Angstroms)
 Number     Number       Type             X           Y           Z
 ---------------------------------------------------------------------
      1          1           0        1.195094   -0.005273    1.066508
      2          6           0        1.203818    0.000038   -0.007043
      3         17           0       -0.688078    0.000053   -0.011516
      4          1           0        1.639752   -0.890457   -0.418355
      5          1           0        1.639580    0.894604   -0.410116
 ---------------------------------------------------------------------

 SCF Done:  E(RHF) =  -496.677398324     A.U. after   11 cycles

 The electronic state is 1-A.
 Alpha  occ. eigenvalues -- -104.08901 -11.24948 -10.48299  -7.94671  -7.94266
 Alpha  occ. eigenvalues --   -7.94262  -1.11608  -0.93252  -0.63701  -0.63166
 Alpha  occ. eigenvalues --   -0.50934  -0.44000  -0.43311
 Alpha virt. eigenvalues --    0.15901   0.27426   0.31403   0.31490   0.73969
 Alpha virt. eigenvalues --    0.79777   0.81031   0.85595   0.92466   0.95617
 Alpha virt. eigenvalues --    1.00669   1.30243   1.31170   1.32332   1.90211

 Mulliken charges:
               1
     1  H    0.280474
     2  C   -0.705382
     3  Cl  -0.107894
     4  H    0.266414
     5  H    0.266387
 Sum of Mulliken charges =  -0.00000

 Dipole moment (field-independent basis, Debye):
    X=              2.8266    Y=             -0.0009    Z=              0.1703  Tot=              2.8317
 Quadrupole moment (field-independent basis, Debye-Ang):
   XX=            -18.5375   YY=            -20.1828   ZZ=            -20.3282
   XY=              0.0018   XZ=             -0.4294   YZ=             -0.0001

 Normal termination of Gaussian 16 at Fri Sep 22 17:19:43 2023.
