 Gaussian 16, Revision A.03,
 Gaussian 16:  ES64L-G16RevA.03 25-Dec-2016

 ----------
 # hf/3-21g
 ----------

 ------------------------
 tmpdir/M2_conf_179_5.gjf
 ------------------------
 Symbolic Z-matrix:
 Charge =  0 Multiplicity = 1

                         Standard orientation:
 ---------------------------------------------------------------------
 Center     Atomic      Atomic             Coordinates (Angstroms)
 Number     Number       Type             X           Y           Z
 ---------------------------------------------------------------------
      1          1           0        1.079646    0.008253   -0.274073
      2          6           0        0.033339   -0.029665   -0.037451
      3          1           0       -0.838722   -0.151380   -0.651715
      4          1           0       -0.187719   -0.742130    0.734649
      5          1           0       -0.253237    1.063248    0.415843
 ---------------------------------------------------------------------

 SCF Done:  E(RHF) =  -39.9521124898     A.U. after    9 cycles

 The electronic state is 1-A.
 Alpha  occ. eigenvalues --  -11.15797  -0.94036  -0.59230  -0.53244  -0.48472
 Alpha virt. eigenvalues --    0.28226   0.30657   0.34629   0.37024   0.89928
 Alpha virt. eigenvalues --    0.97179   0.97921   1.25284   1.30780   1.35108
 Alpha virt. eigenvalues --    1.41135   1.94343

 Mulliken charges:
               1
     1  H    0.219653
     2  C   -0.796241
     3  H    0.221878
     4  H    0.206570
     5  H    0.148140
 Sum of Mulliken charges =   0.00000

 Dipole moment (field-independent basis, Debye):
    X=             -0.0897    Y=             -0.0644    Z=              0.0510  Tot=              0.1217
 Quadrupole moment (field-independent basis, Debye-Ang):
   XX=             -7.7504   YY=             -8.6830   ZZ=             -9.0656
   XY=              0.0996   XZ=              0.0243   YZ=             -0.1631

 Normal termination of Gaussian 16 at Fri Sep 22 17:18:36 2023.
