 Gaussian 16, Revision A.03,
 Gaussian 16:  ES64L-G16RevA.03 25-Dec-2016

 ----------
 # hf/3-21g
 ----------

 ------------------------
 tmpdir/M2_conf_190_2.gjf
 ------------------------
 Symbolic Z-matrix:
 Charge =  0 Multiplicity = 1

                         Standard orientation:
 ---------------------------------------------------------------------
 Center     Atomic      Atomic             Coordinates (Angstroms)
 Number     Number       Type             X           Y           Z
 ---------------------------------------------------------------------
      1          6           0        0.030689   -0.005325   -0.000014
      2          1           0        0.450750    1.004302   -0.012775
      3          1           0        0.275001   -0.540189    0.898001
      4          1           0        0.269404   -0.561060   -0.887029
      5          1           0       -1.179286    0.128895    0.001884
 ---------------------------------------------------------------------

 SCF Done:  E(RHF) =  -39.9668516211     A.U. after    9 cycles

 The electronic state is 1-A.
 Alpha  occ. eigenvalues --  -11.15959  -0.93560  -0.55671  -0.55207  -0.50256
 Alpha virt. eigenvalues --    0.28242   0.32085   0.35287   0.35689   0.91872
 Alpha virt. eigenvalues --    0.92784   0.97738   1.24962   1.31522   1.35868
 Alpha virt. eigenvalues --    1.36898   1.94411

 Mulliken charges:
               1
     1  C   -0.767767
     2  H    0.201252
     3  H    0.207190
     4  H    0.207142
     5  H    0.152183
 Sum of Mulliken charges =   0.00000

 Dipole moment (field-independent basis, Debye):
    X=              0.0634    Y=             -0.0195    Z=              0.0001  Tot=              0.0664
 Quadrupole moment (field-independent basis, Debye-Ang):
   XX=             -8.6712   YY=             -8.3994   ZZ=             -8.4098
   XY=              0.0342   XZ=              0.0012   YZ=              0.0003

 Normal termination of Gaussian 16 at Fri Sep 22 17:18:57 2023.
