 Gaussian 16, Revision A.03,
 Gaussian 16:  ES64L-G16RevA.03 25-Dec-2016

 ----------
 # hf/3-21g
 ----------

 -----------------------
 tmpdir/M2_conf_73_0.gjf
 -----------------------
 Symbolic Z-matrix:
 Charge =  0 Multiplicity = 1

                         Standard orientation:
 ---------------------------------------------------------------------
 Center     Atomic      Atomic             Coordinates (Angstroms)
 Number     Number       Type             X           Y           Z
 ---------------------------------------------------------------------
      1          6           0       -0.032210    0.000055    0.009076
      2          1           0       -0.193305   -0.002132    1.017892
      3          1           0       -0.392068    0.894895   -0.462505
      4          1           0       -0.397021   -0.890477   -0.466813
      5          1           0        1.175652   -0.002619   -0.143027
 ---------------------------------------------------------------------

 SCF Done:  E(RHF) =  -39.9643562085     A.U. after    9 cycles

 The electronic state is 1-A.
 Alpha  occ. eigenvalues --  -11.15121  -0.94414  -0.56772  -0.55562  -0.50286
 Alpha virt. eigenvalues --    0.28465   0.32490   0.35683   0.36829   0.89558
 Alpha virt. eigenvalues --    0.92047   0.97551   1.25278   1.33717   1.37043
 Alpha virt. eigenvalues --    1.41409   1.95369

 Mulliken charges:
               1
     1  C   -0.777015
     2  H    0.219062
     3  H    0.204424
     4  H    0.204419
     5  H    0.149109
 Sum of Mulliken charges =   0.00000

 Dipole moment (field-independent basis, Debye):
    X=             -0.0801    Y=              0.0002    Z=              0.0387  Tot=              0.0890
 Quadrupole moment (field-independent basis, Debye-Ang):
   XX=             -8.6024   YY=             -8.3382   ZZ=             -8.3828
   XY=              0.0012   XZ=              0.0358   YZ=             -0.0004

 Normal termination of Gaussian 16 at Fri Sep 22 17:15:56 2023.
