 Gaussian 16, Revision A.03,
 Gaussian 16:  ES64L-G16RevA.03 25-Dec-2016

 ----------
 # hf/3-21g
 ----------

 ------------------------
 tmpdir/M2_conf_141_7.gjf
 ------------------------
 Symbolic Z-matrix:
 Charge =  0 Multiplicity = 1

                         Standard orientation:
 ---------------------------------------------------------------------
 Center     Atomic      Atomic             Coordinates (Angstroms)
 Number     Number       Type             X           Y           Z
 ---------------------------------------------------------------------
      1          1           0       -1.042707    0.103651   -0.332532
      2          6           0       -0.023461   -0.028476   -0.022216
      3          1           0        0.752119   -0.318421   -0.705604
      4          1           0        0.066452   -0.679662    0.826339
      5          1           0        0.364901    1.065288    0.345094
 ---------------------------------------------------------------------

 SCF Done:  E(RHF) =  -39.9627853402     A.U. after    9 cycles

 The electronic state is 1-A.
 Alpha  occ. eigenvalues --  -11.15753  -0.93842  -0.57537  -0.54259  -0.49604
 Alpha virt. eigenvalues --    0.28321   0.31723   0.35065   0.36411   0.90616
 Alpha virt. eigenvalues --    0.94386   0.97336   1.25302   1.31632   1.35759
 Alpha virt. eigenvalues --    1.38944   1.94586

 Mulliken charges:
               1
     1  H    0.211001
     2  C   -0.777510
     3  H    0.210981
     4  H    0.206125
     5  H    0.149403
 Sum of Mulliken charges =   0.00000

 Dipole moment (field-independent basis, Debye):
    X=              0.0311    Y=             -0.0663    Z=              0.0177  Tot=              0.0753
 Quadrupole moment (field-independent basis, Debye-Ang):
   XX=             -8.0973   YY=             -8.6396   ZZ=             -8.7235
   XY=             -0.1462   XZ=             -0.0376   YZ=             -0.1327

 Normal termination of Gaussian 16 at Fri Sep 22 17:17:38 2023.
