 Gaussian 16, Revision A.03,
 Gaussian 16:  ES64L-G16RevA.03 25-Dec-2016

 ----------
 # hf/3-21g
 ----------

 ------------------------
 tmpdir/M2_conf_289_7.gjf
 ------------------------
 Symbolic Z-matrix:
 Charge =  0 Multiplicity = 1

                         Standard orientation:
 ---------------------------------------------------------------------
 Center     Atomic      Atomic             Coordinates (Angstroms)
 Number     Number       Type             X           Y           Z
 ---------------------------------------------------------------------
      1          1           0       -0.496650    0.906253   -0.349883
      2          6           0       -0.034174   -0.001953   -0.012401
      3          1           0        0.036595   -0.809406   -0.716417
      4          1           0       -0.459161   -0.363147    0.904714
      5          1           0        1.124263    0.278020    0.235990
 ---------------------------------------------------------------------

 SCF Done:  E(RHF) =  -39.9657728145     A.U. after    9 cycles

 The electronic state is 1-A.
 Alpha  occ. eigenvalues --  -11.15736  -0.93791  -0.56584  -0.54936  -0.49994
 Alpha virt. eigenvalues --    0.28332   0.32049   0.35375   0.36049   0.91222
 Alpha virt. eigenvalues --    0.92990   0.97454   1.25194   1.32089   1.36291
 Alpha virt. eigenvalues --    1.37895   1.94661

 Mulliken charges:
               1
     1  H    0.208213
     2  C   -0.772540
     3  H    0.207886
     4  H    0.206143
     5  H    0.150298
 Sum of Mulliken charges =  -0.00000

 Dipole moment (field-independent basis, Debye):
    X=             -0.0522    Y=             -0.0388    Z=              0.0048  Tot=              0.0652
 Quadrupole moment (field-independent basis, Debye-Ang):
   XX=             -8.6376   YY=             -8.2658   ZZ=             -8.5432
   XY=             -0.1229   XZ=             -0.0923   YZ=             -0.0261

 Normal termination of Gaussian 16 at Fri Sep 22 17:21:33 2023.
