 Gaussian 16, Revision A.03,
 Gaussian 16:  ES64L-G16RevA.03 25-Dec-2016

 ----------
 # hf/3-21g
 ----------

 ------------------------
 tmpdir/M2_conf_285_3.gjf
 ------------------------
 Symbolic Z-matrix:
 Charge =  0 Multiplicity = 1

                         Standard orientation:
 ---------------------------------------------------------------------
 Center     Atomic      Atomic             Coordinates (Angstroms)
 Number     Number       Type             X           Y           Z
 ---------------------------------------------------------------------
      1          6           0       -2.503772    0.000007    0.000008
      2         17           0        1.378528   -0.000007   -0.000002
      3          1           0       -2.804140   -0.278197    0.992265
      4          1           0       -2.803829    0.998714   -0.255263
      5          1           0       -2.804376   -0.720439   -0.737023
 ---------------------------------------------------------------------

 SCF Done:  E(RHF) =  -496.494193973     A.U. after   10 cycles

 The electronic state is 1-A.
 Alpha  occ. eigenvalues -- -103.98483 -11.38952 -10.37263  -7.83583  -7.83405
 Alpha  occ. eigenvalues --   -7.83405  -1.07104  -0.92477  -0.72347  -0.72342
 Alpha  occ. eigenvalues --   -0.34428  -0.34428  -0.30653
 Alpha virt. eigenvalues --   -0.11779   0.19514   0.24105   0.24109   0.74888
 Alpha virt. eigenvalues --    0.78368   0.78381   0.83540   0.90258   0.90258
 Alpha virt. eigenvalues --    0.94989   1.09128   1.20910   1.20920   1.61446

 Mulliken charges:
               1
     1  C   -0.336354
     2  Cl  -0.608765
     3  H    0.315042
     4  H    0.315051
     5  H    0.315025
 Sum of Mulliken charges =  -0.00000

 Dipole moment (field-independent basis, Debye):
    X=            -11.7390    Y=              0.0001    Z=              0.0000  Tot=             11.7390
 Quadrupole moment (field-independent basis, Debye-Ang):
   XX=             -4.1200   YY=            -20.3782   ZZ=            -20.3798
   XY=              0.0002   XZ=              0.0000   YZ=             -0.0001

 Normal termination of Gaussian 16 at Fri Sep 22 17:21:26 2023.
