 Gaussian 16, Revision A.03,
 Gaussian 16:  ES64L-G16RevA.03 25-Dec-2016

 ----------
 # hf/3-21g
 ----------

 ------------------------
 tmpdir/M2_conf_227_1.gjf
 ------------------------
 Symbolic Z-matrix:
 Charge =  0 Multiplicity = 1

                         Standard orientation:
 ---------------------------------------------------------------------
 Center     Atomic      Atomic             Coordinates (Angstroms)
 Number     Number       Type             X           Y           Z
 ---------------------------------------------------------------------
      1          6           0       -0.016240   -0.025708    0.000059
      2          1           0       -1.010826    0.553995   -0.001883
      3          1           0        0.120473   -0.603882    0.894042
      4          1           0        0.121456   -0.608671   -0.890895
      5          1           0        0.866339    0.812807   -0.001617
 ---------------------------------------------------------------------

 SCF Done:  E(RHF) =  -39.9639360094     A.U. after    9 cycles

 The electronic state is 1-A.
 Alpha  occ. eigenvalues --  -11.16627  -0.93019  -0.55769  -0.54037  -0.50168
 Alpha virt. eigenvalues --    0.27924   0.31479   0.34374   0.35686   0.91747
 Alpha virt. eigenvalues --    0.94794   0.98535   1.24434   1.28027   1.34426
 Alpha virt. eigenvalues --    1.36748   1.93767

 Mulliken charges:
               1
     1  C   -0.757995
     2  H    0.185522
     3  H    0.209053
     4  H    0.208997
     5  H    0.154423
 Sum of Mulliken charges =   0.00000

 Dipole moment (field-independent basis, Debye):
    X=              0.0009    Y=             -0.0705    Z=              0.0003  Tot=              0.0705
 Quadrupole moment (field-independent basis, Debye-Ang):
   XX=             -8.5646   YY=             -8.5696   ZZ=             -8.4645
   XY=             -0.1593   XZ=              0.0002   YZ=              0.0004

 Normal termination of Gaussian 16 at Fri Sep 22 17:19:53 2023.
