 Gaussian 16, Revision A.03,
 Gaussian 16:  ES64L-G16RevA.03 25-Dec-2016

 ----------
 # hf/3-21g
 ----------

 ------------------------
 tmpdir/M2_conf_148_1.gjf
 ------------------------
 Symbolic Z-matrix:
 Charge =  0 Multiplicity = 1

                         Standard orientation:
 ---------------------------------------------------------------------
 Center     Atomic      Atomic             Coordinates (Angstroms)
 Number     Number       Type             X           Y           Z
 ---------------------------------------------------------------------
      1          6           0       -0.032091   -0.000060    0.005617
      2          1           0       -0.235037   -0.005004    1.030301
      3          1           0       -0.375545   -0.890604   -0.485456
      4          1           0       -0.377490    0.894321   -0.477485
      5          1           0        1.180621    0.001650   -0.101062
 ---------------------------------------------------------------------

 SCF Done:  E(RHF) =  -39.9660586231     A.U. after    9 cycles

 The electronic state is 1-A.
 Alpha  occ. eigenvalues --  -11.15386  -0.94119  -0.56271  -0.55592  -0.50282
 Alpha virt. eigenvalues --    0.28408   0.32394   0.35685   0.36311   0.90614
 Alpha virt. eigenvalues --    0.91980   0.97566   1.25194   1.33314   1.37004
 Alpha virt. eigenvalues --    1.39192   1.95029

 Mulliken charges:
               1
     1  C   -0.774453
     2  H    0.213624
     3  H    0.205384
     4  H    0.205329
     5  H    0.150115
 Sum of Mulliken charges =  -0.00000

 Dipole moment (field-independent basis, Debye):
    X=             -0.0768    Y=             -0.0003    Z=              0.0232  Tot=              0.0802
 Quadrupole moment (field-independent basis, Debye-Ang):
   XX=             -8.6271   YY=             -8.3621   ZZ=             -8.3852
   XY=             -0.0005   XZ=              0.0264   YZ=             -0.0001

 Normal termination of Gaussian 16 at Fri Sep 22 17:17:49 2023.
