 Gaussian 16, Revision A.03,
 Gaussian 16:  ES64L-G16RevA.03 25-Dec-2016

 ----------
 # hf/3-21g
 ----------

 ------------------------
 tmpdir/M2_conf_137_0.gjf
 ------------------------
 Symbolic Z-matrix:
 Charge =  0 Multiplicity = 1

                         Standard orientation:
 ---------------------------------------------------------------------
 Center     Atomic      Atomic             Coordinates (Angstroms)
 Number     Number       Type             X           Y           Z
 ---------------------------------------------------------------------
      1          6           0        0.001677   -0.030739    0.000057
      2          1           0        1.185093    0.230928    0.000914
      3          1           0       -0.307165   -0.539887    0.893370
      4          1           0       -0.304709   -0.543526   -0.892009
      5          1           0       -0.583280    1.036918   -0.002615
 ---------------------------------------------------------------------

 SCF Done:  E(RHF) =  -39.9576401524     A.U. after    9 cycles

 The electronic state is 1-A.
 Alpha  occ. eigenvalues --  -11.17315  -0.92565  -0.55890  -0.52969  -0.49930
 Alpha virt. eigenvalues --    0.27318   0.30650   0.33802   0.35681   0.91646
 Alpha virt. eigenvalues --    0.95674   1.00521   1.22595   1.25746   1.33735
 Alpha virt. eigenvalues --    1.36571   1.93069

 Mulliken charges:
               1
     1  C   -0.745604
     2  H    0.167768
     3  H    0.210650
     4  H    0.210649
     5  H    0.156537
 Sum of Mulliken charges =   0.00000

 Dipole moment (field-independent basis, Debye):
    X=             -0.0741    Y=             -0.0725    Z=              0.0001  Tot=              0.1036
 Quadrupole moment (field-independent basis, Debye-Ang):
   XX=             -8.4875   YY=             -8.7114   ZZ=             -8.5177
   XY=              0.1380   XZ=             -0.0008   YZ=              0.0009

 Normal termination of Gaussian 16 at Fri Sep 22 17:17:32 2023.
