 Gaussian 16, Revision A.03,
 Gaussian 16:  ES64L-G16RevA.03 25-Dec-2016

 ----------
 # hf/3-21g
 ----------

 -----------------------
 tmpdir/M2_conf_52_2.gjf
 -----------------------
 Symbolic Z-matrix:
 Charge =  0 Multiplicity = 1

                         Standard orientation:
 ---------------------------------------------------------------------
 Center     Atomic      Atomic             Coordinates (Angstroms)
 Number     Number       Type             X           Y           Z
 ---------------------------------------------------------------------
      1          6           0        0.014164   -0.026880   -0.000015
      2          1           0        1.046540    0.496787   -0.003139
      3          1           0       -0.153667   -0.597966    0.893233
      4          1           0       -0.159335   -0.598744   -0.891919
      5          1           0       -0.818521    0.861202    0.001916
 ---------------------------------------------------------------------

 SCF Done:  E(RHF) =  -39.9634081403     A.U. after    9 cycles

 The electronic state is 1-A.
 Alpha  occ. eigenvalues --  -11.16700  -0.92966  -0.55784  -0.53909  -0.50154
 Alpha virt. eigenvalues --    0.27875   0.31399   0.34293   0.35687   0.91739
 Alpha virt. eigenvalues --    0.94939   0.98697   1.24328   1.27671   1.34331
 Alpha virt. eigenvalues --    1.36733   1.93696

 Mulliken charges:
               1
     1  C   -0.756786
     2  H    0.183699
     3  H    0.209241
     4  H    0.209191
     5  H    0.154654
 Sum of Mulliken charges =   0.00000

 Dipole moment (field-independent basis, Debye):
    X=             -0.0099    Y=             -0.0722    Z=              0.0001  Tot=              0.0729
 Quadrupole moment (field-independent basis, Debye-Ang):
   XX=             -8.5476   YY=             -8.5940   ZZ=             -8.4698
   XY=              0.1595   XZ=              0.0011   YZ=             -0.0006

 Normal termination of Gaussian 16 at Fri Sep 22 17:15:25 2023.
