 Gaussian 16, Revision A.03,
 Gaussian 16:  ES64L-G16RevA.03 25-Dec-2016

 ----------
 # hf/3-21g
 ----------

 ------------------------
 tmpdir/M2_conf_249_0.gjf
 ------------------------
 Symbolic Z-matrix:
 Charge =  0 Multiplicity = 1

                         Standard orientation:
 ---------------------------------------------------------------------
 Center     Atomic      Atomic             Coordinates (Angstroms)
 Number     Number       Type             X           Y           Z
 ---------------------------------------------------------------------
      1          6           0        0.011655   -0.028054    0.000056
      2          1           0        1.082580    0.432606    0.001335
      3          1           0       -0.196525   -0.586312    0.893159
      4          1           0       -0.192871   -0.588962   -0.892219
      5          1           0       -0.763112    0.910990   -0.002614
 ---------------------------------------------------------------------

 SCF Done:  E(RHF) =  -39.9626837915     A.U. after    9 cycles

 The electronic state is 1-A.
 Alpha  occ. eigenvalues --  -11.16796  -0.92897  -0.55798  -0.53753  -0.50131
 Alpha virt. eigenvalues --    0.27809   0.31289   0.34198   0.35684   0.91730
 Alpha virt. eigenvalues --    0.95113   0.98919   1.24166   1.27244   1.34214
 Alpha virt. eigenvalues --    1.36703   1.93602

 Mulliken charges:
               1
     1  C   -0.755175
     2  H    0.181350
     3  H    0.209433
     4  H    0.209432
     5  H    0.154960
 Sum of Mulliken charges =   0.00000

 Dipole moment (field-independent basis, Debye):
    X=             -0.0207    Y=             -0.0732    Z=              0.0001  Tot=              0.0761
 Quadrupole moment (field-independent basis, Debye-Ang):
   XX=             -8.5311   YY=             -8.6198   ZZ=             -8.4771
   XY=              0.1574   XZ=             -0.0010   YZ=              0.0008

 Normal termination of Gaussian 16 at Fri Sep 22 17:20:27 2023.
