 Gaussian 16, Revision A.03,
 Gaussian 16:  ES64L-G16RevA.03 25-Dec-2016

 ----------
 # hf/3-21g
 ----------

 -----------------------
 tmpdir/M2_conf_69_8.gjf
 -----------------------
 Symbolic Z-matrix:
 Charge =  0 Multiplicity = 1

                         Standard orientation:
 ---------------------------------------------------------------------
 Center     Atomic      Atomic             Coordinates (Angstroms)
 Number     Number       Type             X           Y           Z
 ---------------------------------------------------------------------
      1          1           0       -1.248789   -0.003474    1.067060
      2          6           0       -1.203362    0.000005   -0.005573
      3         17           0        0.688537    0.000037   -0.009696
      4          1           0       -1.617975   -0.891065   -0.437163
      5          1           0       -1.618192    0.893877   -0.431633
 ---------------------------------------------------------------------

 SCF Done:  E(RHF) =  -496.681338969     A.U. after   11 cycles

 The electronic state is 1-A.
 Alpha  occ. eigenvalues -- -104.08856 -11.24968 -10.48251  -7.94624  -7.94219
 Alpha  occ. eigenvalues --   -7.94216  -1.11496  -0.93279  -0.63576  -0.63176
 Alpha  occ. eigenvalues --   -0.51044  -0.43933  -0.43426
 Alpha virt. eigenvalues --    0.16116   0.27385   0.31389   0.31463   0.73927
 Alpha virt. eigenvalues --    0.79933   0.81057   0.85641   0.92442   0.95297
 Alpha virt. eigenvalues --    1.00376   1.30510   1.31169   1.32360   1.90779

 Mulliken charges:
               1
     1  H    0.278713
     2  C   -0.704703
     3  Cl  -0.107471
     4  H    0.266754
     5  H    0.266707
 Sum of Mulliken charges =   0.00000

 Dipole moment (field-independent basis, Debye):
    X=             -2.8401    Y=             -0.0006    Z=              0.1395  Tot=              2.8435
 Quadrupole moment (field-independent basis, Debye-Ang):
   XX=            -18.5464   YY=            -20.1837   ZZ=            -20.2802
   XY=             -0.0012   XZ=              0.3620   YZ=              0.0000

 Normal termination of Gaussian 16 at Fri Sep 22 17:15:50 2023.
