 Gaussian 16, Revision A.03,
 Gaussian 16:  ES64L-G16RevA.03 25-Dec-2016

 ----------
 # hf/3-21g
 ----------

 ------------------------
 tmpdir/M2_conf_222_9.gjf
 ------------------------
 Symbolic Z-matrix:
 Charge =  0 Multiplicity = 1

                         Standard orientation:
 ---------------------------------------------------------------------
 Center     Atomic      Atomic             Coordinates (Angstroms)
 Number     Number       Type             X           Y           Z
 ---------------------------------------------------------------------
      1          1           0        1.277398   -0.009467    1.066084
      2          6           0        1.203150    0.000049   -0.004903
      3         17           0       -0.688751    0.000072   -0.008682
      4          1           0        1.606345   -0.888530   -0.452181
      5          1           0        1.606124    0.896485   -0.436898
 ---------------------------------------------------------------------

 SCF Done:  E(RHF) =  -496.683096060     A.U. after   11 cycles

 The electronic state is 1-A.
 Alpha  occ. eigenvalues -- -104.08837 -11.24977 -10.48231  -7.94604  -7.94199
 Alpha  occ. eigenvalues --   -7.94197  -1.11448  -0.93292  -0.63512  -0.63184
 Alpha  occ. eigenvalues --   -0.51098  -0.43903  -0.43478
 Alpha virt. eigenvalues --    0.16215   0.27370   0.31381   0.31451   0.73907
 Alpha virt. eigenvalues --    0.80015   0.81057   0.85643   0.92477   0.95128
 Alpha virt. eigenvalues --    1.00227   1.30635   1.31174   1.32364   1.91042

 Mulliken charges:
               1
     1  H    0.277744
     2  C   -0.704365
     3  Cl  -0.107298
     4  H    0.266972
     5  H    0.266946
 Sum of Mulliken charges =  -0.00000

 Dipole moment (field-independent basis, Debye):
    X=              2.8459    Y=             -0.0012    Z=              0.1235  Tot=              2.8486
 Quadrupole moment (field-independent basis, Debye-Ang):
   XX=            -18.5506   YY=            -20.1833   ZZ=            -20.2591
   XY=              0.0024   XZ=             -0.3240   YZ=             -0.0001

 Normal termination of Gaussian 16 at Fri Sep 22 17:19:46 2023.
