 Gaussian 16, Revision A.03,
 Gaussian 16:  ES64L-G16RevA.03 25-Dec-2016

 ----------
 # hf/3-21g
 ----------

 -----------------------
 tmpdir/M2_conf_33_4.gjf
 -----------------------
 Symbolic Z-matrix:
 Charge =  0 Multiplicity = 1

                         Standard orientation:
 ---------------------------------------------------------------------
 Center     Atomic      Atomic             Coordinates (Angstroms)
 Number     Number       Type             X           Y           Z
 ---------------------------------------------------------------------
      1          1           0        0.348840   -0.307295    0.975051
      2          6           0        0.030285    0.004361   -0.001464
      3          1           0        0.411939   -0.652511   -0.760059
      4          1           0        0.239467    1.040308   -0.190305
      5          1           0       -1.181959   -0.106671   -0.015905
 ---------------------------------------------------------------------

 SCF Done:  E(RHF) =  -39.9669861053     A.U. after    9 cycles

 The electronic state is 1-A.
 Alpha  occ. eigenvalues --  -11.15723  -0.93778  -0.55851  -0.55349  -0.50338
 Alpha virt. eigenvalues --    0.28310   0.32265   0.35577   0.35776   0.91644
 Alpha virt. eigenvalues --    0.92141   0.97708   1.25028   1.32538   1.36670
 Alpha virt. eigenvalues --    1.37162   1.94625

 Mulliken charges:
               1
     1  H    0.206074
     2  C   -0.770617
     3  H    0.206234
     4  H    0.206594
     5  H    0.151715
 Sum of Mulliken charges =  -0.00000

 Dipole moment (field-independent basis, Debye):
    X=              0.0750    Y=              0.0013    Z=              0.0089  Tot=              0.0756
 Quadrupole moment (field-independent basis, Debye-Ang):
   XX=             -8.6362   YY=             -8.3609   ZZ=             -8.4390
   XY=             -0.0435   XZ=             -0.0083   YZ=             -0.0003

 Normal termination of Gaussian 16 at Fri Sep 22 17:14:57 2023.
