 Gaussian 16, Revision A.03,
 Gaussian 16:  ES64L-G16RevA.03 25-Dec-2016

 ----------
 # hf/3-21g
 ----------

 ------------------------
 tmpdir/M2_conf_136_4.gjf
 ------------------------
 Symbolic Z-matrix:
 Charge =  0 Multiplicity = 1

                         Standard orientation:
 ---------------------------------------------------------------------
 Center     Atomic      Atomic             Coordinates (Angstroms)
 Number     Number       Type             X           Y           Z
 ---------------------------------------------------------------------
      1          1           0       -0.656972    0.799379   -0.349990
      2          6           0       -0.033759   -0.007541   -0.014321
      3          1           0        0.214970   -0.780953   -0.716168
      4          1           0       -0.398799   -0.460104    0.888195
      5          1           0        1.043355    0.486924    0.263891
 ---------------------------------------------------------------------

 SCF Done:  E(RHF) =  -39.9653961803     A.U. after    9 cycles

 The electronic state is 1-A.
 Alpha  occ. eigenvalues --  -11.15739  -0.93797  -0.56750  -0.54815  -0.49936
 Alpha virt. eigenvalues --    0.28331   0.32005   0.35317   0.36115   0.91118
 Alpha virt. eigenvalues --    0.93195   0.97431   1.25215   1.32021   1.36179
 Alpha virt. eigenvalues --    1.38074   1.94653

 Mulliken charges:
               1
     1  H    0.208658
     2  C   -0.773144
     3  H    0.208299
     4  H    0.206056
     5  H    0.150131
 Sum of Mulliken charges =  -0.00000

 Dipole moment (field-independent basis, Debye):
    X=             -0.0406    Y=             -0.0514    Z=              0.0062  Tot=              0.0658
 Quadrupole moment (field-independent basis, Debye-Ang):
   XX=             -8.5672   YY=             -8.3077   ZZ=             -8.5736
   XY=             -0.1980   XZ=             -0.0949   YZ=             -0.0487

 Normal termination of Gaussian 16 at Fri Sep 22 17:17:30 2023.
