 Gaussian 16, Revision A.03,
 Gaussian 16:  ES64L-G16RevA.03 25-Dec-2016

 ----------
 # hf/3-21g
 ----------

 ------------------------
 tmpdir/M2_conf_120_0.gjf
 ------------------------
 Symbolic Z-matrix:
 Charge =  0 Multiplicity = 1

                         Standard orientation:
 ---------------------------------------------------------------------
 Center     Atomic      Atomic             Coordinates (Angstroms)
 Number     Number       Type             X           Y           Z
 ---------------------------------------------------------------------
      1          6           0       -0.031715    0.000059    0.000620
      2          1           0       -0.320209   -0.036103    1.030983
      3          1           0       -0.334971    0.911339   -0.479201
      4          1           0       -0.340142   -0.872900   -0.542906
      5          1           0        1.185614   -0.002688   -0.012597
 ---------------------------------------------------------------------

 SCF Done:  E(RHF) =  -39.9669177562     A.U. after    9 cycles

 The electronic state is 1-A.
 Alpha  occ. eigenvalues --  -11.15693  -0.93808  -0.55698  -0.55632  -0.50271
 Alpha virt. eigenvalues --    0.28328   0.32249   0.35685   0.35746   0.91787
 Alpha virt. eigenvalues --    0.91931   0.97627   1.25081   1.32559   1.36943
 Alpha virt. eigenvalues --    1.37129   1.94685

 Mulliken charges:
               1
     1  C   -0.771068
     2  H    0.207188
     3  H    0.206323
     4  H    0.206319
     5  H    0.151239
 Sum of Mulliken charges =  -0.00000

 Dipole moment (field-independent basis, Debye):
    X=             -0.0716    Y=              0.0001    Z=              0.0026  Tot=              0.0716
 Quadrupole moment (field-independent basis, Debye-Ang):
   XX=             -8.6543   YY=             -8.3873   ZZ=             -8.3901
   XY=              0.0012   XZ=              0.0031   YZ=             -0.0003

 Normal termination of Gaussian 16 at Fri Sep 22 17:17:07 2023.
