 Gaussian 16, Revision A.03,
 Gaussian 16:  ES64L-G16RevA.03 25-Dec-2016

 ----------
 # hf/3-21g
 ----------

 ------------------------
 tmpdir/M2_conf_206_9.gjf
 ------------------------
 Symbolic Z-matrix:
 Charge =  0 Multiplicity = 1

                         Standard orientation:
 ---------------------------------------------------------------------
 Center     Atomic      Atomic             Coordinates (Angstroms)
 Number     Number       Type             X           Y           Z
 ---------------------------------------------------------------------
      1          1           0        1.017617   -0.002208    1.044018
      2          6           0        1.205958    0.000025   -0.012930
      3         17           0       -0.685943    0.000034   -0.016684
      4          1           0        1.703861   -0.891800   -0.342988
      5          1           0        1.703798    0.893278   -0.339827
 ---------------------------------------------------------------------

 SCF Done:  E(RHF) =  -496.657751877     A.U. after   11 cycles

 The electronic state is 1-A.
 Alpha  occ. eigenvalues -- -104.09141 -11.24805 -10.48570  -7.94937  -7.94528
 Alpha  occ. eigenvalues --   -7.94517  -1.12210  -0.93111  -0.64264  -0.63110
 Alpha  occ. eigenvalues --   -0.50560  -0.44313  -0.42716
 Alpha virt. eigenvalues --    0.14961   0.27699   0.31490   0.31603   0.74116
 Alpha virt. eigenvalues --    0.79245   0.80791   0.85119   0.93220   0.96580
 Alpha virt. eigenvalues --    1.01670   1.29120   1.31207   1.32030   1.87693

 Mulliken charges:
               1
     1  H    0.286006
     2  C   -0.707725
     3  Cl  -0.110583
     4  H    0.266166
     5  H    0.266136
 Sum of Mulliken charges =  -0.00000

 Dipole moment (field-independent basis, Debye):
    X=              2.7525    Y=             -0.0006    Z=              0.2750  Tot=              2.7662
 Quadrupole moment (field-independent basis, Debye-Ang):
   XX=            -18.5141   YY=            -20.1764   ZZ=            -20.5476
   XY=              0.0011   XZ=             -0.6175   YZ=             -0.0001

 Normal termination of Gaussian 16 at Fri Sep 22 17:19:22 2023.
