 Gaussian 16, Revision A.03,
 Gaussian 16:  ES64L-G16RevA.03 25-Dec-2016

 ----------
 # hf/3-21g
 ----------

 ------------------------
 tmpdir/M2_conf_119_7.gjf
 ------------------------
 Symbolic Z-matrix:
 Charge =  0 Multiplicity = 1

                         Standard orientation:
 ---------------------------------------------------------------------
 Center     Atomic      Atomic             Coordinates (Angstroms)
 Number     Number       Type             X           Y           Z
 ---------------------------------------------------------------------
      1          1           0       -1.053754    0.048416   -0.321325
      2          6           0       -0.024561   -0.029398   -0.025819
      3          1           0        0.785246   -0.248411   -0.695781
      4          1           0        0.115758   -0.698596    0.801622
      5          1           0        0.300115    1.074982    0.370400
 ---------------------------------------------------------------------

 SCF Done:  E(RHF) =  -39.9609956364     A.U. after    9 cycles

 The electronic state is 1-A.
 Alpha  occ. eigenvalues --  -11.15761  -0.93873  -0.57923  -0.54001  -0.49402
 Alpha virt. eigenvalues --    0.28309   0.31539   0.34950   0.36554   0.90408
 Alpha virt. eigenvalues --    0.95059   0.97304   1.25330   1.31432   1.35580
 Alpha virt. eigenvalues --    1.39401   1.94538

 Mulliken charges:
               1
     1  H    0.212501
     2  C   -0.780582
     3  H    0.212801
     4  H    0.206196
     5  H    0.149084
 Sum of Mulliken charges =   0.00000

 Dipole moment (field-independent basis, Debye):
    X=              0.0460    Y=             -0.0649    Z=              0.0242  Tot=              0.0832
 Quadrupole moment (field-independent basis, Debye-Ang):
   XX=             -8.0115   YY=             -8.6570   ZZ=             -8.7991
   XY=             -0.1202   XZ=             -0.0308   YZ=             -0.1443

 Normal termination of Gaussian 16 at Fri Sep 22 17:17:05 2023.
