 Gaussian 16, Revision A.03,
 Gaussian 16:  ES64L-G16RevA.03 25-Dec-2016

 ----------
 # hf/3-21g
 ----------

 ------------------------
 tmpdir/M2_conf_165_1.gjf
 ------------------------
 Symbolic Z-matrix:
 Charge =  0 Multiplicity = 1

                         Standard orientation:
 ---------------------------------------------------------------------
 Center     Atomic      Atomic             Coordinates (Angstroms)
 Number     Number       Type             X           Y           Z
 ---------------------------------------------------------------------
      1          6           0       -0.032160   -0.000060    0.007450
      2          1           0       -0.210662   -0.003557    1.025006
      3          1           0       -0.386138   -0.891329   -0.474753
      4          1           0       -0.388172    0.893605   -0.469230
      5          1           0        1.177930    0.001643   -0.125724
 ---------------------------------------------------------------------

 SCF Done:  E(RHF) =  -39.9653257306     A.U. after    9 cycles

 The electronic state is 1-A.
 Alpha  occ. eigenvalues --  -11.15252  -0.94264  -0.56524  -0.55576  -0.50284
 Alpha virt. eigenvalues --    0.28438   0.32447   0.35685   0.36569   0.90087
 Alpha virt. eigenvalues --    0.92007   0.97555   1.25238   1.33542   1.37027
 Alpha virt. eigenvalues --    1.40265   1.95195

 Mulliken charges:
               1
     1  C   -0.775794
     2  H    0.216374
     3  H    0.204932
     4  H    0.204877
     5  H    0.149610
 Sum of Mulliken charges =  -0.00000

 Dipole moment (field-independent basis, Debye):
    X=             -0.0786    Y=             -0.0003    Z=              0.0312  Tot=              0.0845
 Quadrupole moment (field-independent basis, Debye-Ang):
   XX=             -8.6146   YY=             -8.3506   ZZ=             -8.3837
   XY=             -0.0005   XZ=              0.0325   YZ=             -0.0001

 Normal termination of Gaussian 16 at Fri Sep 22 17:18:14 2023.
