 Gaussian 16, Revision A.03,
 Gaussian 16:  ES64L-G16RevA.03 25-Dec-2016

 ----------
 # hf/3-21g
 ----------

 -----------------------
 tmpdir/M2_conf_29_2.gjf
 -----------------------
 Symbolic Z-matrix:
 Charge =  0 Multiplicity = 1

                         Standard orientation:
 ---------------------------------------------------------------------
 Center     Atomic      Atomic             Coordinates (Angstroms)
 Number     Number       Type             X           Y           Z
 ---------------------------------------------------------------------
      1          6           0        0.032271    0.000013    0.017385
      2          1           0        0.127596   -0.002048    0.969824
      3          1           0        0.423705   -0.890627   -0.436201
      4          1           0        0.419637    0.894526   -0.432523
      5          1           0       -1.164565   -0.001928   -0.205408
 ---------------------------------------------------------------------

 SCF Done:  E(RHF) =  -39.9537077783     A.U. after    9 cycles

 The electronic state is 1-A.
 Alpha  occ. eigenvalues --  -11.14386  -0.95373  -0.58199  -0.55490  -0.50289
 Alpha virt. eigenvalues --    0.28582   0.32673   0.35680   0.38319   0.86657
 Alpha virt. eigenvalues --    0.92201   0.97590   1.25472   1.34425   1.37150
 Alpha virt. eigenvalues --    1.48818   1.96677

 Mulliken charges:
               1
     1  C   -0.782377
     2  H    0.232874
     3  H    0.201703
     4  H    0.201660
     5  H    0.146139
 Sum of Mulliken charges =   0.00000

 Dipole moment (field-independent basis, Debye):
    X=              0.0870    Y=             -0.0000    Z=              0.0732  Tot=              0.1137
 Quadrupole moment (field-independent basis, Debye-Ang):
   XX=             -8.5311   YY=             -8.2712   ZZ=             -8.3702
   XY=             -0.0010   XZ=             -0.0486   YZ=             -0.0006

 Normal termination of Gaussian 16 at Fri Sep 22 17:14:50 2023.
