 Gaussian 16, Revision A.03,
 Gaussian 16:  ES64L-G16RevA.03 25-Dec-2016

 ----------
 # hf/3-21g
 ----------

 ------------------------
 tmpdir/M2_conf_220_6.gjf
 ------------------------
 Symbolic Z-matrix:
 Charge =  0 Multiplicity = 1

                         Standard orientation:
 ---------------------------------------------------------------------
 Center     Atomic      Atomic             Coordinates (Angstroms)
 Number     Number       Type             X           Y           Z
 ---------------------------------------------------------------------
      1          1           0       -0.966297   -0.001227    1.031059
      2          6           0       -1.206761    0.000029   -0.015059
      3         17           0        0.685142    0.000014   -0.017876
      4          1           0       -1.720124    0.893097   -0.317548
      5          1           0       -1.720423   -0.892282   -0.319263
 ---------------------------------------------------------------------

 SCF Done:  E(RHF) =  -496.649839138     A.U. after   11 cycles

 The electronic state is 1-A.
 Alpha  occ. eigenvalues -- -104.09245 -11.24731 -10.48691  -7.95056  -7.94645
 Alpha  occ. eigenvalues --   -7.94631  -1.12474  -0.93051  -0.64468  -0.63082
 Alpha  occ. eigenvalues --   -0.50479  -0.44441  -0.42456
 Alpha virt. eigenvalues --    0.14630   0.27835   0.31530   0.31645   0.74152
 Alpha virt. eigenvalues --    0.79080   0.80696   0.84943   0.93519   0.96844
 Alpha virt. eigenvalues --    1.01941   1.28683   1.31229   1.31912   1.86830

 Mulliken charges:
               1
     1  H    0.287597
     2  C   -0.708589
     3  Cl  -0.111613
     4  H    0.266307
     5  H    0.266297
 Sum of Mulliken charges =   0.00000

 Dipole moment (field-independent basis, Debye):
    X=             -2.7194    Y=             -0.0003    Z=              0.3070  Tot=              2.7366
 Quadrupole moment (field-independent basis, Debye-Ang):
   XX=            -18.5130   YY=            -20.1717   ZZ=            -20.6289
   XY=             -0.0005   XZ=              0.6581   YZ=             -0.0001

 Normal termination of Gaussian 16 at Fri Sep 22 17:19:42 2023.
