 Gaussian 16, Revision A.03,
 Gaussian 16:  ES64L-G16RevA.03 25-Dec-2016

 ----------
 # hf/3-21g
 ----------

 ------------------------
 tmpdir/M2_conf_224_2.gjf
 ------------------------
 Symbolic Z-matrix:
 Charge =  0 Multiplicity = 1

                         Standard orientation:
 ---------------------------------------------------------------------
 Center     Atomic      Atomic             Coordinates (Angstroms)
 Number     Number       Type             X           Y           Z
 ---------------------------------------------------------------------
      1          6           0        0.032015    0.000015    0.003798
      2          1           0        0.265491   -0.013112    1.031940
      3          1           0        0.365184   -0.885008   -0.504072
      4          1           0        0.360385    0.899995   -0.480797
      5          1           0       -1.183151   -0.001965   -0.069857
 ---------------------------------------------------------------------

 SCF Done:  E(RHF) =  -39.9665068925     A.U. after    9 cycles

 The electronic state is 1-A.
 Alpha  occ. eigenvalues --  -11.15501  -0.93999  -0.56053  -0.55610  -0.50278
 Alpha virt. eigenvalues --    0.28380   0.32344   0.35688   0.36094   0.91058
 Alpha virt. eigenvalues --    0.91961   0.97582   1.25154   1.33076   1.36986
 Alpha virt. eigenvalues --    1.38347   1.94895

 Mulliken charges:
               1
     1  C   -0.773238
     2  H    0.211227
     3  H    0.205759
     4  H    0.205712
     5  H    0.150541
 Sum of Mulliken charges =  -0.00000

 Dipole moment (field-independent basis, Debye):
    X=              0.0752    Y=             -0.0001    Z=              0.0155  Tot=              0.0768
 Quadrupole moment (field-independent basis, Debye-Ang):
   XX=             -8.6379   YY=             -8.3714   ZZ=             -8.3868
   XY=             -0.0011   XZ=             -0.0175   YZ=             -0.0005

 Normal termination of Gaussian 16 at Fri Sep 22 17:19:49 2023.
