 Gaussian 16, Revision A.03,
 Gaussian 16:  ES64L-G16RevA.03 25-Dec-2016

 ----------
 # hf/3-21g
 ----------

 ----------------------
 tmpdir/M2_conf_5_1.gjf
 ----------------------
 Symbolic Z-matrix:
 Charge =  0 Multiplicity = 1

                         Standard orientation:
 ---------------------------------------------------------------------
 Center     Atomic      Atomic             Coordinates (Angstroms)
 Number     Number       Type             X           Y           Z
 ---------------------------------------------------------------------
      1          6           0       -0.027896   -0.012931    0.000059
      2          1           0       -0.645594    0.915566   -0.003465
      3          1           0       -0.160198   -0.590919    0.894825
      4          1           0       -0.160597   -0.598259   -0.890103
      5          1           0        1.133767    0.351199   -0.001610
 ---------------------------------------------------------------------

 SCF Done:  E(RHF) =  -39.9661791157     A.U. after    9 cycles

 The electronic state is 1-A.
 Alpha  occ. eigenvalues --  -11.16211  -0.93343  -0.55704  -0.54758  -0.50232
 Alpha virt. eigenvalues --    0.28143   0.31890   0.34902   0.35687   0.91821
 Alpha virt. eigenvalues --    0.93651   0.97925   1.24819   1.30252   1.35131
 Alpha virt. eigenvalues --    1.36842   1.94165

 Mulliken charges:
               1
     1  C   -0.764339
     2  H    0.195497
     3  H    0.207924
     4  H    0.207869
     5  H    0.153049
 Sum of Mulliken charges =   0.00000

 Dipole moment (field-independent basis, Debye):
    X=             -0.0483    Y=             -0.0428    Z=              0.0003  Tot=              0.0645
 Quadrupole moment (field-independent basis, Debye-Ang):
   XX=             -8.6653   YY=             -8.4293   ZZ=             -8.4310
   XY=             -0.0887   XZ=              0.0004   YZ=              0.0003

 Normal termination of Gaussian 16 at Fri Sep 22 17:14:14 2023.
