 Gaussian 16, Revision A.03,
 Gaussian 16:  ES64L-G16RevA.03 25-Dec-2016

 ----------
 # hf/3-21g
 ----------

 ------------------------
 tmpdir/M2_conf_225_4.gjf
 ------------------------
 Symbolic Z-matrix:
 Charge =  0 Multiplicity = 1

                         Standard orientation:
 ---------------------------------------------------------------------
 Center     Atomic      Atomic             Coordinates (Angstroms)
 Number     Number       Type             X           Y           Z
 ---------------------------------------------------------------------
      1          1           0       -0.347833    0.967503   -0.352810
      2          6           0       -0.033120    0.001274   -0.007059
      3          1           0       -0.179268   -0.800332   -0.706116
      4          1           0       -0.446411   -0.246029    0.952439
      5          1           0        1.172233    0.071214    0.148838
 ---------------------------------------------------------------------

 SCF Done:  E(RHF) =  -39.9665391820     A.U. after    9 cycles

 The electronic state is 1-A.
 Alpha  occ. eigenvalues --  -11.15730  -0.93780  -0.56137  -0.55265  -0.50136
 Alpha virt. eigenvalues --    0.28328   0.32150   0.35522   0.35880   0.91550
 Alpha virt. eigenvalues --    0.92438   0.97533   1.25135   1.32278   1.36575
 Alpha virt. eigenvalues --    1.37438   1.94668

 Mulliken charges:
               1
     1  H    0.207315
     2  C   -0.771318
     3  H    0.207026
     4  H    0.206200
     5  H    0.150777
 Sum of Mulliken charges =   0.00000

 Dipole moment (field-independent basis, Debye):
    X=             -0.0636    Y=             -0.0170    Z=              0.0007  Tot=              0.0658
 Quadrupole moment (field-independent basis, Debye-Ang):
   XX=             -8.6680   YY=             -8.3095   ZZ=             -8.4642
   XY=             -0.0339   XZ=             -0.0607   YZ=             -0.0053

 Normal termination of Gaussian 16 at Fri Sep 22 17:19:50 2023.
