 Gaussian 16, Revision A.03,
 Gaussian 16:  ES64L-G16RevA.03 25-Dec-2016

 ----------
 # hf/3-21g
 ----------

 ------------------------
 tmpdir/M2_conf_186_5.gjf
 ------------------------
 Symbolic Z-matrix:
 Charge =  0 Multiplicity = 1

                         Standard orientation:
 ---------------------------------------------------------------------
 Center     Atomic      Atomic             Coordinates (Angstroms)
 Number     Number       Type             X           Y           Z
 ---------------------------------------------------------------------
      1          1           0       -0.471375   -0.165166    0.943104
      2          6           0       -0.015820    0.022250   -0.010590
      3          1           0       -0.729576   -0.360980   -0.715078
      4          1           0        0.297431    1.042983   -0.122787
      5          1           0        0.998438   -0.650337   -0.041699
 ---------------------------------------------------------------------

 SCF Done:  E(RHF) =  -39.9649091902     A.U. after    9 cycles

 The electronic state is 1-A.
 Alpha  occ. eigenvalues --  -11.15720  -0.93839  -0.56989  -0.53808  -0.50613
 Alpha virt. eigenvalues --    0.28230   0.32338   0.34992   0.36192   0.90580
 Alpha virt. eigenvalues --    0.93281   0.98243   1.24824   1.32713   1.35370
 Alpha virt. eigenvalues --    1.38537   1.94279

 Mulliken charges:
               1
     1  H    0.204557
     2  C   -0.773140
     3  H    0.206617
     4  H    0.208062
     5  H    0.153904
 Sum of Mulliken charges =   0.00000

 Dipole moment (field-independent basis, Debye):
    X=             -0.1012    Y=              0.0218    Z=              0.0545  Tot=              0.1169
 Quadrupole moment (field-independent basis, Debye-Ang):
   XX=             -8.3403   YY=             -8.3990   ZZ=             -8.6956
   XY=              0.2201   XZ=              0.0236   YZ=             -0.0110

 Normal termination of Gaussian 16 at Fri Sep 22 17:18:51 2023.
