 Gaussian 16, Revision A.03,
 Gaussian 16:  ES64L-G16RevA.03 25-Dec-2016

 ----------
 # hf/3-21g
 ----------

 -----------------------
 tmpdir/M2_conf_74_5.gjf
 -----------------------
 Symbolic Z-matrix:
 Charge =  0 Multiplicity = 1

                         Standard orientation:
 ---------------------------------------------------------------------
 Center     Atomic      Atomic             Coordinates (Angstroms)
 Number     Number       Type             X           Y           Z
 ---------------------------------------------------------------------
      1          1           0        1.001104    0.286479   -0.341522
      2          6           0        0.025874   -0.024617   -0.018516
      3          1           0       -0.655166   -0.478762   -0.713178
      4          1           0        0.061825   -0.648542    0.854430
      5          1           0       -0.563007    0.988525    0.311368
 ---------------------------------------------------------------------

 SCF Done:  E(RHF) =  -39.9642230682     A.U. after    9 cycles

 The electronic state is 1-A.
 Alpha  occ. eigenvalues --  -11.15746  -0.93817  -0.57157  -0.54522  -0.49778
 Alpha virt. eigenvalues --    0.28328   0.31876   0.35183   0.36269   0.90853
 Alpha virt. eigenvalues --    0.93772   0.97376   1.25264   1.31831   1.35944
 Alpha virt. eigenvalues --    1.38517   1.94627

 Mulliken charges:
               1
     1  H    0.209787
     2  C   -0.775088
     3  H    0.209520
     4  H    0.206039
     5  H    0.149741
 Sum of Mulliken charges =  -0.00000

 Dipole moment (field-independent basis, Debye):
    X=             -0.0078    Y=             -0.0680    Z=              0.0118  Tot=              0.0694
 Quadrupole moment (field-independent basis, Debye-Ang):
   XX=             -8.2307   YY=             -8.5742   ZZ=             -8.6493
   XY=              0.2127   XZ=              0.0568   YZ=             -0.1112

 Normal termination of Gaussian 16 at Fri Sep 22 17:15:58 2023.
