 Gaussian 16, Revision A.03,
 Gaussian 16:  ES64L-G16RevA.03 25-Dec-2016

 ----------
 # hf/3-21g
 ----------

 ------------------------
 tmpdir/M2_conf_274_2.gjf
 ------------------------
 Symbolic Z-matrix:
 Charge =  0 Multiplicity = 1

                         Standard orientation:
 ---------------------------------------------------------------------
 Center     Atomic      Atomic             Coordinates (Angstroms)
 Number     Number       Type             X           Y           Z
 ---------------------------------------------------------------------
      1          6           0        0.032226    0.000014    0.008968
      2          1           0        0.195565   -0.004820    1.018124
      3          1           0        0.395720   -0.889230   -0.469902
      4          1           0        0.391278    0.895904   -0.461228
      5          1           0       -1.175922   -0.001938   -0.140804
 ---------------------------------------------------------------------

 SCF Done:  E(RHF) =  -39.9644212803     A.U. after    9 cycles

 The electronic state is 1-A.
 Alpha  occ. eigenvalues --  -11.15127  -0.94406  -0.56759  -0.55565  -0.50286
 Alpha virt. eigenvalues --    0.28464   0.32489   0.35686   0.36814   0.89590
 Alpha virt. eigenvalues --    0.92038   0.97549   1.25277   1.33717   1.37050
 Alpha virt. eigenvalues --    1.41339   1.95360

 Mulliken charges:
               1
     1  C   -0.776969
     2  H    0.218892
     3  H    0.204495
     4  H    0.204449
     5  H    0.149134
 Sum of Mulliken charges =  -0.00000

 Dipole moment (field-independent basis, Debye):
    X=              0.0801    Y=             -0.0001    Z=              0.0379  Tot=              0.0887
 Quadrupole moment (field-independent basis, Debye-Ang):
   XX=             -8.6032   YY=             -8.3391   ZZ=             -8.3823
   XY=             -0.0011   XZ=             -0.0349   YZ=             -0.0005

 Normal termination of Gaussian 16 at Fri Sep 22 17:21:05 2023.
