 Gaussian 16, Revision A.03,
 Gaussian 16:  ES64L-G16RevA.03 25-Dec-2016

 ----------
 # hf/3-21g
 ----------

 ------------------------
 tmpdir/M2_conf_229_2.gjf
 ------------------------
 Symbolic Z-matrix:
 Charge =  0 Multiplicity = 1

                         Standard orientation:
 ---------------------------------------------------------------------
 Center     Atomic      Atomic             Coordinates (Angstroms)
 Number     Number       Type             X           Y           Z
 ---------------------------------------------------------------------
      1          6           0        0.013283   -0.027322   -0.000015
      2          1           0        1.060067    0.473439   -0.003041
      3          1           0       -0.167826   -0.594414    0.893185
      4          1           0       -0.173386   -0.594947   -0.891968
      5          1           0       -0.798555    0.879856    0.001916
 ---------------------------------------------------------------------

 SCF Done:  E(RHF) =  -39.9631661776     A.U. after    9 cycles

 The electronic state is 1-A.
 Alpha  occ. eigenvalues --  -11.16732  -0.92943  -0.55789  -0.53856  -0.50146
 Alpha virt. eigenvalues --    0.27853   0.31362   0.34260   0.35687   0.91733
 Alpha virt. eigenvalues --    0.95000   0.98770   1.24277   1.27521   1.34294
 Alpha virt. eigenvalues --    1.36726   1.93665

 Mulliken charges:
               1
     1  C   -0.756251
     2  H    0.182900
     3  H    0.209323
     4  H    0.209272
     5  H    0.154756
 Sum of Mulliken charges =  -0.00000

 Dipole moment (field-independent basis, Debye):
    X=             -0.0137    Y=             -0.0727    Z=              0.0001  Tot=              0.0740
 Quadrupole moment (field-independent basis, Debye-Ang):
   XX=             -8.5413   YY=             -8.6034   ZZ=             -8.4723
   XY=              0.1591   XZ=              0.0011   YZ=             -0.0006

 Normal termination of Gaussian 16 at Fri Sep 22 17:19:56 2023.
