 Gaussian 16, Revision A.03,
 Gaussian 16:  ES64L-G16RevA.03 25-Dec-2016

 ----------
 # hf/3-21g
 ----------

 -----------------------
 tmpdir/M2_conf_22_6.gjf
 -----------------------
 Symbolic Z-matrix:
 Charge =  0 Multiplicity = 1

                         Standard orientation:
 ---------------------------------------------------------------------
 Center     Atomic      Atomic             Coordinates (Angstroms)
 Number     Number       Type             X           Y           Z
 ---------------------------------------------------------------------
      1          1           0       -1.297736   -0.006081    1.064789
      2          6           0       -1.203012    0.000042   -0.004406
      3         17           0        0.688881    0.000035   -0.007946
      4          1           0       -1.597376    0.895296   -0.446683
      5          1           0       -1.597802   -0.890056   -0.456594
 ---------------------------------------------------------------------

 SCF Done:  E(RHF) =  -496.684213388     A.U. after   11 cycles

 The electronic state is 1-A.
 Alpha  occ. eigenvalues -- -104.08825 -11.24981 -10.48218  -7.94591  -7.94187
 Alpha  occ. eigenvalues --   -7.94185  -1.11418  -0.93300  -0.63474  -0.63188
 Alpha  occ. eigenvalues --   -0.51134  -0.43882  -0.43511
 Alpha virt. eigenvalues --    0.16280   0.27362   0.31378   0.31441   0.73894
 Alpha virt. eigenvalues --    0.80075   0.81050   0.85637   0.92515   0.95012
 Alpha virt. eigenvalues --    1.00126   1.30712   1.31171   1.32377   1.91210

 Mulliken charges:
               1
     1  H    0.277100
     2  C   -0.704135
     3  Cl  -0.107215
     4  H    0.267134
     5  H    0.267116
 Sum of Mulliken charges =  -0.00000

 Dipole moment (field-independent basis, Debye):
    X=             -2.8496    Y=             -0.0006    Z=              0.1122  Tot=              2.8518
 Quadrupole moment (field-independent basis, Debye-Ang):
   XX=            -18.5538   YY=            -20.1826   ZZ=            -20.2458
   XY=             -0.0012   XZ=              0.2963   YZ=             -0.0001

 Normal termination of Gaussian 16 at Fri Sep 22 17:14:40 2023.
