 Gaussian 16, Revision A.03,
 Gaussian 16:  ES64L-G16RevA.03 25-Dec-2016

 ----------
 # hf/3-21g
 ----------

 -----------------------
 tmpdir/M2_conf_27_8.gjf
 -----------------------
 Symbolic Z-matrix:
 Charge =  0 Multiplicity = 1

                         Standard orientation:
 ---------------------------------------------------------------------
 Center     Atomic      Atomic             Coordinates (Angstroms)
 Number     Number       Type             X           Y           Z
 ---------------------------------------------------------------------
      1          1           0       -1.557106   -0.098607    1.009670
      2          6           0       -1.202408   -0.000122    0.001153
      3         17           0        0.689487   -0.000212    0.002206
      4          1           0       -1.474802   -0.836795   -0.613630
      5          1           0       -1.474929    0.939735   -0.440458
 ---------------------------------------------------------------------

 SCF Done:  E(RHF) =  -496.689110629     A.U. after   11 cycles

 The electronic state is 1-A.
 Alpha  occ. eigenvalues -- -104.08775 -11.25000 -10.48165  -7.94539  -7.94135
 Alpha  occ. eigenvalues --   -7.94135  -1.11289  -0.93334  -0.63265  -0.63239
 Alpha  occ. eigenvalues --   -0.51308  -0.43752  -0.43696
 Alpha virt. eigenvalues --    0.16581   0.27332   0.31368   0.31393   0.73830
 Alpha virt. eigenvalues --    0.80503   0.80852   0.85518   0.93274   0.94033
 Alpha virt. eigenvalues --    0.99590   1.31144   1.31250   1.32236   1.91955

 Mulliken charges:
               1
     1  H    0.268017
     2  C   -0.702792
     3  Cl  -0.107024
     4  H    0.270924
     5  H    0.270876
 Sum of Mulliken charges =   0.00000

 Dipole moment (field-independent basis, Debye):
    X=             -2.8652    Y=              0.0027    Z=             -0.0288  Tot=              2.8654
 Quadrupole moment (field-independent basis, Debye-Ang):
   XX=            -18.5690   YY=            -20.1799   ZZ=            -20.1859
   XY=              0.0081   XZ=             -0.0823   YZ=              0.0003

 Normal termination of Gaussian 16 at Fri Sep 22 17:14:48 2023.
