 Gaussian 16, Revision A.03,
 Gaussian 16:  ES64L-G16RevA.03 25-Dec-2016

 ----------
 # hf/3-21g
 ----------

 ------------------------
 tmpdir/M2_conf_141_8.gjf
 ------------------------
 Symbolic Z-matrix:
 Charge =  0 Multiplicity = 1

                         Standard orientation:
 ---------------------------------------------------------------------
 Center     Atomic      Atomic             Coordinates (Angstroms)
 Number     Number       Type             X           Y           Z
 ---------------------------------------------------------------------
      1          1           0       -1.314366   -0.006538    1.063792
      2          6           0       -1.202917    0.000012   -0.003987
      3         17           0        0.688983    0.000050   -0.007339
      4          1           0       -1.590320   -0.889654   -0.462889
      5          1           0       -1.590520    0.895264   -0.452213
 ---------------------------------------------------------------------

 SCF Done:  E(RHF) =  -496.685043485     A.U. after   11 cycles

 The electronic state is 1-A.
 Alpha  occ. eigenvalues -- -104.08816 -11.24985 -10.48208  -7.94582  -7.94178
 Alpha  occ. eigenvalues --   -7.94176  -1.11395  -0.93305  -0.63446  -0.63191
 Alpha  occ. eigenvalues --   -0.51161  -0.43866  -0.43537
 Alpha virt. eigenvalues --    0.16329   0.27354   0.31376   0.31435   0.73883
 Alpha virt. eigenvalues --    0.80122   0.81044   0.85629   0.92575   0.94896
 Alpha virt. eigenvalues --    1.00047   1.30794   1.31177   1.32351   1.91333

 Mulliken charges:
               1
     1  H    0.276488
     2  C   -0.703924
     3  Cl  -0.107163
     4  H    0.267324
     5  H    0.267276
 Sum of Mulliken charges =   0.00000

 Dipole moment (field-independent basis, Debye):
    X=             -2.8523    Y=             -0.0007    Z=              0.1026  Tot=              2.8542
 Quadrupole moment (field-independent basis, Debye-Ang):
   XX=            -18.5562   YY=            -20.1837   ZZ=            -20.2344
   XY=             -0.0017   XZ=              0.2742   YZ=              0.0000

 Normal termination of Gaussian 16 at Fri Sep 22 17:17:38 2023.
