 Gaussian 16, Revision A.03,
 Gaussian 16:  ES64L-G16RevA.03 25-Dec-2016

 ----------
 # hf/3-21g
 ----------

 -----------------------
 tmpdir/M2_conf_42_8.gjf
 -----------------------
 Symbolic Z-matrix:
 Charge =  0 Multiplicity = 1

                         Standard orientation:
 ---------------------------------------------------------------------
 Center     Atomic      Atomic             Coordinates (Angstroms)
 Number     Number       Type             X           Y           Z
 ---------------------------------------------------------------------
      1          1           0       -1.437003   -0.063578    1.044397
      2          6           0       -1.202428    0.000070   -0.001328
      3         17           0        0.689468    0.000164   -0.002628
      4          1           0       -1.534613   -0.860654   -0.549950
      5          1           0       -1.534778    0.921017   -0.441803
 ---------------------------------------------------------------------

 SCF Done:  E(RHF) =  -496.688946673     A.U. after   11 cycles

 The electronic state is 1-A.
 Alpha  occ. eigenvalues -- -104.08777 -11.25000 -10.48167  -7.94541  -7.94137
 Alpha  occ. eigenvalues --   -7.94137  -1.11293  -0.93333  -0.63287  -0.63222
 Alpha  occ. eigenvalues --   -0.51302  -0.43768  -0.43679
 Alpha virt. eigenvalues --    0.16571   0.27333   0.31370   0.31394   0.73832
 Alpha virt. eigenvalues --    0.80482   0.80863   0.85523   0.93217   0.94104
 Alpha virt. eigenvalues --    0.99603   1.31174   1.31208   1.32233   1.91927

 Mulliken charges:
               1
     1  H    0.272189
     2  C   -0.702814
     3  Cl  -0.107041
     4  H    0.268857
     5  H    0.268809
 Sum of Mulliken charges =  -0.00000

 Dipole moment (field-independent basis, Debye):
    X=             -2.8647    Y=             -0.0023    Z=              0.0351  Tot=              2.8649
 Quadrupole moment (field-independent basis, Debye-Ang):
   XX=            -18.5685   YY=            -20.1822   ZZ=            -20.1856
   XY=             -0.0060   XZ=              0.0984   YZ=             -0.0001

 Normal termination of Gaussian 16 at Fri Sep 22 17:15:10 2023.
