 Gaussian 16, Revision A.03,
 Gaussian 16:  ES64L-G16RevA.03 25-Dec-2016

 ----------
 # hf/3-21g
 ----------

 ------------------------
 tmpdir/M2_conf_233_4.gjf
 ------------------------
 Symbolic Z-matrix:
 Charge =  0 Multiplicity = 1

                         Standard orientation:
 ---------------------------------------------------------------------
 Center     Atomic      Atomic             Coordinates (Angstroms)
 Number     Number       Type             X           Y           Z
 ---------------------------------------------------------------------
      1          1           0       -0.840690    0.606992   -0.347637
      2          6           0       -0.031437   -0.015340   -0.015975
      3          1           0        0.426712   -0.688702   -0.715480
      4          1           0       -0.273878   -0.564166    0.874315
      5          1           0        0.876476    0.737913    0.284653
 ---------------------------------------------------------------------

 SCF Done:  E(RHF) =  -39.9649901367     A.U. after    9 cycles

 The electronic state is 1-A.
 Alpha  occ. eigenvalues --  -11.15741  -0.93804  -0.56904  -0.54703  -0.49878
 Alpha virt. eigenvalues --    0.28331   0.31959   0.35266   0.36174   0.91015
 Alpha virt. eigenvalues --    0.93407   0.97410   1.25233   1.31950   1.36088
 Alpha virt. eigenvalues --    1.38239   1.94644

 Mulliken charges:
               1
     1  H    0.209062
     2  C   -0.773807
     3  H    0.208725
     4  H    0.206040
     5  H    0.149980
 Sum of Mulliken charges =  -0.00000

 Dipole moment (field-independent basis, Debye):
    X=             -0.0222    Y=             -0.0625    Z=              0.0081  Tot=              0.0668
 Quadrupole moment (field-independent basis, Debye-Ang):
   XX=             -8.4347   YY=             -8.4134   ZZ=             -8.6025
   XY=             -0.2501   XZ=             -0.0847   YZ=             -0.0774

 Normal termination of Gaussian 16 at Fri Sep 22 17:20:02 2023.
