 Gaussian 16, Revision A.03,
 Gaussian 16:  ES64L-G16RevA.03 25-Dec-2016

 ----------
 # hf/3-21g
 ----------

 ------------------------
 tmpdir/M2_conf_239_0.gjf
 ------------------------
 Symbolic Z-matrix:
 Charge =  0 Multiplicity = 1

                         Standard orientation:
 ---------------------------------------------------------------------
 Center     Atomic      Atomic             Coordinates (Angstroms)
 Number     Number       Type             X           Y           Z
 ---------------------------------------------------------------------
      1          6           0        0.019918   -0.023029    0.000056
      2          1           0        0.932200    0.662426    0.001797
      3          1           0       -0.050929   -0.614961    0.892928
      4          1           0       -0.046277   -0.616035   -0.892449
      5          1           0       -0.954504    0.706743   -0.002613
 ---------------------------------------------------------------------

 SCF Done:  E(RHF) =  -39.9646960414     A.U. after    9 cycles

 The electronic state is 1-A.
 Alpha  occ. eigenvalues --  -11.16513  -0.93103  -0.55751  -0.54227  -0.50192
 Alpha virt. eigenvalues --    0.27992   0.31606   0.34501   0.35685   0.91779
 Alpha virt. eigenvalues --    0.94515   0.98321   1.24568   1.28628   1.34568
 Alpha virt. eigenvalues --    1.36770   1.93875

 Mulliken charges:
               1
     1  C   -0.759819
     2  H    0.188361
     3  H    0.208704
     4  H    0.208701
     5  H    0.154053
 Sum of Mulliken charges =   0.00000

 Dipole moment (field-independent basis, Debye):
    X=              0.0143    Y=             -0.0661    Z=              0.0001  Tot=              0.0676
 Quadrupole moment (field-independent basis, Debye-Ang):
   XX=             -8.5962   YY=             -8.5282   ZZ=             -8.4545
   XY=              0.1519   XZ=             -0.0011   YZ=              0.0005

 Normal termination of Gaussian 16 at Fri Sep 22 17:20:11 2023.
