 Gaussian 16, Revision A.03,
 Gaussian 16:  ES64L-G16RevA.03 25-Dec-2016

 ----------
 # hf/3-21g
 ----------

 ------------------------
 tmpdir/M2_conf_275_4.gjf
 ------------------------
 Symbolic Z-matrix:
 Charge =  0 Multiplicity = 1

                         Standard orientation:
 ---------------------------------------------------------------------
 Center     Atomic      Atomic             Coordinates (Angstroms)
 Number     Number       Type             X           Y           Z
 ---------------------------------------------------------------------
      1          1           0       -0.952198    0.415765   -0.345120
      2          6           0       -0.028207   -0.021294   -0.017390
      3          1           0        0.576766   -0.570010   -0.714196
      4          1           0       -0.148663   -0.624136    0.862766
      5          1           0        0.693336    0.906145    0.300892
 ---------------------------------------------------------------------

 SCF Done:  E(RHF) =  -39.9645904328     A.U. after    9 cycles

 The electronic state is 1-A.
 Alpha  occ. eigenvalues --  -11.15744  -0.93810  -0.57041  -0.54606  -0.49824
 Alpha virt. eigenvalues --    0.28330   0.31915   0.35221   0.36225   0.90926
 Alpha virt. eigenvalues --    0.93601   0.97392   1.25249   1.31886   1.36010
 Alpha virt. eigenvalues --    1.38388   1.94634

 Mulliken charges:
               1
     1  H    0.209442
     2  C   -0.774467
     3  H    0.209141
     4  H    0.206034
     5  H    0.149850
 Sum of Mulliken charges =  -0.00000

 Dipole moment (field-independent basis, Debye):
    X=             -0.0046    Y=             -0.0672    Z=              0.0099  Tot=              0.0681
 Quadrupole moment (field-independent basis, Debye-Ang):
   XX=             -8.3093   YY=             -8.5150   ZZ=             -8.6282
   XY=             -0.2415   XZ=             -0.0693   YZ=             -0.0991

 Normal termination of Gaussian 16 at Fri Sep 22 17:21:06 2023.
