 Gaussian 16, Revision A.03,
 Gaussian 16:  ES64L-G16RevA.03 25-Dec-2016

 ----------
 # hf/3-21g
 ----------

 ------------------------
 tmpdir/M2_conf_284_8.gjf
 ------------------------
 Symbolic Z-matrix:
 Charge =  0 Multiplicity = 1

                         Standard orientation:
 ---------------------------------------------------------------------
 Center     Atomic      Atomic             Coordinates (Angstroms)
 Number     Number       Type             X           Y           Z
 ---------------------------------------------------------------------
      1          1           0        0.394938    0.000006    0.621024
      2          6           0        1.222923    0.000021   -0.062392
      3         17           0       -0.668396   -0.000009   -0.015639
      4          1           0        1.814948    0.892490    0.009597
      5          1           0        1.815303   -0.892460    0.009596
 ---------------------------------------------------------------------

 SCF Done:  E(RHF) =  -496.426541342     A.U. after   12 cycles

 The electronic state is 1-A.
 Alpha  occ. eigenvalues -- -104.14059 -11.19950 -10.54342  -8.00753  -8.00116
 Alpha  occ. eigenvalues --   -8.00052  -1.24777  -0.90787  -0.68903  -0.61189
 Alpha  occ. eigenvalues --   -0.53763  -0.48893  -0.33912
 Alpha virt. eigenvalues --    0.10338   0.32528   0.33739   0.36635   0.71478
 Alpha virt. eigenvalues --    0.74078   0.75546   0.79559   0.92162   0.99259
 Alpha virt. eigenvalues --    1.05330   1.21391   1.33903   1.34536   1.82077

 Mulliken charges:
               1
     1  H    0.260010
     2  C   -0.806015
     3  Cl   0.004369
     4  H    0.270835
     5  H    0.270802
 Sum of Mulliken charges =  -0.00000

 Dipole moment (field-independent basis, Debye):
    X=              0.8779    Y=              0.0000    Z=              0.9907  Tot=              1.3237
 Quadrupole moment (field-independent basis, Debye-Ang):
   XX=            -19.2232   YY=            -19.7850   ZZ=            -22.0532
   XY=             -0.0003   XZ=              0.2516   YZ=              0.0000

 Normal termination of Gaussian 16 at Fri Sep 22 17:21:20 2023.
