 Gaussian 16, Revision A.03,
 Gaussian 16:  ES64L-G16RevA.03 25-Dec-2016

 ----------
 # hf/3-21g
 ----------

 -----------------------
 tmpdir/M2_conf_60_5.gjf
 -----------------------
 Symbolic Z-matrix:
 Charge =  0 Multiplicity = 1

                         Standard orientation:
 ---------------------------------------------------------------------
 Center     Atomic      Atomic             Coordinates (Angstroms)
 Number     Number       Type             X           Y           Z
 ---------------------------------------------------------------------
      1          1           0       -0.511609   -0.113210    0.920505
      2          6           0       -0.007058    0.025998   -0.016638
      3          1           0       -0.799047   -0.252006   -0.686028
      4          1           0        0.451624    0.993381   -0.096573
      5          1           0        0.901381   -0.784150   -0.038075
 ---------------------------------------------------------------------

 SCF Done:  E(RHF) =  -39.9618230356     A.U. after    9 cycles

 The electronic state is 1-A.
 Alpha  occ. eigenvalues --  -11.15725  -0.93920  -0.57683  -0.52840  -0.50733
 Alpha virt. eigenvalues --    0.28150   0.32319   0.34638   0.36380   0.90184
 Alpha virt. eigenvalues --    0.93894   0.98733   1.24697   1.32501   1.34784
 Alpha virt. eigenvalues --    1.39506   1.93850

 Mulliken charges:
               1
     1  H    0.203755
     2  C   -0.776323
     3  H    0.207618
     4  H    0.209441
     5  H    0.155510
 Sum of Mulliken charges =  -0.00000

 Dipole moment (field-independent basis, Debye):
    X=             -0.1237    Y=              0.0287    Z=              0.0847  Tot=              0.1527
 Quadrupole moment (field-independent basis, Debye-Ang):
   XX=             -8.1499   YY=             -8.4357   ZZ=             -8.8555
   XY=              0.2369   XZ=              0.0240   YZ=             -0.0141

 Normal termination of Gaussian 16 at Fri Sep 22 17:15:37 2023.
