 Gaussian 16, Revision A.03,
 Gaussian 16:  ES64L-G16RevA.03 25-Dec-2016

 ----------
 # hf/3-21g
 ----------

 ------------------------
 tmpdir/M2_conf_212_2.gjf
 ------------------------
 Symbolic Z-matrix:
 Charge =  0 Multiplicity = 1

                         Standard orientation:
 ---------------------------------------------------------------------
 Center     Atomic      Atomic             Coordinates (Angstroms)
 Number     Number       Type             X           Y           Z
 ---------------------------------------------------------------------
      1          6           0        0.032269    0.000013    0.017977
      2          1           0        0.124328   -0.001958    0.965714
      3          1           0        0.425010   -0.890672   -0.434388
      4          1           0        0.420962    0.894481   -0.430875
      5          1           0       -1.163912   -0.001928   -0.208311
 ---------------------------------------------------------------------

 SCF Done:  E(RHF) =  -39.9524513021     A.U. after    9 cycles

 The electronic state is 1-A.
 Alpha  occ. eigenvalues --  -11.14331  -0.95455  -0.58309  -0.55485  -0.50289
 Alpha virt. eigenvalues --    0.28589   0.32683   0.35680   0.38433   0.86438
 Alpha virt. eigenvalues --    0.92214   0.97596   1.25484   1.34466   1.37156
 Alpha virt. eigenvalues --    1.49446   1.96810

 Mulliken charges:
               1
     1  C   -0.782670
     2  H    0.233854
     3  H    0.201478
     4  H    0.201435
     5  H    0.145903
 Sum of Mulliken charges =  -0.00000

 Dipole moment (field-independent basis, Debye):
    X=              0.0874    Y=             -0.0000    Z=              0.0754  Tot=              0.1155
 Quadrupole moment (field-independent basis, Debye-Ang):
   XX=             -8.5254   YY=             -8.2658   ZZ=             -8.3691
   XY=             -0.0010   XZ=             -0.0491   YZ=             -0.0006

 Normal termination of Gaussian 16 at Fri Sep 22 17:19:31 2023.
