 Gaussian 16, Revision A.03,
 Gaussian 16:  ES64L-G16RevA.03 25-Dec-2016

 ----------
 # hf/3-21g
 ----------

 ------------------------
 tmpdir/M2_conf_167_3.gjf
 ------------------------
 Symbolic Z-matrix:
 Charge =  0 Multiplicity = 1

                         Standard orientation:
 ---------------------------------------------------------------------
 Center     Atomic      Atomic             Coordinates (Angstroms)
 Number     Number       Type             X           Y           Z
 ---------------------------------------------------------------------
      1          6           0       -1.587080    0.000014    0.000009
      2         17           0        0.893220   -0.000011   -0.000002
      3          1           0       -1.887448   -0.278189    0.992267
      4          1           0       -1.887131    0.998723   -0.255260
      5          1           0       -1.887690   -0.720430   -0.737022
 ---------------------------------------------------------------------

 SCF Done:  E(RHF) =  -496.631384867     A.U. after   10 cycles

 The electronic state is 1-A.
 Alpha  occ. eigenvalues -- -104.06747 -11.30904 -10.45386  -7.91704  -7.91459
 Alpha  occ. eigenvalues --   -7.91459  -1.02726  -0.97709  -0.65186  -0.65181
 Alpha  occ. eigenvalues --   -0.42153  -0.41293  -0.41293
 Alpha virt. eigenvalues --    0.01906   0.24876   0.29689   0.29693   0.73193
 Alpha virt. eigenvalues --    0.78687   0.78693   0.89846   0.92940   0.92948
 Alpha virt. eigenvalues --    0.98881   1.26017   1.27692   1.27702   1.78799

 Mulliken charges:
               1
     1  C   -0.439779
     2  Cl  -0.383471
     3  H    0.274429
     4  H    0.274427
     5  H    0.274394
 Sum of Mulliken charges =  -0.00000

 Dipole moment (field-independent basis, Debye):
    X=             -5.2794    Y=              0.0001    Z=              0.0001  Tot=              5.2794
 Quadrupole moment (field-independent basis, Debye-Ang):
   XX=            -14.4987   YY=            -20.4208   ZZ=            -20.4223
   XY=              0.0004   XZ=             -0.0001   YZ=             -0.0001

 Normal termination of Gaussian 16 at Fri Sep 22 17:18:18 2023.
