 Gaussian 16, Revision A.03,
 Gaussian 16:  ES64L-G16RevA.03 25-Dec-2016

 ----------
 # hf/3-21g
 ----------

 -----------------------
 tmpdir/M2_conf_85_6.gjf
 -----------------------
 Symbolic Z-matrix:
 Charge =  0 Multiplicity = 1

                         Standard orientation:
 ---------------------------------------------------------------------
 Center     Atomic      Atomic             Coordinates (Angstroms)
 Number     Number       Type             X           Y           Z
 ---------------------------------------------------------------------
      1          1           0       -1.481028   -0.166974    1.022613
      2          6           0       -1.202365    0.000091   -0.000433
      3         17           0        0.689533    0.000129   -0.000865
      4          1           0       -1.513187    0.963161   -0.358898
      5          1           0       -1.513665   -0.798917   -0.646411
 ---------------------------------------------------------------------

 SCF Done:  E(RHF) =  -496.689425268     A.U. after   11 cycles

 The electronic state is 1-A.
 Alpha  occ. eigenvalues -- -104.08773 -11.25001 -10.48162  -7.94537  -7.94133
 Alpha  occ. eigenvalues --   -7.94133  -1.11281  -0.93337  -0.63255  -0.63237
 Alpha  occ. eigenvalues --   -0.51322  -0.43739  -0.43713
 Alpha virt. eigenvalues --    0.16602   0.27332   0.31375   0.31382   0.73826
 Alpha virt. eigenvalues --    0.80617   0.80746   0.85501   0.93506   0.93817
 Alpha virt. eigenvalues --    0.99535   1.31216   1.31229   1.32204   1.92000

 Mulliken charges:
               1
     1  H    0.270673
     2  C   -0.702637
     3  Cl  -0.107052
     4  H    0.269519
     5  H    0.269497
 Sum of Mulliken charges =  -0.00000

 Dipole moment (field-independent basis, Debye):
    X=             -2.8661    Y=             -0.0018    Z=              0.0115  Tot=              2.8662
 Quadrupole moment (field-independent basis, Debye-Ang):
   XX=            -18.5700   YY=            -20.1803   ZZ=            -20.1814
   XY=             -0.0047   XZ=              0.0321   YZ=             -0.0003

 Normal termination of Gaussian 16 at Fri Sep 22 17:16:14 2023.
