 Gaussian 16, Revision A.03,
 Gaussian 16:  ES64L-G16RevA.03 25-Dec-2016

 ----------
 # hf/3-21g
 ----------

 ------------------------
 tmpdir/M2_conf_245_1.gjf
 ------------------------
 Symbolic Z-matrix:
 Charge =  0 Multiplicity = 1

                         Standard orientation:
 ---------------------------------------------------------------------
 Center     Atomic      Atomic             Coordinates (Angstroms)
 Number     Number       Type             X           Y           Z
 ---------------------------------------------------------------------
      1          6           0       -0.031445   -0.001425    0.000056
      2          1           0       -0.359918    1.027193   -0.021138
      3          1           0       -0.317739   -0.505524    0.903439
      4          1           0       -0.319223   -0.543030   -0.881110
      5          1           0        1.185548    0.029914   -0.001527
 ---------------------------------------------------------------------

 SCF Done:  E(RHF) =  -39.9669766000     A.U. after    9 cycles

 The electronic state is 1-A.
 Alpha  occ. eigenvalues --  -11.15800  -0.93705  -0.55645  -0.55501  -0.50266
 Alpha virt. eigenvalues --    0.28295   0.32187   0.35557   0.35687   0.91898
 Alpha virt. eigenvalues --    0.92205   0.97663   1.25037   1.32186   1.36554
 Alpha virt. eigenvalues --    1.36927   1.94572

 Mulliken charges:
               1
     1  C   -0.769780
     2  H    0.204791
     3  H    0.206710
     4  H    0.206655
     5  H    0.151623
 Sum of Mulliken charges =  -0.00000

 Dipole moment (field-independent basis, Debye):
    X=             -0.0689    Y=             -0.0057    Z=              0.0003  Tot=              0.0691
 Quadrupole moment (field-independent basis, Debye-Ang):
   XX=             -8.6628   YY=             -8.3916   ZZ=             -8.3972
   XY=             -0.0073   XZ=              0.0004   YZ=              0.0001

 Normal termination of Gaussian 16 at Fri Sep 22 17:20:20 2023.
