 Gaussian 16, Revision A.03,
 Gaussian 16:  ES64L-G16RevA.03 25-Dec-2016

 ----------
 # hf/3-21g
 ----------

 ------------------------
 tmpdir/M2_conf_170_9.gjf
 ------------------------
 Symbolic Z-matrix:
 Charge =  0 Multiplicity = 1

                         Standard orientation:
 ---------------------------------------------------------------------
 Center     Atomic      Atomic             Coordinates (Angstroms)
 Number     Number       Type             X           Y           Z
 ---------------------------------------------------------------------
      1          1           0        0.757982   -0.000888    0.946974
      2          6           0        1.210936    0.000014   -0.026396
      3         17           0       -0.680960    0.000023   -0.020942
      4          1           0        1.776313   -0.892333   -0.216820
      5          1           0        1.776420    0.892747   -0.215766
 ---------------------------------------------------------------------

 SCF Done:  E(RHF) =  -496.603871027     A.U. after   12 cycles

 The electronic state is 1-A.
 Alpha  occ. eigenvalues -- -104.09931 -11.24123 -10.49516  -7.95872  -7.95444
 Alpha  occ. eigenvalues --   -7.95410  -1.14233  -0.92673  -0.65512  -0.62857
 Alpha  occ. eigenvalues --   -0.50546  -0.45250  -0.40739
 Alpha virt. eigenvalues --    0.13066   0.28781   0.31856   0.31931   0.74155
 Alpha virt. eigenvalues --    0.78284   0.80325   0.84494   0.94225   0.97757
 Alpha virt. eigenvalues --    1.02890   1.25879   1.31246   1.31522   1.83218

 Mulliken charges:
               1
     1  H    0.293446
     2  C   -0.716356
     3  Cl  -0.112956
     4  H    0.267950
     5  H    0.267916
 Sum of Mulliken charges =  -0.00000

 Dipole moment (field-independent basis, Debye):
    X=              2.4837    Y=             -0.0005    Z=              0.4510  Tot=              2.5243
 Quadrupole moment (field-independent basis, Debye-Ang):
   XX=            -18.5744   YY=            -20.1361   ZZ=            -21.0325
   XY=              0.0007   XZ=             -0.7282   YZ=             -0.0000

 Normal termination of Gaussian 16 at Fri Sep 22 17:18:22 2023.
