 Gaussian 16, Revision A.03,
 Gaussian 16:  ES64L-G16RevA.03 25-Dec-2016

 ----------
 # hf/3-21g
 ----------

 ------------------------
 tmpdir/M2_conf_202_1.gjf
 ------------------------
 Symbolic Z-matrix:
 Charge =  0 Multiplicity = 1

                         Standard orientation:
 ---------------------------------------------------------------------
 Center     Atomic      Atomic             Coordinates (Angstroms)
 Number     Number       Type             X           Y           Z
 ---------------------------------------------------------------------
      1          6           0       -0.032171   -0.000060    0.007831
      2          1           0       -0.206008   -0.003346    1.023659
      3          1           0       -0.388136   -0.891435   -0.472712
      4          1           0       -0.390187    0.893500   -0.467543
      5          1           0        1.177354    0.001642   -0.130388
 ---------------------------------------------------------------------

 SCF Done:  E(RHF) =  -39.9651354385     A.U. after    9 cycles

 The electronic state is 1-A.
 Alpha  occ. eigenvalues --  -11.15223  -0.94297  -0.56579  -0.55573  -0.50285
 Alpha virt. eigenvalues --    0.28444   0.32457   0.35685   0.36626   0.89973
 Alpha virt. eigenvalues --    0.92013   0.97553   1.25247   1.33586   1.37031
 Alpha virt. eigenvalues --    1.40508   1.95232

 Mulliken charges:
               1
     1  C   -0.776074
     2  H    0.216964
     3  H    0.204833
     4  H    0.204778
     5  H    0.149500
 Sum of Mulliken charges =   0.00000

 Dipole moment (field-independent basis, Debye):
    X=             -0.0789    Y=             -0.0003    Z=              0.0329  Tot=              0.0855
 Quadrupole moment (field-independent basis, Debye-Ang):
   XX=             -8.6118   YY=             -8.3480   ZZ=             -8.3834
   XY=             -0.0005   XZ=              0.0336   YZ=             -0.0001

 Normal termination of Gaussian 16 at Fri Sep 22 17:19:15 2023.
