 Gaussian 16, Revision A.03,
 Gaussian 16:  ES64L-G16RevA.03 25-Dec-2016

 ----------
 # hf/3-21g
 ----------

 ------------------------
 tmpdir/M2_conf_300_9.gjf
 ------------------------
 Symbolic Z-matrix:
 Charge =  0 Multiplicity = 1

                         Standard orientation:
 ---------------------------------------------------------------------
 Center     Atomic      Atomic             Coordinates (Angstroms)
 Number     Number       Type             X           Y           Z
 ---------------------------------------------------------------------
      1          1           0        1.189142   -0.005086    1.066277
      2          6           0        1.203874    0.000037   -0.007210
      3         17           0       -0.688022    0.000052   -0.011712
      4          1           0        1.642079   -0.890541   -0.415920
      5          1           0        1.641910    0.894522   -0.407993
 ---------------------------------------------------------------------

 SCF Done:  E(RHF) =  -496.676909352     A.U. after   11 cycles

 The electronic state is 1-A.
 Alpha  occ. eigenvalues -- -104.08906 -11.24945 -10.48305  -7.94677  -7.94272
 Alpha  occ. eigenvalues --   -7.94268  -1.11622  -0.93248  -0.63716  -0.63164
 Alpha  occ. eigenvalues --   -0.50921  -0.44008  -0.43297
 Alpha virt. eigenvalues --    0.15875   0.27431   0.31405   0.31493   0.73974
 Alpha virt. eigenvalues --    0.79760   0.81026   0.85587   0.92476   0.95651
 Alpha virt. eigenvalues --    1.00702   1.30212   1.31170   1.32326   1.90142

 Mulliken charges:
               1
     1  H    0.280667
     2  C   -0.705456
     3  Cl  -0.107954
     4  H    0.266385
     5  H    0.266358
 Sum of Mulliken charges =  -0.00000

 Dipole moment (field-independent basis, Debye):
    X=              2.8249    Y=             -0.0009    Z=              0.1737  Tot=              2.8302
 Quadrupole moment (field-independent basis, Debye-Ang):
   XX=            -18.5365   YY=            -20.1827   ZZ=            -20.3340
   XY=              0.0017   XZ=             -0.4366   YZ=             -0.0001

 Normal termination of Gaussian 16 at Fri Sep 22 17:21:49 2023.
