 Gaussian 16, Revision A.03,
 Gaussian 16:  ES64L-G16RevA.03 25-Dec-2016

 ----------
 # hf/3-21g
 ----------

 -----------------------
 tmpdir/M2_conf_28_4.gjf
 -----------------------
 Symbolic Z-matrix:
 Charge =  0 Multiplicity = 1

                         Standard orientation:
 ---------------------------------------------------------------------
 Center     Atomic      Atomic             Coordinates (Angstroms)
 Number     Number       Type             X           Y           Z
 ---------------------------------------------------------------------
      1          1           0        0.522868   -0.100839    0.912302
      2          6           0        0.004312    0.026743   -0.018832
      3          1           0        0.814619   -0.227809   -0.675508
      4          1           0       -0.485029    0.979754   -0.088954
      5          1           0       -0.878333   -0.811561   -0.034850
 ---------------------------------------------------------------------

 SCF Done:  E(RHF) =  -39.9604197469     A.U. after    9 cycles

 The electronic state is 1-A.
 Alpha  occ. eigenvalues --  -11.15729  -0.93958  -0.57925  -0.52495  -0.50770
 Alpha virt. eigenvalues --    0.28116   0.32304   0.34514   0.36434   0.90086
 Alpha virt. eigenvalues --    0.94084   0.98932   1.24650   1.32354   1.34634
 Alpha virt. eigenvalues --    1.39859   1.93657

 Mulliken charges:
               1
     1  H    0.203426
     2  C   -0.777603
     3  H    0.208040
     4  H    0.210012
     5  H    0.156125
 Sum of Mulliken charges =  -0.00000

 Dipole moment (field-independent basis, Debye):
    X=              0.1331    Y=              0.0301    Z=              0.0961  Tot=              0.1669
 Quadrupole moment (field-independent basis, Debye-Ang):
   XX=             -8.0905   YY=             -8.4417   ZZ=             -8.9126
   XY=             -0.2379   XZ=             -0.0237   YZ=             -0.0144

 Normal termination of Gaussian 16 at Fri Sep 22 17:14:49 2023.
