 Gaussian 16, Revision A.03,
 Gaussian 16:  ES64L-G16RevA.03 25-Dec-2016

 ----------
 # hf/3-21g
 ----------

 ----------------------
 tmpdir/M2_conf_4_7.gjf
 ----------------------
 Symbolic Z-matrix:
 Charge =  0 Multiplicity = 1

                         Standard orientation:
 ---------------------------------------------------------------------
 Center     Atomic      Atomic             Coordinates (Angstroms)
 Number     Number       Type             X           Y           Z
 ---------------------------------------------------------------------
      1          1           0        0.421168   -0.235111    0.958973
      2          6           0        0.023452    0.016074   -0.006088
      3          1           0        0.621408   -0.493373   -0.737888
      4          1           0       -0.079886    1.075448   -0.144737
      5          1           0       -1.103401   -0.443409   -0.039818
 ---------------------------------------------------------------------

 SCF Done:  E(RHF) =  -39.9663502316     A.U. after    9 cycles

 The electronic state is 1-A.
 Alpha  occ. eigenvalues --  -11.15720  -0.93800  -0.56458  -0.54533  -0.50499
 Alpha virt. eigenvalues --    0.28275   0.32325   0.35263   0.36014   0.91018
 Alpha virt. eigenvalues --    0.92747   0.97956   1.24920   1.32703   1.35929
 Alpha virt. eigenvalues --    1.37860   1.94491

 Mulliken charges:
               1
     1  H    0.205121
     2  C   -0.771430
     3  H    0.206182
     4  H    0.207309
     5  H    0.152817
 Sum of Mulliken charges =   0.00000

 Dipole moment (field-independent basis, Debye):
    X=              0.0878    Y=              0.0122    Z=              0.0329  Tot=              0.0945
 Quadrupole moment (field-independent basis, Debye-Ang):
   XX=             -8.5024   YY=             -8.3565   ZZ=             -8.5749
   XY=             -0.1672   XZ=             -0.0216   YZ=             -0.0061

 Normal termination of Gaussian 16 at Fri Sep 22 17:14:13 2023.
