 Gaussian 16, Revision A.03,
 Gaussian 16:  ES64L-G16RevA.03 25-Dec-2016

 ----------
 # hf/3-21g
 ----------

 ------------------------
 tmpdir/M2_conf_156_3.gjf
 ------------------------
 Symbolic Z-matrix:
 Charge =  0 Multiplicity = 1

                         Standard orientation:
 ---------------------------------------------------------------------
 Center     Atomic      Atomic             Coordinates (Angstroms)
 Number     Number       Type             X           Y           Z
 ---------------------------------------------------------------------
      1          6           0       -1.525030    0.000014    0.000009
      2         17           0        0.860370   -0.000011   -0.000003
      3          1           0       -1.825398   -0.278189    0.992267
      4          1           0       -1.825080    0.998724   -0.255260
      5          1           0       -1.825641   -0.720429   -0.737022
 ---------------------------------------------------------------------

 SCF Done:  E(RHF) =  -496.644232150     A.U. after   10 cycles

 The electronic state is 1-A.
 Alpha  occ. eigenvalues -- -104.07300 -11.30031 -10.45975  -7.92296  -7.92038
 Alpha  occ. eigenvalues --   -7.92038  -1.03419  -0.97291  -0.64625  -0.64621
 Alpha  occ. eigenvalues --   -0.43448  -0.41834  -0.41834
 Alpha virt. eigenvalues --    0.03629   0.25308   0.30086   0.30090   0.73258
 Alpha virt. eigenvalues --    0.78794   0.78800   0.89004   0.93264   0.93273
 Alpha virt. eigenvalues --    1.00512   1.27032   1.28320   1.28330   1.80256

 Mulliken charges:
               1
     1  C   -0.466700
     2  Cl  -0.350607
     3  H    0.272450
     4  H    0.272446
     5  H    0.272412
 Sum of Mulliken charges =  -0.00000

 Dipole moment (field-independent basis, Debye):
    X=             -4.8470    Y=              0.0001    Z=              0.0001  Tot=              4.8470
 Quadrupole moment (field-independent basis, Debye-Ang):
   XX=            -15.1848   YY=            -20.4105   ZZ=            -20.4119
   XY=              0.0004   XZ=             -0.0001   YZ=             -0.0001

 Normal termination of Gaussian 16 at Fri Sep 22 17:18:01 2023.
