 Gaussian 16, Revision A.03,
 Gaussian 16:  ES64L-G16RevA.03 25-Dec-2016

 ----------
 # hf/3-21g
 ----------

 ------------------------
 tmpdir/M2_conf_224_6.gjf
 ------------------------
 Symbolic Z-matrix:
 Charge =  0 Multiplicity = 1

                         Standard orientation:
 ---------------------------------------------------------------------
 Center     Atomic      Atomic             Coordinates (Angstroms)
 Number     Number       Type             X           Y           Z
 ---------------------------------------------------------------------
      1          1           0       -1.143309   -0.002390    1.063109
      2          6           0       -1.204346    0.000034   -0.008552
      3         17           0        0.687553    0.000020   -0.013168
      4          1           0       -1.659317    0.893609   -0.392135
      5          1           0       -1.659690   -0.891767   -0.395801
 ---------------------------------------------------------------------

 SCF Done:  E(RHF) =  -496.672775953     A.U. after   11 cycles

 The electronic state is 1-A.
 Alpha  occ. eigenvalues -- -104.08954 -11.24920 -10.48358  -7.94729  -7.94323
 Alpha  occ. eigenvalues --   -7.94317  -1.11743  -0.93219  -0.63844  -0.63152
 Alpha  occ. eigenvalues --   -0.50820  -0.44074  -0.43177
 Alpha virt. eigenvalues --    0.15662   0.27482   0.31422   0.31516   0.74013
 Alpha virt. eigenvalues --    0.79628   0.80980   0.85499   0.92590   0.95920
 Alpha virt. eigenvalues --    1.00962   1.29948   1.31166   1.32291   1.89570

 Mulliken charges:
               1
     1  H    0.282183
     2  C   -0.706036
     3  Cl  -0.108507
     4  H    0.266187
     5  H    0.266172
 Sum of Mulliken charges =  -0.00000

 Dipole moment (field-independent basis, Debye):
    X=             -2.8103    Y=             -0.0004    Z=              0.2004  Tot=              2.8174
 Quadrupole moment (field-independent basis, Debye-Ang):
   XX=            -18.5292   YY=            -20.1811   ZZ=            -20.3829
   XY=             -0.0007   XZ=              0.4900   YZ=             -0.0001

 Normal termination of Gaussian 16 at Fri Sep 22 17:19:49 2023.
