 Gaussian 16, Revision A.03,
 Gaussian 16:  ES64L-G16RevA.03 25-Dec-2016

 ----------
 # hf/3-21g
 ----------

 -----------------------
 tmpdir/M2_conf_62_1.gjf
 -----------------------
 Symbolic Z-matrix:
 Charge =  0 Multiplicity = 1

                         Standard orientation:
 ---------------------------------------------------------------------
 Center     Atomic      Atomic             Coordinates (Angstroms)
 Number     Number       Type             X           Y           Z
 ---------------------------------------------------------------------
      1          6           0       -0.032244   -0.000060    0.014484
      2          1           0       -0.143792   -0.001533    0.989624
      3          1           0       -0.414100   -0.892341   -0.443994
      4          1           0       -0.416378    0.892600   -0.441810
      5          1           0        1.167732    0.001634   -0.190725
 ---------------------------------------------------------------------

 SCF Done:  E(RHF) =  -39.9588666887     A.U. after    9 cycles

 The electronic state is 1-A.
 Alpha  occ. eigenvalues --  -11.14658  -0.94989  -0.57665  -0.55512  -0.50290
 Alpha virt. eigenvalues --    0.28544   0.32619   0.35681   0.37759   0.87738
 Alpha virt. eigenvalues --    0.92135   0.97566   1.25406   1.34210   1.37115
 Alpha virt. eigenvalues --    1.45863   1.96106

 Mulliken charges:
               1
     1  C   -0.780707
     2  H    0.227925
     3  H    0.202783
     4  H    0.202729
     5  H    0.147271
 Sum of Mulliken charges =  -0.00000

 Dipole moment (field-independent basis, Debye):
    X=             -0.0845    Y=             -0.0003    Z=              0.0617  Tot=              0.1047
 Quadrupole moment (field-independent basis, Debye-Ang):
   XX=             -8.5575   YY=             -8.2974   ZZ=             -8.3755
   XY=             -0.0005   XZ=              0.0470   YZ=             -0.0001

 Normal termination of Gaussian 16 at Fri Sep 22 17:15:40 2023.
