 Gaussian 16, Revision A.03,
 Gaussian 16:  ES64L-G16RevA.03 25-Dec-2016

 ----------
 # hf/3-21g
 ----------

 ------------------------
 tmpdir/M2_conf_104_6.gjf
 ------------------------
 Symbolic Z-matrix:
 Charge =  0 Multiplicity = 1

                         Standard orientation:
 ---------------------------------------------------------------------
 Center     Atomic      Atomic             Coordinates (Angstroms)
 Number     Number       Type             X           Y           Z
 ---------------------------------------------------------------------
      1          1           0       -1.761507   -0.001050    0.923204
      2          6           0       -1.203544    0.000015    0.006217
      3         17           0        0.688346   -0.000026    0.010492
      4          1           0       -1.359287    0.893393   -0.568441
      5          1           0       -1.359819   -0.891986   -0.570429
 ---------------------------------------------------------------------

 SCF Done:  E(RHF) =  -496.680540435     A.U. after   11 cycles

 The electronic state is 1-A.
 Alpha  occ. eigenvalues -- -104.08846 -11.24979 -10.48236  -7.94609  -7.94204
 Alpha  occ. eigenvalues --   -7.94203  -1.11488  -0.93271  -0.63405  -0.63390
 Alpha  occ. eigenvalues --   -0.50952  -0.43723  -0.43605
 Alpha virt. eigenvalues --    0.15959   0.27305   0.31372   0.31551   0.73914
 Alpha virt. eigenvalues --    0.79832   0.81547   0.85937   0.91752   0.94804
 Alpha virt. eigenvalues --    1.01282   1.30255   1.31354   1.32745   1.90883

 Mulliken charges:
               1
     1  H    0.262365
     2  C   -0.708148
     3  Cl  -0.105250
     4  H    0.275529
     5  H    0.275504
 Sum of Mulliken charges =   0.00000

 Dipole moment (field-independent basis, Debye):
    X=             -2.8405    Y=              0.0002    Z=             -0.1320  Tot=              2.8435
 Quadrupole moment (field-independent basis, Debye-Ang):
   XX=            -18.5352   YY=            -20.1743   ZZ=            -20.3038
   XY=              0.0011   XZ=             -0.3960   YZ=             -0.0001

 Normal termination of Gaussian 16 at Fri Sep 22 17:16:43 2023.
