 Gaussian 16, Revision A.03,
 Gaussian 16:  ES64L-G16RevA.03 25-Dec-2016

 ----------
 # hf/3-21g
 ----------

 ------------------------
 tmpdir/M2_conf_249_2.gjf
 ------------------------
 Symbolic Z-matrix:
 Charge =  0 Multiplicity = 1

                         Standard orientation:
 ---------------------------------------------------------------------
 Center     Atomic      Atomic             Coordinates (Angstroms)
 Number     Number       Type             X           Y           Z
 ---------------------------------------------------------------------
      1          6           0        0.007312   -0.029559   -0.000015
      2          1           0        1.133748    0.331862   -0.002437
      3          1           0       -0.249296   -0.567223    0.892883
      4          1           0       -0.254015   -0.566411   -0.892271
      5          1           0       -0.674310    0.979126    0.001918
 ---------------------------------------------------------------------

 SCF Done:  E(RHF) =  -39.9609810722     A.U. after    9 cycles

 The electronic state is 1-A.
 Alpha  occ. eigenvalues --  -11.16988  -0.92768  -0.55833  -0.53445  -0.50072
 Alpha virt. eigenvalues --    0.27652   0.31052   0.34029   0.35686   0.91690
 Alpha virt. eigenvalues --    0.95389   0.99461   1.23714   1.26504   1.34029
 Alpha virt. eigenvalues --    1.36663   1.93410

 Mulliken charges:
               1
     1  C   -0.751772
     2  H    0.176362
     3  H    0.209953
     4  H    0.209902
     5  H    0.155555
 Sum of Mulliken charges =  -0.00000

 Dipole moment (field-independent basis, Debye):
    X=             -0.0420    Y=             -0.0739    Z=              0.0002  Tot=              0.0850
 Quadrupole moment (field-independent basis, Debye-Ang):
   XX=             -8.5061   YY=             -8.6624   ZZ=             -8.4926
   XY=              0.1501   XZ=              0.0010   YZ=             -0.0007

 Normal termination of Gaussian 16 at Fri Sep 22 17:20:27 2023.
