 Gaussian 16, Revision A.03,
 Gaussian 16:  ES64L-G16RevA.03 25-Dec-2016

 ----------
 # hf/3-21g
 ----------

 ------------------------
 tmpdir/M2_conf_173_5.gjf
 ------------------------
 Symbolic Z-matrix:
 Charge =  0 Multiplicity = 1

                         Standard orientation:
 ---------------------------------------------------------------------
 Center     Atomic      Atomic             Coordinates (Angstroms)
 Number     Number       Type             X           Y           Z
 ---------------------------------------------------------------------
      1          1           0        1.045787    0.088593   -0.329618
      2          6           0        0.023760   -0.028695   -0.023199
      3          1           0       -0.761504   -0.298988   -0.703579
      4          1           0       -0.079659   -0.685610    0.819639
      5          1           0       -0.347185    1.068175    0.352750
 ---------------------------------------------------------------------

 SCF Done:  E(RHF) =  -39.9623621994     A.U. after    9 cycles

 The electronic state is 1-A.
 Alpha  occ. eigenvalues --  -11.15755  -0.93849  -0.57640  -0.54188  -0.49555
 Alpha virt. eigenvalues --    0.28318   0.31681   0.35030   0.36450   0.90568
 Alpha virt. eigenvalues --    0.94543   0.97326   1.25311   1.31590   1.35697
 Alpha virt. eigenvalues --    1.39065   1.94578

 Mulliken charges:
               1
     1  H    0.211412
     2  C   -0.778235
     3  H    0.211423
     4  H    0.206082
     5  H    0.149318
 Sum of Mulliken charges =   0.00000

 Dipole moment (field-independent basis, Debye):
    X=             -0.0350    Y=             -0.0660    Z=              0.0192  Tot=              0.0771
 Quadrupole moment (field-independent basis, Debye-Ang):
   XX=             -8.0747   YY=             -8.6451   ZZ=             -8.7424
   XY=              0.1393   XZ=              0.0359   YZ=             -0.1359

 Normal termination of Gaussian 16 at Fri Sep 22 17:18:27 2023.
