 Gaussian 16, Revision A.03,
 Gaussian 16:  ES64L-G16RevA.03 25-Dec-2016

 ----------
 # hf/3-21g
 ----------

 -----------------------
 tmpdir/M2_conf_42_4.gjf
 -----------------------
 Symbolic Z-matrix:
 Charge =  0 Multiplicity = 1

                         Standard orientation:
 ---------------------------------------------------------------------
 Center     Atomic      Atomic             Coordinates (Angstroms)
 Number     Number       Type             X           Y           Z
 ---------------------------------------------------------------------
      1          1           0       -0.482668    0.912402   -0.352104
      2          6           0       -0.034090   -0.001599   -0.012150
      3          1           0        0.021844   -0.810728   -0.715572
      4          1           0       -0.463702   -0.352679    0.906969
      5          1           0        1.129064    0.260598    0.233609
 ---------------------------------------------------------------------

 SCF Done:  E(RHF) =  -39.9658384869     A.U. after    9 cycles

 The electronic state is 1-A.
 Alpha  occ. eigenvalues --  -11.15736  -0.93790  -0.56555  -0.54957  -0.50004
 Alpha virt. eigenvalues --    0.28331   0.32057   0.35382   0.36040   0.91251
 Alpha virt. eigenvalues --    0.92940   0.97460   1.25190   1.32107   1.36299
 Alpha virt. eigenvalues --    1.37868   1.94662

 Mulliken charges:
               1
     1  H    0.208190
     2  C   -0.772429
     3  H    0.207824
     4  H    0.206087
     5  H    0.150328
 Sum of Mulliken charges =   0.00000

 Dipole moment (field-independent basis, Debye):
    X=             -0.0532    Y=             -0.0371    Z=              0.0041  Tot=              0.0650
 Quadrupole moment (field-independent basis, Debye-Ang):
   XX=             -8.6408   YY=             -8.2676   ZZ=             -8.5378
   XY=             -0.1160   XZ=             -0.0916   YZ=             -0.0244

 Normal termination of Gaussian 16 at Fri Sep 22 17:15:10 2023.
