 Gaussian 16, Revision A.03,
 Gaussian 16:  ES64L-G16RevA.03 25-Dec-2016

 ----------
 # hf/3-21g
 ----------

 ------------------------
 tmpdir/M2_conf_111_1.gjf
 ------------------------
 Symbolic Z-matrix:
 Charge =  0 Multiplicity = 1

                         Standard orientation:
 ---------------------------------------------------------------------
 Center     Atomic      Atomic             Coordinates (Angstroms)
 Number     Number       Type             X           Y           Z
 ---------------------------------------------------------------------
      1          6           0       -0.032243   -0.000060    0.013996
      2          1           0       -0.147300   -0.001603    0.992655
      3          1           0       -0.412672   -0.892306   -0.445735
      4          1           0       -0.414937    0.892635   -0.443440
      5          1           0        1.168369    0.001634   -0.187455
 ---------------------------------------------------------------------

 SCF Done:  E(RHF) =  -39.9595571900     A.U. after    9 cycles

 The electronic state is 1-A.
 Alpha  occ. eigenvalues --  -11.14702  -0.94930  -0.57579  -0.55516  -0.50290
 Alpha virt. eigenvalues --    0.28537   0.32609   0.35681   0.37668   0.87913
 Alpha virt. eigenvalues --    0.92125   0.97563   1.25394   1.34171   1.37109
 Alpha virt. eigenvalues --    1.45404   1.96025

 Mulliken charges:
               1
     1  C   -0.780400
     2  H    0.227099
     3  H    0.202952
     4  H    0.202897
     5  H    0.147452
 Sum of Mulliken charges =  -0.00000

 Dipole moment (field-independent basis, Debye):
    X=             -0.0842    Y=             -0.0003    Z=              0.0597  Tot=              0.1032
 Quadrupole moment (field-independent basis, Debye-Ang):
   XX=             -8.5618   YY=             -8.3015   ZZ=             -8.3762
   XY=             -0.0005   XZ=              0.0464   YZ=             -0.0001

 Normal termination of Gaussian 16 at Fri Sep 22 17:16:53 2023.
