 Gaussian 16, Revision A.03,
 Gaussian 16:  ES64L-G16RevA.03 25-Dec-2016

 ----------
 # hf/3-21g
 ----------

 -----------------------
 tmpdir/M2_conf_13_5.gjf
 -----------------------
 Symbolic Z-matrix:
 Charge =  0 Multiplicity = 1

                         Standard orientation:
 ---------------------------------------------------------------------
 Center     Atomic      Atomic             Coordinates (Angstroms)
 Number     Number       Type             X           Y           Z
 ---------------------------------------------------------------------
      1          1           0       -0.469061   -0.168463    0.944087
      2          6           0       -0.016260    0.021988   -0.010317
      3          1           0       -0.724951   -0.367642   -0.716408
      4          1           0        0.287444    1.045429   -0.124078
      5          1           0        1.004126   -0.641254   -0.041696
 ---------------------------------------------------------------------

 SCF Done:  E(RHF) =  -39.9650174381     A.U. after    9 cycles

 The electronic state is 1-A.
 Alpha  occ. eigenvalues --  -11.15720  -0.93836  -0.56957  -0.53852  -0.50607
 Alpha virt. eigenvalues --    0.28233   0.32338   0.35009   0.36182   0.90602
 Alpha virt. eigenvalues --    0.93251   0.98224   1.24830   1.32716   1.35401
 Alpha virt. eigenvalues --    1.38495   1.94295

 Mulliken charges:
               1
     1  H    0.204592
     2  C   -0.773017
     3  H    0.206581
     4  H    0.208008
     5  H    0.153836
 Sum of Mulliken charges =   0.00000

 Dipole moment (field-independent basis, Debye):
    X=             -0.1003    Y=              0.0213    Z=              0.0531  Tot=              0.1155
 Quadrupole moment (field-independent basis, Debye-Ang):
   XX=             -8.3497   YY=             -8.3967   ZZ=             -8.6884
   XY=              0.2184   XZ=              0.0235   YZ=             -0.0108

 Normal termination of Gaussian 16 at Fri Sep 22 17:14:26 2023.
