 Gaussian 16, Revision A.03,
 Gaussian 16:  ES64L-G16RevA.03 25-Dec-2016

 ----------
 # hf/3-21g
 ----------

 ------------------------
 tmpdir/M2_conf_249_4.gjf
 ------------------------
 Symbolic Z-matrix:
 Charge =  0 Multiplicity = 1

                         Standard orientation:
 ---------------------------------------------------------------------
 Center     Atomic      Atomic             Coordinates (Angstroms)
 Number     Number       Type             X           Y           Z
 ---------------------------------------------------------------------
      1          1           0       -0.345666    0.968142   -0.352715
      2          6           0       -0.033076    0.001272   -0.006828
      3          1           0       -0.185269   -0.799653   -0.705373
      4          1           0       -0.443692   -0.243299    0.954517
      5          1           0        1.173082    0.067178    0.144535
 ---------------------------------------------------------------------

 SCF Done:  E(RHF) =  -39.9665615963     A.U. after    9 cycles

 The electronic state is 1-A.
 Alpha  occ. eigenvalues --  -11.15730  -0.93780  -0.56119  -0.55278  -0.50141
 Alpha virt. eigenvalues --    0.28328   0.32153   0.35528   0.35873   0.91563
 Alpha virt. eigenvalues --    0.92417   0.97536   1.25132   1.32285   1.36588
 Alpha virt. eigenvalues --    1.37420   1.94668

 Mulliken charges:
               1
     1  H    0.207281
     2  C   -0.771283
     3  H    0.206998
     4  H    0.206206
     5  H    0.150797
 Sum of Mulliken charges =   0.00000

 Dipole moment (field-independent basis, Debye):
    X=             -0.0639    Y=             -0.0163    Z=              0.0006  Tot=              0.0659
 Quadrupole moment (field-independent basis, Debye-Ang):
   XX=             -8.6681   YY=             -8.3122   ZZ=             -8.4613
   XY=             -0.0320   XZ=             -0.0589   YZ=             -0.0049

 Normal termination of Gaussian 16 at Fri Sep 22 17:20:27 2023.
