 Gaussian 16, Revision A.03,
 Gaussian 16:  ES64L-G16RevA.03 25-Dec-2016

 ----------
 # hf/3-21g
 ----------

 ----------------------
 tmpdir/M2_conf_8_8.gjf
 ----------------------
 Symbolic Z-matrix:
 Charge =  0 Multiplicity = 1

                         Standard orientation:
 ---------------------------------------------------------------------
 Center     Atomic      Atomic             Coordinates (Angstroms)
 Number     Number       Type             X           Y           Z
 ---------------------------------------------------------------------
      1          1           0       -1.496041    0.981898   -0.319395
      2          6           0       -1.202363   -0.000105    0.000045
      3         17           0        0.689538   -0.000257    0.000079
      4          1           0       -1.505891   -0.212230    1.007543
      5          1           0       -1.506038   -0.764671   -0.689766
 ---------------------------------------------------------------------

 SCF Done:  E(RHF) =  -496.689478148     A.U. after   10 cycles

 The electronic state is 1-A.
 Alpha  occ. eigenvalues -- -104.08772 -11.25001 -10.48161  -7.94536  -7.94132
 Alpha  occ. eigenvalues --   -7.94132  -1.11280  -0.93337  -0.63250  -0.63241
 Alpha  occ. eigenvalues --   -0.51323  -0.43730  -0.43723
 Alpha virt. eigenvalues --    0.16606   0.27332   0.31376   0.31380   0.73825
 Alpha virt. eigenvalues --    0.80661   0.80704   0.85498   0.93622   0.93703
 Alpha virt. eigenvalues --    0.99526   1.31223   1.31233   1.32196   1.92008

 Mulliken charges:
               1
     1  H    0.270112
     2  C   -0.702612
     3  Cl  -0.107063
     4  H    0.269806
     5  H    0.269758
 Sum of Mulliken charges =  -0.00000

 Dipole moment (field-independent basis, Debye):
    X=             -2.8663    Y=              0.0033    Z=             -0.0009  Tot=              2.8663
 Quadrupole moment (field-independent basis, Debye-Ang):
   XX=            -18.5704   YY=            -20.1796   ZZ=            -20.1812
   XY=              0.0098   XZ=             -0.0032   YZ=             -0.0002

 Normal termination of Gaussian 16 at Fri Sep 22 17:14:19 2023.
