 Gaussian 16, Revision A.03,
 Gaussian 16:  ES64L-G16RevA.03 25-Dec-2016

 ----------
 # hf/3-21g
 ----------

 ------------------------
 tmpdir/M2_conf_228_7.gjf
 ------------------------
 Symbolic Z-matrix:
 Charge =  0 Multiplicity = 1

                         Standard orientation:
 ---------------------------------------------------------------------
 Center     Atomic      Atomic             Coordinates (Angstroms)
 Number     Number       Type             X           Y           Z
 ---------------------------------------------------------------------
      1          1           0       -1.076923    0.008078   -0.280122
      2          6           0       -0.032103   -0.029765   -0.036124
      3          1           0        0.834361   -0.157216   -0.657101
      4          1           0        0.182750   -0.737869    0.741437
      5          1           0        0.252429    1.065595    0.412529
 ---------------------------------------------------------------------

 SCF Done:  E(RHF) =  -39.9533484005     A.U. after    9 cycles

 The electronic state is 1-A.
 Alpha  occ. eigenvalues --  -11.15792  -0.94014  -0.59079  -0.53323  -0.48597
 Alpha virt. eigenvalues --    0.28239   0.30775   0.34664   0.36971   0.89958
 Alpha virt. eigenvalues --    0.97146   0.97608   1.25305   1.30839   1.35159
 Alpha virt. eigenvalues --    1.40920   1.94361

 Mulliken charges:
               1
     1  H    0.218631
     2  C   -0.794040
     3  H    0.220594
     4  H    0.206575
     5  H    0.148240
 Sum of Mulliken charges =  -0.00000

 Dipole moment (field-independent basis, Debye):
    X=              0.0847    Y=             -0.0642    Z=              0.0476  Tot=              0.1165
 Quadrupole moment (field-independent basis, Debye-Ang):
   XX=             -7.7799   YY=             -8.6801   ZZ=             -9.0348
   XY=             -0.0993   XZ=             -0.0242   YZ=             -0.1620

 Normal termination of Gaussian 16 at Fri Sep 22 17:19:55 2023.
