 Gaussian 16, Revision A.03,
 Gaussian 16:  ES64L-G16RevA.03 25-Dec-2016

 ----------
 # hf/3-21g
 ----------

 ------------------------
 tmpdir/M2_conf_261_9.gjf
 ------------------------
 Symbolic Z-matrix:
 Charge =  0 Multiplicity = 1

                         Standard orientation:
 ---------------------------------------------------------------------
 Center     Atomic      Atomic             Coordinates (Angstroms)
 Number     Number       Type             X           Y           Z
 ---------------------------------------------------------------------
      1          1           0        1.107122   -0.003276    1.059439
      2          6           0        1.204757    0.000030   -0.009707
      3         17           0       -0.687138    0.000041   -0.014259
      4          1           0        1.672902   -0.891342   -0.381852
      5          1           0        1.672783    0.893731   -0.376934
 ---------------------------------------------------------------------

 SCF Done:  E(RHF) =  -496.669029355     A.U. after   11 cycles

 The electronic state is 1-A.
 Alpha  occ. eigenvalues -- -104.08999 -11.24894 -10.48409  -7.94778  -7.94371
 Alpha  occ. eigenvalues --   -7.94365  -1.11855  -0.93193  -0.63953  -0.63143
 Alpha  occ. eigenvalues --   -0.50741  -0.44134  -0.43065
 Alpha virt. eigenvalues --    0.15477   0.27530   0.31437   0.31540   0.74044
 Alpha virt. eigenvalues --    0.79519   0.80935   0.85407   0.92741   0.96110
 Alpha virt. eigenvalues --    1.01169   1.29742   1.31178   1.32216   1.89072

 Mulliken charges:
               1
     1  H    0.283267
     2  C   -0.706492
     3  Cl  -0.109006
     4  H    0.266130
     5  H    0.266101
 Sum of Mulliken charges =  -0.00000

 Dipole moment (field-independent basis, Debye):
    X=              2.7964    Y=             -0.0007    Z=              0.2214  Tot=              2.8052
 Quadrupole moment (field-independent basis, Debye-Ang):
   XX=            -18.5237   YY=            -20.1807   ZZ=            -20.4251
   XY=              0.0013   XZ=             -0.5304   YZ=             -0.0001

 Normal termination of Gaussian 16 at Fri Sep 22 17:20:45 2023.
