 Gaussian 16, Revision A.03,
 Gaussian 16:  ES64L-G16RevA.03 25-Dec-2016

 ----------
 # hf/3-21g
 ----------

 ----------------------
 tmpdir/M2_conf_4_1.gjf
 ----------------------
 Symbolic Z-matrix:
 Charge =  0 Multiplicity = 1

                         Standard orientation:
 ---------------------------------------------------------------------
 Center     Atomic      Atomic             Coordinates (Angstroms)
 Number     Number       Type             X           Y           Z
 ---------------------------------------------------------------------
      1          6           0       -0.031908   -0.000062    0.002651
      2          1           0       -0.281604   -0.011990    1.033988
      3          1           0       -0.354693   -0.887077   -0.508421
      4          1           0       -0.356467    0.897754   -0.488465
      5          1           0        1.184214    0.001682   -0.053008
 ---------------------------------------------------------------------

 SCF Done:  E(RHF) =  -39.9667271458     A.U. after    9 cycles

 The electronic state is 1-A.
 Alpha  occ. eigenvalues --  -11.15580  -0.93919  -0.55908  -0.55616  -0.50276
 Alpha virt. eigenvalues --    0.28359   0.32307   0.35686   0.35949   0.91369
 Alpha virt. eigenvalues --    0.91941   0.97598   1.25125   1.32883   1.36969
 Alpha virt. eigenvalues --    1.37812   1.94806

 Mulliken charges:
               1
     1  C   -0.772363
     2  H    0.209550
     3  H    0.206019
     4  H    0.205964
     5  H    0.150831
 Sum of Mulliken charges =   0.00000

 Dipole moment (field-independent basis, Debye):
    X=             -0.0738    Y=             -0.0003    Z=              0.0105  Tot=              0.0745
 Quadrupole moment (field-independent basis, Debye-Ang):
   XX=             -8.6448   YY=             -8.3787   ZZ=             -8.3875
   XY=             -0.0005   XZ=              0.0143   YZ=             -0.0001

 Normal termination of Gaussian 16 at Fri Sep 22 17:14:13 2023.
