 Gaussian 16, Revision A.03,
 Gaussian 16:  ES64L-G16RevA.03 25-Dec-2016

 ----------
 # hf/3-21g
 ----------

 ------------------------
 tmpdir/M2_conf_261_5.gjf
 ------------------------
 Symbolic Z-matrix:
 Charge =  0 Multiplicity = 1

                         Standard orientation:
 ---------------------------------------------------------------------
 Center     Atomic      Atomic             Coordinates (Angstroms)
 Number     Number       Type             X           Y           Z
 ---------------------------------------------------------------------
      1          1           0        0.460134    0.924412   -0.350113
      2          6           0        0.034080   -0.000864   -0.011690
      3          1           0        0.007178   -0.810592   -0.716131
      4          1           0        0.465777   -0.338628    0.911437
      5          1           0       -1.137571    0.229993    0.224949
 ---------------------------------------------------------------------

 SCF Done:  E(RHF) =  -39.9659089387     A.U. after    9 cycles

 The electronic state is 1-A.
 Alpha  occ. eigenvalues --  -11.15735  -0.93789  -0.56522  -0.54981  -0.50016
 Alpha virt. eigenvalues --    0.28331   0.32065   0.35394   0.36027   0.91276
 Alpha virt. eigenvalues --    0.92897   0.97464   1.25187   1.32121   1.36320
 Alpha virt. eigenvalues --    1.37834   1.94665

 Mulliken charges:
               1
     1  H    0.208116
     2  C   -0.772323
     3  H    0.207745
     4  H    0.206099
     5  H    0.150362
 Sum of Mulliken charges =   0.00000

 Dipole moment (field-independent basis, Debye):
    X=              0.0547    Y=             -0.0349    Z=              0.0040  Tot=              0.0650
 Quadrupole moment (field-independent basis, Debye-Ang):
   XX=             -8.6485   YY=             -8.2665   ZZ=             -8.5308
   XY=              0.1035   XZ=              0.0888   YZ=             -0.0210

 Normal termination of Gaussian 16 at Fri Sep 22 17:20:45 2023.
