 Gaussian 16, Revision A.03,
 Gaussian 16:  ES64L-G16RevA.03 25-Dec-2016

 ----------
 # hf/3-21g
 ----------

 -----------------------
 tmpdir/M2_conf_50_6.gjf
 -----------------------
 Symbolic Z-matrix:
 Charge =  0 Multiplicity = 1

                         Standard orientation:
 ---------------------------------------------------------------------
 Center     Atomic      Atomic             Coordinates (Angstroms)
 Number     Number       Type             X           Y           Z
 ---------------------------------------------------------------------
      1          1           0       -1.365629   -0.012056    1.058020
      2          6           0       -1.202655    0.000051   -0.002867
      3         17           0        0.689244    0.000050   -0.005411
      4          1           0       -1.567571    0.898082   -0.464373
      5          1           0       -1.568017   -0.887185   -0.484460
 ---------------------------------------------------------------------

 SCF Done:  E(RHF) =  -496.687141193     A.U. after   11 cycles

 The electronic state is 1-A.
 Alpha  occ. eigenvalues -- -104.08795 -11.24993 -10.48186  -7.94560  -7.94156
 Alpha  occ. eigenvalues --   -7.94155  -1.11340  -0.93320  -0.63364  -0.63204
 Alpha  occ. eigenvalues --   -0.51235  -0.43821  -0.43606
 Alpha virt. eigenvalues --    0.16456   0.27342   0.31371   0.31415   0.73856
 Alpha virt. eigenvalues --    0.80272   0.80992   0.85587   0.92782   0.94584
 Alpha virt. eigenvalues --    0.99827   1.30970   1.31184   1.32328   1.91654

 Mulliken charges:
               1
     1  H    0.274746
     2  C   -0.703392
     3  Cl  -0.107057
     4  H    0.267861
     5  H    0.267842
 Sum of Mulliken charges =  -0.00000

 Dipole moment (field-independent basis, Debye):
    X=             -2.8590    Y=             -0.0008    Z=              0.0744  Tot=              2.8600
 Quadrupole moment (field-independent basis, Debye-Ang):
   XX=            -18.5624   YY=            -20.1821   ZZ=            -20.2092
   XY=             -0.0018   XZ=              0.2018   YZ=             -0.0002

 Normal termination of Gaussian 16 at Fri Sep 22 17:15:22 2023.
