 Gaussian 16, Revision A.03,
 Gaussian 16:  ES64L-G16RevA.03 25-Dec-2016

 ----------
 # hf/3-21g
 ----------

 -----------------------
 tmpdir/M2_conf_24_0.gjf
 -----------------------
 Symbolic Z-matrix:
 Charge =  0 Multiplicity = 1

                         Standard orientation:
 ---------------------------------------------------------------------
 Center     Atomic      Atomic             Coordinates (Angstroms)
 Number     Number       Type             X           Y           Z
 ---------------------------------------------------------------------
      1          6           0       -0.032214    0.000055    0.009277
      2          1           0       -0.191114   -0.002074    1.017024
      3          1           0       -0.393001    0.894866   -0.461647
      4          1           0       -0.397950   -0.890506   -0.465846
      5          1           0        1.175348   -0.002619   -0.145192
 ---------------------------------------------------------------------

 SCF Done:  E(RHF) =  -39.9642209618     A.U. after    9 cycles

 The electronic state is 1-A.
 Alpha  occ. eigenvalues --  -11.15105  -0.94432  -0.56803  -0.55560  -0.50286
 Alpha virt. eigenvalues --    0.28468   0.32496   0.35683   0.36861   0.89493
 Alpha virt. eigenvalues --    0.92050   0.97550   1.25283   1.33738   1.37046
 Alpha virt. eigenvalues --    1.41554   1.95391

 Mulliken charges:
               1
     1  C   -0.777161
     2  H    0.219385
     3  H    0.204367
     4  H    0.204362
     5  H    0.149047
 Sum of Mulliken charges =  -0.00000

 Dipole moment (field-independent basis, Debye):
    X=             -0.0803    Y=              0.0002    Z=              0.0396  Tot=              0.0895
 Quadrupole moment (field-independent basis, Debye-Ang):
   XX=             -8.6008   YY=             -8.3368   ZZ=             -8.3826
   XY=              0.0012   XZ=              0.0363   YZ=             -0.0004

 Normal termination of Gaussian 16 at Fri Sep 22 17:14:43 2023.
