 Gaussian 16, Revision A.03,
 Gaussian 16:  ES64L-G16RevA.03 25-Dec-2016

 ----------
 # hf/3-21g
 ----------

 ------------------------
 tmpdir/M2_conf_283_7.gjf
 ------------------------
 Symbolic Z-matrix:
 Charge =  0 Multiplicity = 1

                         Standard orientation:
 ---------------------------------------------------------------------
 Center     Atomic      Atomic             Coordinates (Angstroms)
 Number     Number       Type             X           Y           Z
 ---------------------------------------------------------------------
      1          1           0        0.386914   -0.275625    0.966135
      2          6           0        0.027073    0.011205   -0.003845
      3          1           0        0.536124   -0.568921   -0.750122
      4          1           0        0.065227    1.072674   -0.158767
      5          1           0       -1.150705   -0.295356   -0.034177
 ---------------------------------------------------------------------

 SCF Done:  E(RHF) =  -39.9667740690     A.U. after    9 cycles

 The electronic state is 1-A.
 Alpha  occ. eigenvalues --  -11.15721  -0.93787  -0.56182  -0.54906  -0.50430
 Alpha virt. eigenvalues --    0.28293   0.32304   0.35405   0.35911   0.91288
 Alpha virt. eigenvalues --    0.92467   0.97833   1.24969   1.32644   1.36255
 Alpha virt. eigenvalues --    1.37534   1.94565

 Mulliken charges:
               1
     1  H    0.205497
     2  C   -0.770890
     3  H    0.206121
     4  H    0.206976
     5  H    0.152296
 Sum of Mulliken charges =   0.00000

 Dipole moment (field-independent basis, Debye):
    X=              0.0817    Y=              0.0067    Z=              0.0220  Tot=              0.0849
 Quadrupole moment (field-independent basis, Debye-Ang):
   XX=             -8.5759   YY=             -8.3457   ZZ=             -8.5127
   XY=             -0.1166   XZ=             -0.0181   YZ=             -0.0030

 Normal termination of Gaussian 16 at Fri Sep 22 17:21:18 2023.
