 Gaussian 16, Revision A.03,
 Gaussian 16:  ES64L-G16RevA.03 25-Dec-2016

 ----------
 # hf/3-21g
 ----------

 ------------------------
 tmpdir/M2_conf_277_6.gjf
 ------------------------
 Symbolic Z-matrix:
 Charge =  0 Multiplicity = 1

                         Standard orientation:
 ---------------------------------------------------------------------
 Center     Atomic      Atomic             Coordinates (Angstroms)
 Number     Number       Type             X           Y           Z
 ---------------------------------------------------------------------
      1          1           0       -1.249173   -0.004257    1.066817
      2          6           0       -1.203357    0.000039   -0.005596
      3         17           0        0.688541    0.000028   -0.009678
      4          1           0       -1.617734    0.894456   -0.430945
      5          1           0       -1.618144   -0.890911   -0.437764
 ---------------------------------------------------------------------

 SCF Done:  E(RHF) =  -496.681361862     A.U. after   11 cycles

 The electronic state is 1-A.
 Alpha  occ. eigenvalues -- -104.08856 -11.24968 -10.48251  -7.94623  -7.94219
 Alpha  occ. eigenvalues --   -7.94216  -1.11496  -0.93279  -0.63573  -0.63177
 Alpha  occ. eigenvalues --   -0.51045  -0.43933  -0.43427
 Alpha virt. eigenvalues --    0.16117   0.27387   0.31388   0.31462   0.73927
 Alpha virt. eigenvalues --    0.79935   0.81055   0.85641   0.92433   0.95307
 Alpha virt. eigenvalues --    1.00373   1.30498   1.31165   1.32380   1.90785

 Mulliken charges:
               1
     1  H    0.278742
     2  C   -0.704716
     3  Cl  -0.107468
     4  H    0.266730
     5  H    0.266712
 Sum of Mulliken charges =  -0.00000

 Dipole moment (field-independent basis, Debye):
    X=             -2.8402    Y=             -0.0005    Z=              0.1396  Tot=              2.8436
 Quadrupole moment (field-independent basis, Debye-Ang):
   XX=            -18.5464   YY=            -20.1826   ZZ=            -20.2809
   XY=             -0.0010   XZ=              0.3608   YZ=             -0.0001

 Normal termination of Gaussian 16 at Fri Sep 22 17:21:10 2023.
