 Gaussian 16, Revision A.03,
 Gaussian 16:  ES64L-G16RevA.03 25-Dec-2016

 ----------
 # hf/3-21g
 ----------

 ------------------------
 tmpdir/M2_conf_185_3.gjf
 ------------------------
 Symbolic Z-matrix:
 Charge =  0 Multiplicity = 1

                         Standard orientation:
 ---------------------------------------------------------------------
 Center     Atomic      Atomic             Coordinates (Angstroms)
 Number     Number       Type             X           Y           Z
 ---------------------------------------------------------------------
      1          6           0       -1.774014    0.000012    0.000009
      2         17           0        0.992186   -0.000010   -0.000002
      3          1           0       -2.074382   -0.278192    0.992267
      4          1           0       -2.074068    0.998721   -0.255261
      5          1           0       -2.074623   -0.720433   -0.737022
 ---------------------------------------------------------------------

 SCF Done:  E(RHF) =  -496.593625898     A.U. after   10 cycles

 The electronic state is 1-A.
 Alpha  occ. eigenvalues -- -104.04894 -11.33306 -10.43515  -7.89830  -7.89609
 Alpha  occ. eigenvalues --   -7.89609  -1.02444  -0.97576  -0.66997  -0.66992
 Alpha  occ. eigenvalues --   -0.39640  -0.39640  -0.38739
 Alpha virt. eigenvalues --   -0.02365   0.23549   0.28378   0.28381   0.72859
 Alpha virt. eigenvalues --    0.78840   0.78847   0.88716   0.91575   0.91581
 Alpha virt. eigenvalues --    0.97161   1.22530   1.25864   1.25873   1.74177

 Mulliken charges:
               1
     1  C   -0.385403
     2  Cl  -0.463604
     3  H    0.283011
     4  H    0.283014
     5  H    0.282982
 Sum of Mulliken charges =  -0.00000

 Dipole moment (field-independent basis, Debye):
    X=             -6.6332    Y=              0.0001    Z=              0.0001  Tot=              6.6332
 Quadrupole moment (field-independent basis, Debye-Ang):
   XX=            -12.4173   YY=            -20.4241   ZZ=            -20.4256
   XY=              0.0003   XZ=             -0.0000   YZ=             -0.0001

 Normal termination of Gaussian 16 at Fri Sep 22 17:18:50 2023.
