 Gaussian 16, Revision A.03,
 Gaussian 16:  ES64L-G16RevA.03 25-Dec-2016

 ----------
 # hf/3-21g
 ----------

 ------------------------
 tmpdir/M2_conf_198_6.gjf
 ------------------------
 Symbolic Z-matrix:
 Charge =  0 Multiplicity = 1

                         Standard orientation:
 ---------------------------------------------------------------------
 Center     Atomic      Atomic             Coordinates (Angstroms)
 Number     Number       Type             X           Y           Z
 ---------------------------------------------------------------------
      1          1           0       -1.097761   -0.001963    1.058027
      2          6           0       -1.204870    0.000032   -0.010013
      3         17           0        0.687022    0.000018   -0.014529
      4          1           0       -1.676018    0.893419   -0.374006
      5          1           0       -1.676373   -0.891958   -0.376954
 ---------------------------------------------------------------------

 SCF Done:  E(RHF) =  -496.667987377     A.U. after   11 cycles

 The electronic state is 1-A.
 Alpha  occ. eigenvalues -- -104.09011 -11.24887 -10.48423  -7.94792  -7.94385
 Alpha  occ. eigenvalues --   -7.94378  -1.11888  -0.93185  -0.63984  -0.63139
 Alpha  occ. eigenvalues --   -0.50721  -0.44150  -0.43035
 Alpha virt. eigenvalues --    0.15427   0.27546   0.31442   0.31543   0.74052
 Alpha virt. eigenvalues --    0.79493   0.80920   0.85379   0.92778   0.96169
 Alpha virt. eigenvalues --    1.01222   1.29672   1.31173   1.32218   1.88938

 Mulliken charges:
               1
     1  H    0.283608
     2  C   -0.706621
     3  Cl  -0.109168
     4  H    0.266097
     5  H    0.266083
 Sum of Mulliken charges =  -0.00000

 Dipole moment (field-independent basis, Debye):
    X=             -2.7926    Y=             -0.0004    Z=              0.2271  Tot=              2.8018
 Quadrupole moment (field-independent basis, Debye-Ang):
   XX=            -18.5226   YY=            -20.1797   ZZ=            -20.4373
   XY=             -0.0006   XZ=              0.5398   YZ=             -0.0001

 Normal termination of Gaussian 16 at Fri Sep 22 17:19:09 2023.
