 Gaussian 16, Revision A.03,
 Gaussian 16:  ES64L-G16RevA.03 25-Dec-2016

 ----------
 # hf/3-21g
 ----------

 ------------------------
 tmpdir/M2_conf_197_9.gjf
 ------------------------
 Symbolic Z-matrix:
 Charge =  0 Multiplicity = 1

                         Standard orientation:
 ---------------------------------------------------------------------
 Center     Atomic      Atomic             Coordinates (Angstroms)
 Number     Number       Type             X           Y           Z
 ---------------------------------------------------------------------
      1          1           0        0.864520   -0.001259    0.996965
      2          6           0        1.208606    0.000018   -0.020001
      3         17           0       -0.683298    0.000026   -0.019770
      4          1           0        1.749933   -0.892189   -0.271252
      5          1           0        1.749969    0.892891   -0.269621
 ---------------------------------------------------------------------

 SCF Done:  E(RHF) =  -496.630492296     A.U. after   11 cycles

 The electronic state is 1-A.
 Alpha  occ. eigenvalues -- -104.09518 -11.24510 -10.49014  -7.95375  -7.94958
 Alpha  occ. eigenvalues --   -7.94936  -1.13166  -0.92901  -0.64930  -0.63004
 Alpha  occ. eigenvalues --   -0.50412  -0.44768  -0.41769
 Alpha virt. eigenvalues --    0.13906   0.28200   0.31646   0.31759   0.74190
 Alpha virt. eigenvalues --    0.78720   0.80510   0.84649   0.94048   0.97307
 Alpha virt. eigenvalues --    1.02432   1.27602   1.31334   1.31582   1.85038

 Mulliken charges:
               1
     1  H    0.290547
     2  C   -0.711138
     3  Cl  -0.113270
     4  H    0.266947
     5  H    0.266914
 Sum of Mulliken charges =  -0.00000

 Dipole moment (field-independent basis, Debye):
    X=              2.6292    Y=             -0.0005    Z=              0.3732  Tot=              2.6555
 Quadrupole moment (field-independent basis, Debye-Ang):
   XX=            -18.5259   YY=            -20.1599   ZZ=            -20.8110
   XY=              0.0008   XZ=             -0.7157   YZ=             -0.0000

 Normal termination of Gaussian 16 at Fri Sep 22 17:19:08 2023.
