 Gaussian 16, Revision A.03,
 Gaussian 16:  ES64L-G16RevA.03 25-Dec-2016

 ----------
 # hf/3-21g
 ----------

 -----------------------
 tmpdir/M2_conf_62_4.gjf
 -----------------------
 Symbolic Z-matrix:
 Charge =  0 Multiplicity = 1

                         Standard orientation:
 ---------------------------------------------------------------------
 Center     Atomic      Atomic             Coordinates (Angstroms)
 Number     Number       Type             X           Y           Z
 ---------------------------------------------------------------------
      1          1           0       -0.528439    0.887593   -0.351514
      2          6           0       -0.034144   -0.003015   -0.012875
      3          1           0        0.073785   -0.807138   -0.715979
      4          1           0       -0.451688   -0.382158    0.900641
      5          1           0        1.111207    0.319796    0.244101
 ---------------------------------------------------------------------

 SCF Done:  E(RHF) =  -39.9657016923     A.U. after    9 cycles

 The electronic state is 1-A.
 Alpha  occ. eigenvalues --  -11.15737  -0.93792  -0.56619  -0.54910  -0.49982
 Alpha virt. eigenvalues --    0.28331   0.32041   0.35361   0.36065   0.91207
 Alpha virt. eigenvalues --    0.93022   0.97450   1.25198   1.32079   1.36259
 Alpha virt. eigenvalues --    1.37935   1.94660

 Mulliken charges:
               1
     1  H    0.208339
     2  C   -0.772649
     3  H    0.207973
     4  H    0.206075
     5  H    0.150263
 Sum of Mulliken charges =  -0.00000

 Dipole moment (field-independent basis, Debye):
    X=             -0.0502    Y=             -0.0414    Z=              0.0048  Tot=              0.0652
 Quadrupole moment (field-independent basis, Debye-Ang):
   XX=             -8.6256   YY=             -8.2719   ZZ=             -8.5495
   XY=             -0.1395   XZ=             -0.0941   YZ=             -0.0306

 Normal termination of Gaussian 16 at Fri Sep 22 17:15:40 2023.
