 Gaussian 16, Revision A.03,
 Gaussian 16:  ES64L-G16RevA.03 25-Dec-2016

 ----------
 # hf/3-21g
 ----------

 ------------------------
 tmpdir/M2_conf_292_7.gjf
 ------------------------
 Symbolic Z-matrix:
 Charge =  0 Multiplicity = 1

                         Standard orientation:
 ---------------------------------------------------------------------
 Center     Atomic      Atomic             Coordinates (Angstroms)
 Number     Number       Type             X           Y           Z
 ---------------------------------------------------------------------
      1          1           0       -0.703004    0.760886   -0.347912
      2          6           0       -0.033441   -0.009330   -0.014641
      3          1           0        0.263033   -0.765686   -0.716521
      4          1           0       -0.371548   -0.486311    0.885552
      5          1           0        1.012162    0.547093    0.266728
 ---------------------------------------------------------------------

 SCF Done:  E(RHF) =  -39.9652995151     A.U. after    9 cycles

 The electronic state is 1-A.
 Alpha  occ. eigenvalues --  -11.15739  -0.93799  -0.56786  -0.54789  -0.49923
 Alpha virt. eigenvalues --    0.28331   0.31993   0.35308   0.36127   0.91084
 Alpha virt. eigenvalues --    0.93256   0.97424   1.25220   1.31998   1.36168
 Alpha virt. eigenvalues --    1.38109   1.94652

 Mulliken charges:
               1
     1  H    0.208708
     2  C   -0.773309
     3  H    0.208394
     4  H    0.206113
     5  H    0.150094
 Sum of Mulliken charges =  -0.00000

 Dipole moment (field-independent basis, Debye):
    X=             -0.0367    Y=             -0.0545    Z=              0.0070  Tot=              0.0661
 Quadrupole moment (field-independent basis, Debye-Ang):
   XX=             -8.5422   YY=             -8.3265   ZZ=             -8.5804
   XY=             -0.2151   XZ=             -0.0930   YZ=             -0.0549

 Normal termination of Gaussian 16 at Fri Sep 22 17:21:37 2023.
