 Gaussian 16, Revision A.03,
 Gaussian 16:  ES64L-G16RevA.03 25-Dec-2016

 ----------
 # hf/3-21g
 ----------

 ------------------------
 tmpdir/M2_conf_217_8.gjf
 ------------------------
 Symbolic Z-matrix:
 Charge =  0 Multiplicity = 1

                         Standard orientation:
 ---------------------------------------------------------------------
 Center     Atomic      Atomic             Coordinates (Angstroms)
 Number     Number       Type             X           Y           Z
 ---------------------------------------------------------------------
      1          1           0        0.561304    0.000069    0.808034
      2          6           0        1.216482    0.000017   -0.042471
      3         17           0       -0.675289   -0.000011   -0.020301
      4          1           0        1.809685    0.892482   -0.104076
      5          1           0        1.810031   -0.892468   -0.104016
 ---------------------------------------------------------------------

 SCF Done:  E(RHF) =  -496.530564799     A.U. after   12 cycles

 The electronic state is 1-A.
 Alpha  occ. eigenvalues -- -104.11341 -11.22620 -10.51233  -7.97591  -7.97109
 Alpha  occ. eigenvalues --   -7.97046  -1.17893  -0.91923  -0.66963  -0.62240
 Alpha  occ. eigenvalues --   -0.51648  -0.46740  -0.37715
 Alpha virt. eigenvalues --    0.11419   0.30615   0.32558   0.32959   0.73678
 Alpha virt. eigenvalues --    0.77166   0.79676   0.84223   0.92074   0.98507
 Alpha virt. eigenvalues --    1.03873   1.20933   1.31455   1.32326   1.81055

 Mulliken charges:
               1
     1  H    0.293471
     2  C   -0.743844
     3  Cl  -0.090165
     4  H    0.270288
     5  H    0.270250
 Sum of Mulliken charges =   0.00000

 Dipole moment (field-independent basis, Debye):
    X=              1.9407    Y=              0.0001    Z=              0.6497  Tot=              2.0465
 Quadrupole moment (field-independent basis, Debye-Ang):
   XX=            -18.8263   YY=            -20.0277   ZZ=            -21.5181
   XY=             -0.0003   XZ=             -0.5153   YZ=             -0.0000

 Normal termination of Gaussian 16 at Fri Sep 22 17:19:38 2023.
