 Gaussian 16, Revision A.03,
 Gaussian 16:  ES64L-G16RevA.03 25-Dec-2016

 ----------
 # hf/3-21g
 ----------

 -----------------------
 tmpdir/M2_conf_76_4.gjf
 -----------------------
 Symbolic Z-matrix:
 Charge =  0 Multiplicity = 1

                         Standard orientation:
 ---------------------------------------------------------------------
 Center     Atomic      Atomic             Coordinates (Angstroms)
 Number     Number       Type             X           Y           Z
 ---------------------------------------------------------------------
      1          1           0       -0.869987    0.564995   -0.347126
      2          6           0       -0.030780   -0.016774   -0.016275
      3          1           0        0.463546   -0.664585   -0.715272
      4          1           0       -0.246394   -0.580129    0.871839
      5          1           0        0.837513    0.780365    0.288206
 ---------------------------------------------------------------------

 SCF Done:  E(RHF) =  -39.9649097129     A.U. after    9 cycles

 The electronic state is 1-A.
 Alpha  occ. eigenvalues --  -11.15742  -0.93805  -0.56933  -0.54683  -0.49867
 Alpha virt. eigenvalues --    0.28330   0.31950   0.35256   0.36185   0.90996
 Alpha virt. eigenvalues --    0.93447   0.97406   1.25237   1.31937   1.36071
 Alpha virt. eigenvalues --    1.38271   1.94642

 Mulliken charges:
               1
     1  H    0.209139
     2  C   -0.773940
     3  H    0.208810
     4  H    0.206038
     5  H    0.149952
 Sum of Mulliken charges =  -0.00000

 Dipole moment (field-independent basis, Debye):
    X=             -0.0183    Y=             -0.0639    Z=              0.0085  Tot=              0.0671
 Quadrupole moment (field-independent basis, Debye-Ang):
   XX=             -8.4064   YY=             -8.4368   ZZ=             -8.6079
   XY=             -0.2524   XZ=             -0.0816   YZ=             -0.0825

 Normal termination of Gaussian 16 at Fri Sep 22 17:16:01 2023.
