 Gaussian 16, Revision A.03,
 Gaussian 16:  ES64L-G16RevA.03 25-Dec-2016

 ----------
 # hf/3-21g
 ----------

 ------------------------
 tmpdir/M2_conf_180_6.gjf
 ------------------------
 Symbolic Z-matrix:
 Charge =  0 Multiplicity = 1

                         Standard orientation:
 ---------------------------------------------------------------------
 Center     Atomic      Atomic             Coordinates (Angstroms)
 Number     Number       Type             X           Y           Z
 ---------------------------------------------------------------------
      1          1           0       -1.063717   -0.001717    1.052824
      2          6           0       -1.205309    0.000031   -0.011195
      3         17           0        0.686587    0.000017   -0.015482
      4          1           0       -1.688036    0.893311   -0.359961
      5          1           0       -1.688377   -0.892067   -0.362497
 ---------------------------------------------------------------------

 SCF Done:  E(RHF) =  -496.663934025     A.U. after   11 cycles

 The electronic state is 1-A.
 Alpha  occ. eigenvalues -- -104.09062 -11.24857 -10.48479  -7.94848  -7.94440
 Alpha  occ. eigenvalues --   -7.94432  -1.12013  -0.93155  -0.64098  -0.63128
 Alpha  occ. eigenvalues --   -0.50649  -0.44214  -0.42911
 Alpha virt. eigenvalues --    0.15237   0.27605   0.31460   0.31566   0.74081
 Alpha virt. eigenvalues --    0.79390   0.80868   0.85273   0.92952   0.96351
 Alpha virt. eigenvalues --    1.01415   1.29447   1.31182   1.32152   1.88428

 Mulliken charges:
               1
     1  H    0.284656
     2  C   -0.707069
     3  Cl  -0.109744
     4  H    0.266085
     5  H    0.266072
 Sum of Mulliken charges =  -0.00000

 Dipole moment (field-independent basis, Debye):
    X=             -2.7772    Y=             -0.0004    Z=              0.2474  Tot=              2.7882
 Quadrupole moment (field-independent basis, Debye-Ang):
   XX=            -18.5183   YY=            -20.1783   ZZ=            -20.4820
   XY=             -0.0006   XZ=              0.5744   YZ=             -0.0001

 Normal termination of Gaussian 16 at Fri Sep 22 17:18:37 2023.
