 Gaussian 16, Revision A.03,
 Gaussian 16:  ES64L-G16RevA.03 25-Dec-2016

 ----------
 # hf/3-21g
 ----------

 ------------------------
 tmpdir/M2_conf_235_7.gjf
 ------------------------
 Symbolic Z-matrix:
 Charge =  0 Multiplicity = 1

                         Standard orientation:
 ---------------------------------------------------------------------
 Center     Atomic      Atomic             Coordinates (Angstroms)
 Number     Number       Type             X           Y           Z
 ---------------------------------------------------------------------
      1          1           0        0.388506   -0.273809    0.965854
      2          6           0        0.026926    0.011445   -0.003943
      3          1           0        0.540371   -0.565697   -0.749532
      4          1           0        0.058496    1.073236   -0.158138
      5          1           0       -1.148926   -0.302399   -0.034529
 ---------------------------------------------------------------------

 SCF Done:  E(RHF) =  -39.9667598821     A.U. after    9 cycles

 The electronic state is 1-A.
 Alpha  occ. eigenvalues --  -11.15721  -0.93788  -0.56194  -0.54889  -0.50434
 Alpha virt. eigenvalues --    0.28292   0.32305   0.35399   0.35916   0.91275
 Alpha virt. eigenvalues --    0.92480   0.97838   1.24967   1.32647   1.36239
 Alpha virt. eigenvalues --    1.37548   1.94562

 Mulliken charges:
               1
     1  H    0.205479
     2  C   -0.770908
     3  H    0.206119
     4  H    0.206990
     5  H    0.152319
 Sum of Mulliken charges =   0.00000

 Dipole moment (field-independent basis, Debye):
    X=              0.0820    Y=              0.0069    Z=              0.0225  Tot=              0.0853
 Quadrupole moment (field-independent basis, Debye-Ang):
   XX=             -8.5730   YY=             -8.3458   ZZ=             -8.5155
   XY=             -0.1192   XZ=             -0.0183   YZ=             -0.0032

 Normal termination of Gaussian 16 at Fri Sep 22 17:20:05 2023.
