 Gaussian 16, Revision A.03,
 Gaussian 16:  ES64L-G16RevA.03 25-Dec-2016

 ----------
 # hf/3-21g
 ----------

 ------------------------
 tmpdir/M2_conf_238_8.gjf
 ------------------------
 Symbolic Z-matrix:
 Charge =  0 Multiplicity = 1

                         Standard orientation:
 ---------------------------------------------------------------------
 Center     Atomic      Atomic             Coordinates (Angstroms)
 Number     Number       Type             X           Y           Z
 ---------------------------------------------------------------------
      1          1           0        0.565002    0.000071    0.811333
      2          6           0        1.216357    0.000017   -0.042104
      3         17           0       -0.675414   -0.000011   -0.020355
      4          1           0        1.809278    0.892481   -0.106372
      5          1           0        1.809624   -0.892469   -0.106310
 ---------------------------------------------------------------------

 SCF Done:  E(RHF) =  -496.532324582     A.U. after   12 cycles

 The electronic state is 1-A.
 Alpha  occ. eigenvalues -- -104.11301 -11.22662 -10.51186  -7.97544  -7.97063
 Alpha  occ. eigenvalues --   -7.97001  -1.17792  -0.91943  -0.66930  -0.62258
 Alpha  occ. eigenvalues --   -0.51615  -0.46702  -0.37788
 Alpha virt. eigenvalues --    0.11450   0.30571   0.32540   0.32918   0.73695
 Alpha virt. eigenvalues --    0.77193   0.79702   0.84260   0.92144   0.98493
 Alpha virt. eigenvalues --    1.03850   1.21017   1.31430   1.32302   1.81069

 Mulliken charges:
               1
     1  H    0.293652
     2  C   -0.742963
     3  Cl  -0.091143
     4  H    0.270246
     5  H    0.270208
 Sum of Mulliken charges =   0.00000

 Dipole moment (field-independent basis, Debye):
    X=              1.9562    Y=              0.0001    Z=              0.6448  Tot=              2.0597
 Quadrupole moment (field-independent basis, Debye-Ang):
   XX=            -18.8191   YY=            -20.0310   ZZ=            -21.5079
   XY=             -0.0003   XZ=             -0.5239   YZ=             -0.0000

 Normal termination of Gaussian 16 at Fri Sep 22 17:20:10 2023.
