 Gaussian 16, Revision A.03,
 Gaussian 16:  ES64L-G16RevA.03 25-Dec-2016

 ----------
 # hf/3-21g
 ----------

 -----------------------
 tmpdir/M2_conf_40_7.gjf
 -----------------------
 Symbolic Z-matrix:
 Charge =  0 Multiplicity = 1

                         Standard orientation:
 ---------------------------------------------------------------------
 Center     Atomic      Atomic             Coordinates (Angstroms)
 Number     Number       Type             X           Y           Z
 ---------------------------------------------------------------------
      1          1           0       -0.366894    0.963095   -0.349955
      2          6           0       -0.033495    0.001290   -0.008793
      3          1           0       -0.133931   -0.803357   -0.712402
      4          1           0       -0.463239   -0.270922    0.936403
      5          1           0        1.165032    0.103445    0.178709
 ---------------------------------------------------------------------

 SCF Done:  E(RHF) =  -39.9663331413     A.U. after    9 cycles

 The electronic state is 1-A.
 Alpha  occ. eigenvalues --  -11.15732  -0.93783  -0.56280  -0.55159  -0.50093
 Alpha virt. eigenvalues --    0.28330   0.32120   0.35477   0.35933   0.91436
 Alpha virt. eigenvalues --    0.92616   0.97505   1.25155   1.32218   1.36487
 Alpha virt. eigenvalues --    1.37579   1.94668

 Mulliken charges:
               1
     1  H    0.207550
     2  C   -0.771646
     3  H    0.207264
     4  H    0.206214
     5  H    0.150618
 Sum of Mulliken charges =  -0.00000

 Dipole moment (field-independent basis, Debye):
    X=             -0.0612    Y=             -0.0225    Z=              0.0020  Tot=              0.0653
 Quadrupole moment (field-independent basis, Debye-Ang):
   XX=             -8.6670   YY=             -8.2872   ZZ=             -8.4890
   XY=             -0.0485   XZ=             -0.0726   YZ=             -0.0085

 Normal termination of Gaussian 16 at Fri Sep 22 17:15:07 2023.
