 Gaussian 16, Revision A.03,
 Gaussian 16:  ES64L-G16RevA.03 25-Dec-2016

 ----------
 # hf/3-21g
 ----------

 ------------------------
 tmpdir/M2_conf_173_8.gjf
 ------------------------
 Symbolic Z-matrix:
 Charge =  0 Multiplicity = 1

                         Standard orientation:
 ---------------------------------------------------------------------
 Center     Atomic      Atomic             Coordinates (Angstroms)
 Number     Number       Type             X           Y           Z
 ---------------------------------------------------------------------
      1          1           0       -1.032403   -0.000857    1.047204
      2          6           0       -1.205739   -0.000006   -0.012311
      3         17           0        0.686155    0.000020   -0.016316
      4          1           0       -1.698765   -0.892202   -0.348600
      5          1           0       -1.699035    0.892748   -0.347375
 ---------------------------------------------------------------------

 SCF Done:  E(RHF) =  -496.659834009     A.U. after   11 cycles

 The electronic state is 1-A.
 Alpha  occ. eigenvalues -- -104.09114 -11.24823 -10.48539  -7.94906  -7.94497
 Alpha  occ. eigenvalues --   -7.94488  -1.12143  -0.93126  -0.64212  -0.63114
 Alpha  occ. eigenvalues --   -0.50587  -0.44280  -0.42782
 Alpha virt. eigenvalues --    0.15053   0.27665   0.31481   0.31591   0.74105
 Alpha virt. eigenvalues --    0.79291   0.80818   0.85171   0.93133   0.96501
 Alpha virt. eigenvalues --    1.01592   1.29234   1.31198   1.32065   1.87931

 Mulliken charges:
               1
     1  H    0.285565
     2  C   -0.707490
     3  Cl  -0.110307
     4  H    0.266139
     5  H    0.266093
 Sum of Mulliken charges =  -0.00000

 Dipole moment (field-independent basis, Debye):
    X=             -2.7609    Y=             -0.0003    Z=              0.2659  Tot=              2.7737
 Quadrupole moment (field-independent basis, Debye-Ang):
   XX=            -18.5153   YY=            -20.1777   ZZ=            -20.5252
   XY=             -0.0006   XZ=              0.6048   YZ=              0.0000

 Normal termination of Gaussian 16 at Fri Sep 22 17:18:27 2023.
