 Gaussian 16, Revision A.03,
 Gaussian 16:  ES64L-G16RevA.03 25-Dec-2016

 ----------
 # hf/3-21g
 ----------

 -----------------------
 tmpdir/M2_conf_15_7.gjf
 -----------------------
 Symbolic Z-matrix:
 Charge =  0 Multiplicity = 1

                         Standard orientation:
 ---------------------------------------------------------------------
 Center     Atomic      Atomic             Coordinates (Angstroms)
 Number     Number       Type             X           Y           Z
 ---------------------------------------------------------------------
      1          1           0       -0.447012    0.930800   -0.350232
      2          6           0       -0.034040   -0.000502   -0.011488
      3          1           0       -0.021197   -0.810592   -0.715904
      4          1           0       -0.468895   -0.330729    0.912647
      5          1           0        1.141347    0.213535    0.222418
 ---------------------------------------------------------------------

 SCF Done:  E(RHF) =  -39.9659364837     A.U. after    9 cycles

 The electronic state is 1-A.
 Alpha  occ. eigenvalues --  -11.15735  -0.93789  -0.56504  -0.54994  -0.50021
 Alpha virt. eigenvalues --    0.28331   0.32069   0.35402   0.36019   0.91277
 Alpha virt. eigenvalues --    0.92889   0.97467   1.25184   1.32124   1.36341
 Alpha virt. eigenvalues --    1.37812   1.94664

 Mulliken charges:
               1
     1  H    0.208031
     2  C   -0.772278
     3  H    0.207710
     4  H    0.206158
     5  H    0.150380
 Sum of Mulliken charges =   0.00000

 Dipole moment (field-independent basis, Debye):
    X=             -0.0555    Y=             -0.0338    Z=              0.0040  Tot=              0.0651
 Quadrupole moment (field-independent basis, Debye-Ang):
   XX=             -8.6517   YY=             -8.2652   ZZ=             -8.5287
   XY=             -0.0963   XZ=             -0.0884   YZ=             -0.0195

 Normal termination of Gaussian 16 at Fri Sep 22 17:14:29 2023.
