 Gaussian 16, Revision A.03,
 Gaussian 16:  ES64L-G16RevA.03 25-Dec-2016

 ----------
 # hf/3-21g
 ----------

 ------------------------
 tmpdir/M2_conf_174_2.gjf
 ------------------------
 Symbolic Z-matrix:
 Charge =  0 Multiplicity = 1

                         Standard orientation:
 ---------------------------------------------------------------------
 Center     Atomic      Atomic             Coordinates (Angstroms)
 Number     Number       Type             X           Y           Z
 ---------------------------------------------------------------------
      1          6           0        0.032227    0.000014    0.008997
      2          1           0        0.195243   -0.004801    1.018002
      3          1           0        0.395857   -0.889240   -0.469751
      4          1           0        0.391416    0.895895   -0.461112
      5          1           0       -1.175878   -0.001938   -0.141123
 ---------------------------------------------------------------------

 SCF Done:  E(RHF) =  -39.9644024616     A.U. after    9 cycles

 The electronic state is 1-A.
 Alpha  occ. eigenvalues --  -11.15124  -0.94409  -0.56763  -0.55565  -0.50286
 Alpha virt. eigenvalues --    0.28464   0.32490   0.35686   0.36819   0.89581
 Alpha virt. eigenvalues --    0.92038   0.97549   1.25277   1.33720   1.37050
 Alpha virt. eigenvalues --    1.41359   1.95363

 Mulliken charges:
               1
     1  C   -0.776991
     2  H    0.218939
     3  H    0.204487
     4  H    0.204441
     5  H    0.149125
 Sum of Mulliken charges =  -0.00000

 Dipole moment (field-independent basis, Debye):
    X=              0.0801    Y=             -0.0001    Z=              0.0381  Tot=              0.0887
 Quadrupole moment (field-independent basis, Debye-Ang):
   XX=             -8.6030   YY=             -8.3389   ZZ=             -8.3823
   XY=             -0.0011   XZ=             -0.0350   YZ=             -0.0005

 Normal termination of Gaussian 16 at Fri Sep 22 17:18:29 2023.
