 Gaussian 16, Revision A.03,
 Gaussian 16:  ES64L-G16RevA.03 25-Dec-2016

 ----------
 # hf/3-21g
 ----------

 ------------------------
 tmpdir/M2_conf_294_2.gjf
 ------------------------
 Symbolic Z-matrix:
 Charge =  0 Multiplicity = 1

                         Standard orientation:
 ---------------------------------------------------------------------
 Center     Atomic      Atomic             Coordinates (Angstroms)
 Number     Number       Type             X           Y           Z
 ---------------------------------------------------------------------
      1          6           0        0.032184    0.000014    0.007337
      2          1           0        0.214868   -0.006157    1.024240
      3          1           0        0.387472   -0.888553   -0.478890
      4          1           0        0.382928    0.896568   -0.467839
      5          1           0       -1.178372   -0.001943   -0.121534
 ---------------------------------------------------------------------

 SCF Done:  E(RHF) =  -39.9653334185     A.U. after    9 cycles

 The electronic state is 1-A.
 Alpha  occ. eigenvalues --  -11.15253  -0.94263  -0.56518  -0.55580  -0.50284
 Alpha virt. eigenvalues --    0.28438   0.32445   0.35687   0.36566   0.90089
 Alpha virt. eigenvalues --    0.92011   0.97554   1.25238   1.33538   1.37029
 Alpha virt. eigenvalues --    1.40252   1.95193

 Mulliken charges:
               1
     1  C   -0.775780
     2  H    0.216343
     3  H    0.204933
     4  H    0.204887
     5  H    0.149617
 Sum of Mulliken charges =  -0.00000

 Dipole moment (field-independent basis, Debye):
    X=              0.0786    Y=             -0.0001    Z=              0.0308  Tot=              0.0845
 Quadrupole moment (field-independent basis, Debye-Ang):
   XX=             -8.6151   YY=             -8.3501   ZZ=             -8.3839
   XY=             -0.0011   XZ=             -0.0303   YZ=             -0.0005

 Normal termination of Gaussian 16 at Fri Sep 22 17:21:40 2023.
