 Gaussian 16, Revision A.03,
 Gaussian 16:  ES64L-G16RevA.03 25-Dec-2016

 ----------
 # hf/3-21g
 ----------

 ------------------------
 tmpdir/M2_conf_262_4.gjf
 ------------------------
 Symbolic Z-matrix:
 Charge =  0 Multiplicity = 1

                         Standard orientation:
 ---------------------------------------------------------------------
 Center     Atomic      Atomic             Coordinates (Angstroms)
 Number     Number       Type             X           Y           Z
 ---------------------------------------------------------------------
      1          1           0        0.410907   -0.245415    0.961877
      2          6           0        0.024787    0.014442   -0.005374
      3          1           0        0.592187   -0.524181   -0.740598
      4          1           0       -0.029925    1.076317   -0.153804
      5          1           0       -1.121891   -0.393369   -0.035233
 ---------------------------------------------------------------------

 SCF Done:  E(RHF) =  -39.9665204305     A.U. after    9 cycles

 The electronic state is 1-A.
 Alpha  occ. eigenvalues --  -11.15720  -0.93795  -0.56360  -0.54664  -0.50477
 Alpha virt. eigenvalues --    0.28282   0.32318   0.35315   0.35977   0.91099
 Alpha virt. eigenvalues --    0.92662   0.97911   1.24936   1.32680   1.36052
 Alpha virt. eigenvalues --    1.37740   1.94519

 Mulliken charges:
               1
     1  H    0.205301
     2  C   -0.771217
     3  H    0.206152
     4  H    0.207132
     5  H    0.152632
 Sum of Mulliken charges =  -0.00000

 Dipole moment (field-independent basis, Debye):
    X=              0.0858    Y=              0.0101    Z=              0.0291  Tot=              0.0911
 Quadrupole moment (field-independent basis, Debye-Ang):
   XX=             -8.5303   YY=             -8.3500   ZZ=             -8.5535
   XY=             -0.1511   XZ=             -0.0193   YZ=             -0.0047

 Normal termination of Gaussian 16 at Fri Sep 22 17:20:47 2023.
