 Gaussian 16, Revision A.03,
 Gaussian 16:  ES64L-G16RevA.03 25-Dec-2016

 ----------
 # hf/3-21g
 ----------

 ------------------------
 tmpdir/M2_conf_183_9.gjf
 ------------------------
 Symbolic Z-matrix:
 Charge =  0 Multiplicity = 1

                         Standard orientation:
 ---------------------------------------------------------------------
 Center     Atomic      Atomic             Coordinates (Angstroms)
 Number     Number       Type             X           Y           Z
 ---------------------------------------------------------------------
      1          1           0        1.081786   -0.002909    1.055932
      2          6           0        1.205073    0.000029   -0.010562
      3         17           0       -0.686825    0.000039   -0.014986
      4          1           0        1.681953   -0.891501   -0.371055
      5          1           0        1.681850    0.893574   -0.366744
 ---------------------------------------------------------------------

 SCF Done:  E(RHF) =  -496.666138332     A.U. after   11 cycles

 The electronic state is 1-A.
 Alpha  occ. eigenvalues -- -104.09034 -11.24873 -10.48449  -7.94817  -7.94410
 Alpha  occ. eigenvalues --   -7.94403  -1.11944  -0.93172  -0.64036  -0.63135
 Alpha  occ. eigenvalues --   -0.50687  -0.44180  -0.42978
 Alpha virt. eigenvalues --    0.15339   0.27571   0.31450   0.31556   0.74065
 Alpha virt. eigenvalues --    0.79443   0.80898   0.85332   0.92863   0.96247
 Alpha virt. eigenvalues --    1.01314   1.29580   1.31184   1.32170   1.88701

 Mulliken charges:
               1
     1  H    0.284051
     2  C   -0.706822
     3  Cl  -0.109414
     4  H    0.266107
     5  H    0.266078
 Sum of Mulliken charges =  -0.00000

 Dipole moment (field-independent basis, Debye):
    X=              2.7855    Y=             -0.0007    Z=              0.2364  Tot=              2.7955
 Quadrupole moment (field-independent basis, Debye-Ang):
   XX=            -18.5203   YY=            -20.1798   ZZ=            -20.4573
   XY=              0.0013   XZ=             -0.5568   YZ=             -0.0001

 Normal termination of Gaussian 16 at Fri Sep 22 17:18:43 2023.
