 Gaussian 16, Revision A.03,
 Gaussian 16:  ES64L-G16RevA.03 25-Dec-2016

 ----------
 # hf/3-21g
 ----------

 ------------------------
 tmpdir/M2_conf_280_9.gjf
 ------------------------
 Symbolic Z-matrix:
 Charge =  0 Multiplicity = 1

                         Standard orientation:
 ---------------------------------------------------------------------
 Center     Atomic      Atomic             Coordinates (Angstroms)
 Number     Number       Type             X           Y           Z
 ---------------------------------------------------------------------
      1          1           0        1.309526   -0.012654    1.064081
      2          6           0        1.202937    0.000055   -0.004139
      3         17           0       -0.688955    0.000084   -0.007515
      4          1           0        1.592667   -0.887029   -0.466078
      5          1           0        1.592428    0.897932   -0.445410
 ---------------------------------------------------------------------

 SCF Done:  E(RHF) =  -496.684806906     A.U. after   11 cycles

 The electronic state is 1-A.
 Alpha  occ. eigenvalues -- -104.08819 -11.24984 -10.48211  -7.94585  -7.94180
 Alpha  occ. eigenvalues --   -7.94179  -1.11402  -0.93304  -0.63452  -0.63192
 Alpha  occ. eigenvalues --   -0.51154  -0.43871  -0.43530
 Alpha virt. eigenvalues --    0.16316   0.27356   0.31375   0.31438   0.73886
 Alpha virt. eigenvalues --    0.80108   0.81046   0.85631   0.92558   0.94931
 Alpha virt. eigenvalues --    1.00069   1.30770   1.31179   1.32356   1.91299

 Mulliken charges:
               1
     1  H    0.276648
     2  C   -0.703993
     3  Cl  -0.107162
     4  H    0.267266
     5  H    0.267241
 Sum of Mulliken charges =  -0.00000

 Dipole moment (field-independent basis, Debye):
    X=              2.8515    Y=             -0.0013    Z=              0.1055  Tot=              2.8534
 Quadrupole moment (field-independent basis, Debye-Ang):
   XX=            -18.5553   YY=            -20.1832   ZZ=            -20.2379
   XY=              0.0029   XZ=             -0.2806   YZ=             -0.0001

 Normal termination of Gaussian 16 at Fri Sep 22 17:21:14 2023.
