 Gaussian 16, Revision A.03,
 Gaussian 16:  ES64L-G16RevA.03 25-Dec-2016

 ----------
 # hf/3-21g
 ----------

 ------------------------
 tmpdir/M2_conf_212_5.gjf
 ------------------------
 Symbolic Z-matrix:
 Charge =  0 Multiplicity = 1

                         Standard orientation:
 ---------------------------------------------------------------------
 Center     Atomic      Atomic             Coordinates (Angstroms)
 Number     Number       Type             X           Y           Z
 ---------------------------------------------------------------------
      1          1           0       -0.423505   -0.231540    0.958566
      2          6           0       -0.023331    0.016199   -0.006149
      3          1           0       -0.623869   -0.491037   -0.737363
      4          1           0        0.086394    1.074994   -0.145872
      5          1           0        1.100964   -0.449612   -0.038438
 ---------------------------------------------------------------------

 SCF Done:  E(RHF) =  -39.9663322048     A.U. after    9 cycles

 The electronic state is 1-A.
 Alpha  occ. eigenvalues --  -11.15720  -0.93800  -0.56463  -0.54526  -0.50500
 Alpha virt. eigenvalues --    0.28275   0.32324   0.35262   0.36015   0.91003
 Alpha virt. eigenvalues --    0.92765   0.97959   1.24918   1.32696   1.35933
 Alpha virt. eigenvalues --    1.37865   1.94487

 Mulliken charges:
               1
     1  H    0.205173
     2  C   -0.771452
     3  H    0.206187
     4  H    0.207266
     5  H    0.152826
 Sum of Mulliken charges =   0.00000

 Dipole moment (field-independent basis, Debye):
    X=             -0.0879    Y=              0.0126    Z=              0.0332  Tot=              0.0948
 Quadrupole moment (field-independent basis, Debye-Ang):
   XX=             -8.4992   YY=             -8.3579   ZZ=             -8.5767
   XY=              0.1693   XZ=              0.0209   YZ=             -0.0061

 Normal termination of Gaussian 16 at Fri Sep 22 17:19:30 2023.
