 Gaussian 16, Revision A.03,
 Gaussian 16:  ES64L-G16RevA.03 25-Dec-2016

 ----------
 # hf/3-21g
 ----------

 ------------------------
 tmpdir/M2_conf_248_9.gjf
 ------------------------
 Symbolic Z-matrix:
 Charge =  0 Multiplicity = 1

                         Standard orientation:
 ---------------------------------------------------------------------
 Center     Atomic      Atomic             Coordinates (Angstroms)
 Number     Number       Type             X           Y           Z
 ---------------------------------------------------------------------
      1          1           0        1.197148   -0.005340    1.066580
      2          6           0        1.203800    0.000038   -0.006986
      3         17           0       -0.688098    0.000053   -0.011449
      4          1           0        1.638948   -0.890427   -0.419193
      5          1           0        1.638775    0.894634   -0.410843
 ---------------------------------------------------------------------

 SCF Done:  E(RHF) =  -496.677564487     A.U. after   11 cycles

 The electronic state is 1-A.
 Alpha  occ. eigenvalues -- -104.08899 -11.24948 -10.48297  -7.94669  -7.94264
 Alpha  occ. eigenvalues --   -7.94260  -1.11603  -0.93253  -0.63696  -0.63166
 Alpha  occ. eigenvalues --   -0.50938  -0.43997  -0.43316
 Alpha virt. eigenvalues --    0.15910   0.27424   0.31402   0.31489   0.73967
 Alpha virt. eigenvalues --    0.79783   0.81032   0.85598   0.92462   0.95605
 Alpha virt. eigenvalues --    1.00658   1.30254   1.31169   1.32333   1.90234

 Mulliken charges:
               1
     1  H    0.280407
     2  C   -0.705354
     3  Cl  -0.107876
     4  H    0.266425
     5  H    0.266398
 Sum of Mulliken charges =  -0.00000

 Dipole moment (field-independent basis, Debye):
    X=              2.8271    Y=             -0.0009    Z=              0.1691  Tot=              2.8322
 Quadrupole moment (field-independent basis, Debye-Ang):
   XX=            -18.5378   YY=            -20.1828   ZZ=            -20.3262
   XY=              0.0018   XZ=             -0.4268   YZ=             -0.0001

 Normal termination of Gaussian 16 at Fri Sep 22 17:20:25 2023.
