 Gaussian 16, Revision A.03,
 Gaussian 16:  ES64L-G16RevA.03 25-Dec-2016

 ----------
 # hf/3-21g
 ----------

 ------------------------
 tmpdir/M2_conf_240_9.gjf
 ------------------------
 Symbolic Z-matrix:
 Charge =  0 Multiplicity = 1

                         Standard orientation:
 ---------------------------------------------------------------------
 Center     Atomic      Atomic             Coordinates (Angstroms)
 Number     Number       Type             X           Y           Z
 ---------------------------------------------------------------------
      1          1           0        0.880610   -0.001330    1.003220
      2          6           0        1.208290    0.000019   -0.019150
      3         17           0       -0.683613    0.000027   -0.019517
      4          1           0        1.745524   -0.892161   -0.279134
      5          1           0        1.745549    0.892919   -0.277391
 ---------------------------------------------------------------------

 SCF Done:  E(RHF) =  -496.633909967     A.U. after   11 cycles

 The electronic state is 1-A.
 Alpha  occ. eigenvalues -- -104.09468 -11.24553 -10.48955  -7.95316  -7.94900
 Alpha  occ. eigenvalues --   -7.94880  -1.13039  -0.92928  -0.64852  -0.63019
 Alpha  occ. eigenvalues --   -0.50412  -0.44709  -0.41895
 Alpha virt. eigenvalues --    0.14026   0.28131   0.31624   0.31739   0.74187
 Alpha virt. eigenvalues --    0.78780   0.80539   0.84688   0.93980   0.97235
 Alpha virt. eigenvalues --    1.02359   1.27802   1.31314   1.31635   1.85323

 Mulliken charges:
               1
     1  H    0.290080
     2  C   -0.710624
     3  Cl  -0.113073
     4  H    0.266825
     5  H    0.266793
 Sum of Mulliken charges =  -0.00000

 Dipole moment (field-independent basis, Debye):
    X=              2.6460    Y=             -0.0005    Z=              0.3623  Tot=              2.6707
 Quadrupole moment (field-independent basis, Debye-Ang):
   XX=            -18.5221   YY=            -20.1624   ZZ=            -20.7803
   XY=              0.0008   XZ=             -0.7092   YZ=             -0.0000

 Normal termination of Gaussian 16 at Fri Sep 22 17:20:13 2023.
