 Gaussian 16, Revision A.03,
 Gaussian 16:  ES64L-G16RevA.03 25-Dec-2016

 ----------
 # hf/3-21g
 ----------

 ------------------------
 tmpdir/M2_conf_186_4.gjf
 ------------------------
 Symbolic Z-matrix:
 Charge =  0 Multiplicity = 1

                         Standard orientation:
 ---------------------------------------------------------------------
 Center     Atomic      Atomic             Coordinates (Angstroms)
 Number     Number       Type             X           Y           Z
 ---------------------------------------------------------------------
      1          1           0       -0.735185    0.729382   -0.349073
      2          6           0       -0.033080   -0.010650   -0.015024
      3          1           0        0.302263   -0.751476   -0.715985
      4          1           0       -0.353761   -0.505291    0.882248
      5          1           0        0.985163    0.591282    0.272955
 ---------------------------------------------------------------------

 SCF Done:  E(RHF) =  -39.9652312813     A.U. after    9 cycles

 The electronic state is 1-A.
 Alpha  occ. eigenvalues --  -11.15740  -0.93800  -0.56815  -0.54768  -0.49912
 Alpha virt. eigenvalues --    0.28331   0.31986   0.35296   0.36140   0.91074
 Alpha virt. eigenvalues --    0.93283   0.97422   1.25223   1.31991   1.36140
 Alpha virt. eigenvalues --    1.38143   1.94650

 Mulliken charges:
               1
     1  H    0.208825
     2  C   -0.773412
     3  H    0.208472
     4  H    0.206048
     5  H    0.150067
 Sum of Mulliken charges =   0.00000

 Dipole moment (field-independent basis, Debye):
    X=             -0.0337    Y=             -0.0565    Z=              0.0070  Tot=              0.0662
 Quadrupole moment (field-independent basis, Debye-Ang):
   XX=             -8.5190   YY=             -8.3448   ZZ=             -8.5857
   XY=             -0.2263   XZ=             -0.0922   YZ=             -0.0603

 Normal termination of Gaussian 16 at Fri Sep 22 17:18:51 2023.
