 Gaussian 16, Revision A.03,
 Gaussian 16:  ES64L-G16RevA.03 25-Dec-2016

 ----------
 # hf/3-21g
 ----------

 ------------------------
 tmpdir/M2_conf_134_1.gjf
 ------------------------
 Symbolic Z-matrix:
 Charge =  0 Multiplicity = 1

                         Standard orientation:
 ---------------------------------------------------------------------
 Center     Atomic      Atomic             Coordinates (Angstroms)
 Number     Number       Type             X           Y           Z
 ---------------------------------------------------------------------
      1          6           0       -0.027684   -0.013345    0.000059
      2          1           0       -0.656948    0.908565   -0.003385
      3          1           0       -0.153079   -0.592931    0.894786
      4          1           0       -0.153434   -0.600144   -0.890143
      5          1           0        1.129566    0.364579   -0.001610
 ---------------------------------------------------------------------

 SCF Done:  E(RHF) =  -39.9661348827     A.U. after    9 cycles

 The electronic state is 1-A.
 Alpha  occ. eigenvalues --  -11.16223  -0.93333  -0.55705  -0.54738  -0.50231
 Alpha virt. eigenvalues --    0.28138   0.31880   0.34886   0.35687   0.91819
 Alpha virt. eigenvalues --    0.93689   0.97937   1.24811   1.30189   1.35104
 Alpha virt. eigenvalues --    1.36839   1.94154

 Mulliken charges:
               1
     1  C   -0.764173
     2  H    0.195226
     3  H    0.207957
     4  H    0.207902
     5  H    0.153088
 Sum of Mulliken charges =   0.00000

 Dipole moment (field-independent basis, Debye):
    X=             -0.0473    Y=             -0.0439    Z=              0.0003  Tot=              0.0646
 Quadrupole moment (field-independent basis, Debye-Ang):
   XX=             -8.6639   YY=             -8.4318   ZZ=             -8.4319
   XY=             -0.0918   XZ=              0.0004   YZ=              0.0003

 Normal termination of Gaussian 16 at Fri Sep 22 17:17:27 2023.
