 Gaussian 16, Revision A.03,
 Gaussian 16:  ES64L-G16RevA.03 25-Dec-2016

 ----------
 # hf/3-21g
 ----------

 ------------------------
 tmpdir/M2_conf_140_5.gjf
 ------------------------
 Symbolic Z-matrix:
 Charge =  0 Multiplicity = 1

                         Standard orientation:
 ---------------------------------------------------------------------
 Center     Atomic      Atomic             Coordinates (Angstroms)
 Number     Number       Type             X           Y           Z
 ---------------------------------------------------------------------
      1          1           0        0.585201    0.853047   -0.348947
      2          6           0        0.034131   -0.004861   -0.013532
      3          1           0       -0.133478   -0.798468   -0.716887
      4          1           0        0.429325   -0.417372    0.895460
      5          1           0       -1.085834    0.391956    0.251564
 ---------------------------------------------------------------------

 SCF Done:  E(RHF) =  -39.9655566267     A.U. after    9 cycles

 The electronic state is 1-A.
 Alpha  occ. eigenvalues --  -11.15738  -0.93794  -0.56684  -0.54862  -0.49960
 Alpha virt. eigenvalues --    0.28332   0.32023   0.35340   0.36089   0.91163
 Alpha virt. eigenvalues --    0.93107   0.97439   1.25207   1.32051   1.36218
 Alpha virt. eigenvalues --    1.38005   1.94659

 Mulliken charges:
               1
     1  H    0.208498
     2  C   -0.772892
     3  H    0.208127
     4  H    0.206070
     5  H    0.150196
 Sum of Mulliken charges =   0.00000

 Dipole moment (field-independent basis, Debye):
    X=              0.0461    Y=             -0.0461    Z=              0.0057  Tot=              0.0655
 Quadrupole moment (field-independent basis, Debye-Ang):
   XX=             -8.6044   YY=             -8.2829   ZZ=             -8.5605
   XY=              0.1666   XZ=              0.0944   YZ=             -0.0380

 Normal termination of Gaussian 16 at Fri Sep 22 17:17:36 2023.
