 Gaussian 16, Revision A.03,
 Gaussian 16:  ES64L-G16RevA.03 25-Dec-2016

 ----------
 # hf/3-21g
 ----------

 ------------------------
 tmpdir/M2_conf_128_3.gjf
 ------------------------
 Symbolic Z-matrix:
 Charge =  0 Multiplicity = 1

                         Standard orientation:
 ---------------------------------------------------------------------
 Center     Atomic      Atomic             Coordinates (Angstroms)
 Number     Number       Type             X           Y           Z
 ---------------------------------------------------------------------
      1          6           0       -1.421133    0.000016    0.000010
      2         17           0        0.805367   -0.000012   -0.000003
      3          1           0       -1.721501   -0.278187    0.992268
      4          1           0       -1.721182    0.998726   -0.255259
      5          1           0       -1.721747   -0.720426   -0.737021
 ---------------------------------------------------------------------

 SCF Done:  E(RHF) =  -496.664658146     A.U. after   10 cycles

 The electronic state is 1-A.
 Alpha  occ. eigenvalues -- -104.08082 -11.28496 -10.46873  -7.93204  -7.92915
 Alpha  occ. eigenvalues --   -7.92915  -1.05143  -0.96275  -0.63814  -0.63810
 Alpha  occ. eigenvalues --   -0.45792  -0.42679  -0.42679
 Alpha virt. eigenvalues --    0.06980   0.26000   0.30668   0.30672   0.73360
 Alpha virt. eigenvalues --    0.79194   0.79199   0.87264   0.93587   0.93596
 Alpha virt. eigenvalues --    1.02791   1.28618   1.29362   1.29372   1.82995

 Mulliken charges:
               1
     1  C   -0.524330
     2  Cl  -0.286878
     3  H    0.270420
     4  H    0.270411
     5  H    0.270377
 Sum of Mulliken charges =  -0.00000

 Dipole moment (field-independent basis, Debye):
    X=             -4.1534    Y=              0.0001    Z=              0.0001  Tot=              4.1534
 Quadrupole moment (field-independent basis, Debye-Ang):
   XX=            -16.3198   YY=            -20.3748   ZZ=            -20.3762
   XY=              0.0005   XZ=             -0.0001   YZ=             -0.0001

 Normal termination of Gaussian 16 at Fri Sep 22 17:17:19 2023.
