 Gaussian 16, Revision A.03,
 Gaussian 16:  ES64L-G16RevA.03 25-Dec-2016

 ----------
 # hf/3-21g
 ----------

 ------------------------
 tmpdir/M2_conf_222_1.gjf
 ------------------------
 Symbolic Z-matrix:
 Charge =  0 Multiplicity = 1

                         Standard orientation:
 ---------------------------------------------------------------------
 Center     Atomic      Atomic             Coordinates (Angstroms)
 Number     Number       Type             X           Y           Z
 ---------------------------------------------------------------------
      1          6           0       -0.032223   -0.000060    0.010616
      2          1           0       -0.175845   -0.002286    1.011562
      3          1           0       -0.400894   -0.891965   -0.459245
      4          1           0       -0.403055    0.892974   -0.455838
      5          1           0        1.173133    0.001637   -0.160174
 ---------------------------------------------------------------------

 SCF Done:  E(RHF) =  -39.9632581340     A.U. after    9 cycles

 The electronic state is 1-A.
 Alpha  occ. eigenvalues --  -11.14998  -0.94558  -0.57008  -0.55547  -0.50288
 Alpha virt. eigenvalues --    0.28488   0.32530   0.35683   0.37071   0.89084
 Alpha virt. eigenvalues --    0.92061   0.97550   1.25314   1.33876   1.37067
 Alpha virt. eigenvalues --    1.42506   1.95543

 Mulliken charges:
               1
     1  C   -0.778102
     2  H    0.221438
     3  H    0.204043
     4  H    0.203989
     5  H    0.148632
 Sum of Mulliken charges =  -0.00000

 Dipole moment (field-independent basis, Debye):
    X=             -0.0814    Y=             -0.0003    Z=              0.0452  Tot=              0.0931
 Quadrupole moment (field-independent basis, Debye-Ang):
   XX=             -8.5904   YY=             -8.3283   ZZ=             -8.3806
   XY=             -0.0005   XZ=              0.0405   YZ=             -0.0001

 Normal termination of Gaussian 16 at Fri Sep 22 17:19:45 2023.
