 Gaussian 16, Revision A.03,
 Gaussian 16:  ES64L-G16RevA.03 25-Dec-2016

 ----------
 # hf/3-21g
 ----------

 ------------------------
 tmpdir/M2_conf_138_8.gjf
 ------------------------
 Symbolic Z-matrix:
 Charge =  0 Multiplicity = 1

                         Standard orientation:
 ---------------------------------------------------------------------
 Center     Atomic      Atomic             Coordinates (Angstroms)
 Number     Number       Type             X           Y           Z
 ---------------------------------------------------------------------
      1          1           0       -1.326312   -0.007501    1.062737
      2          6           0       -1.202848    0.000014   -0.003714
      3         17           0        0.689050    0.000054   -0.006896
      4          1           0       -1.585122   -0.889203   -0.467760
      5          1           0       -1.585319    0.895705   -0.455457
 ---------------------------------------------------------------------

 SCF Done:  E(RHF) =  -496.685593694     A.U. after   11 cycles

 The electronic state is 1-A.
 Alpha  occ. eigenvalues -- -104.08811 -11.24987 -10.48202  -7.94576  -7.94172
 Alpha  occ. eigenvalues --   -7.94170  -1.11381  -0.93309  -0.63426  -0.63193
 Alpha  occ. eigenvalues --   -0.51180  -0.43855  -0.43554
 Alpha virt. eigenvalues --    0.16362   0.27350   0.31374   0.31431   0.73876
 Alpha virt. eigenvalues --    0.80156   0.81036   0.85621   0.92618   0.94822
 Alpha virt. eigenvalues --    0.99992   1.30840   1.31180   1.32344   1.91416

 Mulliken charges:
               1
     1  H    0.276076
     2  C   -0.703792
     3  Cl  -0.107129
     4  H    0.267446
     5  H    0.267399
 Sum of Mulliken charges =  -0.00000

 Dipole moment (field-independent basis, Debye):
    X=             -2.8541    Y=             -0.0008    Z=              0.0959  Tot=              2.8557
 Quadrupole moment (field-independent basis, Debye-Ang):
   XX=            -18.5578   YY=            -20.1836   ZZ=            -20.2275
   XY=             -0.0018   XZ=              0.2577   YZ=              0.0000

 Normal termination of Gaussian 16 at Fri Sep 22 17:17:33 2023.
