 Gaussian 16, Revision A.03,
 Gaussian 16:  ES64L-G16RevA.03 25-Dec-2016

 ----------
 # hf/3-21g
 ----------

 ------------------------
 tmpdir/M2_conf_232_4.gjf
 ------------------------
 Symbolic Z-matrix:
 Charge =  0 Multiplicity = 1

                         Standard orientation:
 ---------------------------------------------------------------------
 Center     Atomic      Atomic             Coordinates (Angstroms)
 Number     Number       Type             X           Y           Z
 ---------------------------------------------------------------------
      1          1           0       -0.932472    0.457168   -0.345735
      2          6           0       -0.028948   -0.020123   -0.017061
      3          1           0        0.547788   -0.597608   -0.714557
      4          1           0       -0.175814   -0.613638    0.865421
      5          1           0        0.734185    0.874816    0.297238
 ---------------------------------------------------------------------

 SCF Done:  E(RHF) =  -39.9646879435     A.U. after    9 cycles

 The electronic state is 1-A.
 Alpha  occ. eigenvalues --  -11.15743  -0.93809  -0.57009  -0.54629  -0.49837
 Alpha virt. eigenvalues --    0.28330   0.31926   0.35231   0.36213   0.90947
 Alpha virt. eigenvalues --    0.93555   0.97396   1.25246   1.31901   1.36028
 Alpha virt. eigenvalues --    1.38353   1.94637

 Mulliken charges:
               1
     1  H    0.209351
     2  C   -0.774306
     3  H    0.209041
     4  H    0.206034
     5  H    0.149880
 Sum of Mulliken charges =   0.00000

 Dipole moment (field-independent basis, Debye):
    X=             -0.0084    Y=             -0.0666    Z=              0.0095  Tot=              0.0678
 Quadrupole moment (field-independent basis, Debye-Ang):
   XX=             -8.3357   YY=             -8.4943   ZZ=             -8.6222
   XY=             -0.2472   XZ=             -0.0729   YZ=             -0.0948

 Normal termination of Gaussian 16 at Fri Sep 22 17:20:01 2023.
