 Gaussian 16, Revision A.03,
 Gaussian 16:  ES64L-G16RevA.03 25-Dec-2016

 ----------
 # hf/3-21g
 ----------

 -----------------------
 tmpdir/M2_conf_89_5.gjf
 -----------------------
 Symbolic Z-matrix:
 Charge =  0 Multiplicity = 1

                         Standard orientation:
 ---------------------------------------------------------------------
 Center     Atomic      Atomic             Coordinates (Angstroms)
 Number     Number       Type             X           Y           Z
 ---------------------------------------------------------------------
      1          1           0        1.064367    0.023045   -0.303823
      2          6           0        0.027675   -0.029657   -0.030545
      3          1           0       -0.810504   -0.197445   -0.680107
      4          1           0       -0.150973   -0.719471    0.772482
      5          1           0       -0.268941    1.071812    0.394715
 ---------------------------------------------------------------------

 SCF Done:  E(RHF) =  -39.9580107585     A.U. after    9 cycles

 The electronic state is 1-A.
 Alpha  occ. eigenvalues --  -11.15774  -0.93927  -0.58447  -0.53672  -0.49081
 Alpha virt. eigenvalues --    0.28284   0.31239   0.34804   0.36747   0.90178
 Alpha virt. eigenvalues --    0.96056   0.97280   1.25345   1.31171   1.35356
 Alpha virt. eigenvalues --    1.40054   1.94467

 Mulliken charges:
               1
     1  H    0.214972
     2  C   -0.785797
     3  H    0.215851
     4  H    0.206287
     5  H    0.148688
 Sum of Mulliken charges =   0.00000

 Dipole moment (field-independent basis, Debye):
    X=             -0.0633    Y=             -0.0642    Z=              0.0338  Tot=              0.0963
 Quadrupole moment (field-independent basis, Debye-Ang):
   XX=             -7.9073   YY=             -8.6687   ZZ=             -8.9027
   XY=              0.1067   XZ=              0.0269   YZ=             -0.1542

 Normal termination of Gaussian 16 at Fri Sep 22 17:16:20 2023.
