 Gaussian 16, Revision A.03,
 Gaussian 16:  ES64L-G16RevA.03 25-Dec-2016

 ----------
 # hf/3-21g
 ----------

 ------------------------
 tmpdir/M2_conf_102_2.gjf
 ------------------------
 Symbolic Z-matrix:
 Charge =  0 Multiplicity = 1

                         Standard orientation:
 ---------------------------------------------------------------------
 Center     Atomic      Atomic             Coordinates (Angstroms)
 Number     Number       Type             X           Y           Z
 ---------------------------------------------------------------------
      1          6           0        0.030299   -0.006781   -0.000014
      2          1           0        0.486268    0.992232   -0.010414
      3          1           0        0.256044   -0.551658    0.896840
      4          1           0        0.250320   -0.568277   -0.888234
      5          1           0       -1.174429    0.168387    0.001892
 ---------------------------------------------------------------------

 SCF Done:  E(RHF) =  -39.9667553751     A.U. after    9 cycles

 The electronic state is 1-A.
 Alpha  occ. eigenvalues --  -11.16013  -0.93512  -0.55678  -0.55109  -0.50252
 Alpha virt. eigenvalues --    0.28222   0.32047   0.35201   0.35689   0.91862
 Alpha virt. eigenvalues --    0.92975   0.97770   1.24935   1.31269   1.35678
 Alpha virt. eigenvalues --    1.36887   1.94358

 Mulliken charges:
               1
     1  C   -0.767061
     2  H    0.200040
     3  H    0.207350
     4  H    0.207301
     5  H    0.152370
 Sum of Mulliken charges =  -0.00000

 Dipole moment (field-independent basis, Debye):
    X=              0.0610    Y=             -0.0244    Z=              0.0001  Tot=              0.0657
 Quadrupole moment (field-independent basis, Debye-Ang):
   XX=             -8.6725   YY=             -8.4034   ZZ=             -8.4142
   XY=              0.0444   XZ=              0.0012   YZ=              0.0002

 Normal termination of Gaussian 16 at Fri Sep 22 17:16:40 2023.
