 Gaussian 16, Revision A.03,
 Gaussian 16:  ES64L-G16RevA.03 25-Dec-2016

 ----------
 # hf/3-21g
 ----------

 ------------------------
 tmpdir/M2_conf_110_7.gjf
 ------------------------
 Symbolic Z-matrix:
 Charge =  0 Multiplicity = 1

                         Standard orientation:
 ---------------------------------------------------------------------
 Center     Atomic      Atomic             Coordinates (Angstroms)
 Number     Number       Type             X           Y           Z
 ---------------------------------------------------------------------
      1          1           0        0.464364   -0.176144    0.945813
      2          6           0        0.016982    0.021559   -0.009896
      3          1           0        0.716820   -0.379042   -0.718667
      4          1           0       -0.268469    1.049881   -0.124989
      5          1           0       -1.014604   -0.624050   -0.042781
 ---------------------------------------------------------------------

 SCF Done:  E(RHF) =  -39.9651880148     A.U. after    9 cycles

 The electronic state is 1-A.
 Alpha  occ. eigenvalues --  -11.15720  -0.93832  -0.56909  -0.53918  -0.50598
 Alpha virt. eigenvalues --    0.28238   0.32340   0.35031   0.36168   0.90647
 Alpha virt. eigenvalues --    0.93192   0.98195   1.24839   1.32730   1.35440
 Alpha virt. eigenvalues --    1.38431   1.94320

 Mulliken charges:
               1
     1  H    0.204586
     2  C   -0.772824
     3  H    0.206529
     4  H    0.207975
     5  H    0.153733
 Sum of Mulliken charges =  -0.00000

 Dipole moment (field-independent basis, Debye):
    X=              0.0989    Y=              0.0204    Z=              0.0511  Tot=              0.1132
 Quadrupole moment (field-independent basis, Debye-Ang):
   XX=             -8.3660   YY=             -8.3917   ZZ=             -8.6769
   XY=             -0.2149   XZ=             -0.0240   YZ=             -0.0105

 Normal termination of Gaussian 16 at Fri Sep 22 17:16:52 2023.
