 Gaussian 16, Revision A.03,
 Gaussian 16:  ES64L-G16RevA.03 25-Dec-2016

 ----------
 # hf/3-21g
 ----------

 -----------------------
 tmpdir/M2_conf_61_4.gjf
 -----------------------
 Symbolic Z-matrix:
 Charge =  0 Multiplicity = 1

                         Standard orientation:
 ---------------------------------------------------------------------
 Center     Atomic      Atomic             Coordinates (Angstroms)
 Number     Number       Type             X           Y           Z
 ---------------------------------------------------------------------
      1          1           0       -0.957289    0.404281   -0.344941
      2          6           0       -0.027999   -0.021609   -0.017486
      3          1           0        0.584512   -0.562170   -0.714082
      4          1           0       -0.141123   -0.626847    0.861999
      5          1           0        0.681895    0.914387    0.301941
 ---------------------------------------------------------------------

 SCF Done:  E(RHF) =  -39.9645615345     A.U. after    9 cycles

 The electronic state is 1-A.
 Alpha  occ. eigenvalues --  -11.15744  -0.93811  -0.57050  -0.54599  -0.49821
 Alpha virt. eigenvalues --    0.28329   0.31912   0.35218   0.36229   0.90920
 Alpha virt. eigenvalues --    0.93615   0.97391   1.25250   1.31881   1.36005
 Alpha virt. eigenvalues --    1.38398   1.94633

 Mulliken charges:
               1
     1  H    0.209469
     2  C   -0.774515
     3  H    0.209171
     4  H    0.206033
     5  H    0.149841
 Sum of Mulliken charges =  -0.00000

 Dipole moment (field-independent basis, Debye):
    X=             -0.0035    Y=             -0.0673    Z=              0.0101  Tot=              0.0682
 Quadrupole moment (field-independent basis, Debye-Ang):
   XX=             -8.3020   YY=             -8.5206   ZZ=             -8.6300
   XY=             -0.2395   XZ=             -0.0683   YZ=             -0.1003

 Normal termination of Gaussian 16 at Fri Sep 22 17:15:38 2023.
