 Gaussian 16, Revision A.03,
 Gaussian 16:  ES64L-G16RevA.03 25-Dec-2016

 ----------
 # hf/3-21g
 ----------

 -----------------------
 tmpdir/M2_conf_28_2.gjf
 -----------------------
 Symbolic Z-matrix:
 Charge =  0 Multiplicity = 1

                         Standard orientation:
 ---------------------------------------------------------------------
 Center     Atomic      Atomic             Coordinates (Angstroms)
 Number     Number       Type             X           Y           Z
 ---------------------------------------------------------------------
      1          6           0        0.032277    0.000013    0.014588
      2          1           0        0.145294   -0.002587    0.988247
      3          1           0        0.416572   -0.890357   -0.445584
      4          1           0        0.412404    0.894794   -0.440927
      5          1           0       -1.167931   -0.001930   -0.189263
 ---------------------------------------------------------------------

 SCF Done:  E(RHF) =  -39.9586289488     A.U. after    9 cycles

 The electronic state is 1-A.
 Alpha  occ. eigenvalues --  -11.14644  -0.95009  -0.57691  -0.55514  -0.50289
 Alpha virt. eigenvalues --    0.28547   0.32620   0.35683   0.37788   0.87678
 Alpha virt. eigenvalues --    0.92142   0.97565   1.25409   1.34219   1.37120
 Alpha virt. eigenvalues --    1.46015   1.96134

 Mulliken charges:
               1
     1  C   -0.780804
     2  H    0.228189
     3  H    0.202722
     4  H    0.202678
     5  H    0.147215
 Sum of Mulliken charges =   0.00000

 Dipole moment (field-independent basis, Debye):
    X=              0.0848    Y=             -0.0001    Z=              0.0621  Tot=              0.1051
 Quadrupole moment (field-independent basis, Debye-Ang):
   XX=             -8.5567   YY=             -8.2955   ZZ=             -8.3752
   XY=             -0.0011   XZ=             -0.0456   YZ=             -0.0005

 Normal termination of Gaussian 16 at Fri Sep 22 17:14:49 2023.
