 Gaussian 16, Revision A.03,
 Gaussian 16:  ES64L-G16RevA.03 25-Dec-2016

 ----------
 # hf/3-21g
 ----------

 ------------------------
 tmpdir/M2_conf_281_6.gjf
 ------------------------
 Symbolic Z-matrix:
 Charge =  0 Multiplicity = 1

                         Standard orientation:
 ---------------------------------------------------------------------
 Center     Atomic      Atomic             Coordinates (Angstroms)
 Number     Number       Type             X           Y           Z
 ---------------------------------------------------------------------
      1          1           0       -1.190632   -0.003016    1.066153
      2          6           0       -1.203863    0.000036   -0.007161
      3         17           0        0.688035    0.000023   -0.011661
      4          1           0       -1.641202    0.893891   -0.410112
      5          1           0       -1.641592   -0.891483   -0.414833
 ---------------------------------------------------------------------

 SCF Done:  E(RHF) =  -496.677033982     A.U. after   11 cycles

 The electronic state is 1-A.
 Alpha  occ. eigenvalues -- -104.08904 -11.24946 -10.48304  -7.94675  -7.94270
 Alpha  occ. eigenvalues --   -7.94266  -1.11619  -0.93249  -0.63713  -0.63164
 Alpha  occ. eigenvalues --   -0.50924  -0.44005  -0.43301
 Alpha virt. eigenvalues --    0.15881   0.27431   0.31404   0.31490   0.73973
 Alpha virt. eigenvalues --    0.79766   0.81026   0.85589   0.92465   0.95651
 Alpha virt. eigenvalues --    1.00694   1.30209   1.31163   1.32346   1.90160

 Mulliken charges:
               1
     1  H    0.280668
     2  C   -0.705443
     3  Cl  -0.107954
     4  H    0.266372
     5  H    0.266356
 Sum of Mulliken charges =  -0.00000

 Dipole moment (field-independent basis, Debye):
    X=             -2.8254    Y=             -0.0004    Z=              0.1730  Tot=              2.8307
 Quadrupole moment (field-independent basis, Debye-Ang):
   XX=            -18.5368   YY=            -20.1820   ZZ=            -20.3330
   XY=             -0.0008   XZ=              0.4344   YZ=             -0.0001

 Normal termination of Gaussian 16 at Fri Sep 22 17:21:16 2023.
