 Gaussian 16, Revision A.03,
 Gaussian 16:  ES64L-G16RevA.03 25-Dec-2016

 ----------
 # hf/3-21g
 ----------

 -----------------------
 tmpdir/M2_conf_41_9.gjf
 -----------------------
 Symbolic Z-matrix:
 Charge =  0 Multiplicity = 1

                         Standard orientation:
 ---------------------------------------------------------------------
 Center     Atomic      Atomic             Coordinates (Angstroms)
 Number     Number       Type             X           Y           Z
 ---------------------------------------------------------------------
      1          1           0        1.286175   -0.010202    1.065640
      2          6           0        1.203089    0.000050   -0.004691
      3         17           0       -0.688810    0.000075   -0.008366
      4          1           0        1.602643   -0.888186   -0.455899
      5          1           0        1.602417    0.896818   -0.439375
 ---------------------------------------------------------------------

 SCF Done:  E(RHF) =  -496.683591192     A.U. after   11 cycles

 The electronic state is 1-A.
 Alpha  occ. eigenvalues -- -104.08832 -11.24979 -10.48225  -7.94598  -7.94194
 Alpha  occ. eigenvalues --   -7.94192  -1.11434  -0.93295  -0.63495  -0.63186
 Alpha  occ. eigenvalues --   -0.51114  -0.43894  -0.43492
 Alpha virt. eigenvalues --    0.16244   0.27366   0.31379   0.31448   0.73901
 Alpha virt. eigenvalues --    0.80040   0.81055   0.85641   0.92495   0.95075
 Alpha virt. eigenvalues --    1.00183   1.30673   1.31175   1.32363   1.91116

 Mulliken charges:
               1
     1  H    0.277446
     2  C   -0.704262
     3  Cl  -0.107255
     4  H    0.267048
     5  H    0.267023
 Sum of Mulliken charges =  -0.00000

 Dipole moment (field-independent basis, Debye):
    X=              2.8475    Y=             -0.0012    Z=              0.1185  Tot=              2.8500
 Quadrupole moment (field-independent basis, Debye-Ang):
   XX=            -18.5520   YY=            -20.1833   ZZ=            -20.2530
   XY=              0.0025   XZ=             -0.3123   YZ=             -0.0001

 Normal termination of Gaussian 16 at Fri Sep 22 17:15:09 2023.
