 Gaussian 16, Revision A.03,
 Gaussian 16:  ES64L-G16RevA.03 25-Dec-2016

 ----------
 # hf/3-21g
 ----------

 ------------------------
 tmpdir/M2_conf_243_6.gjf
 ------------------------
 Symbolic Z-matrix:
 Charge =  0 Multiplicity = 1

                         Standard orientation:
 ---------------------------------------------------------------------
 Center     Atomic      Atomic             Coordinates (Angstroms)
 Number     Number       Type             X           Y           Z
 ---------------------------------------------------------------------
      1          1           0       -1.031198   -0.001525    1.046710
      2          6           0       -1.205757    0.000031   -0.012400
      3         17           0        0.686137    0.000016   -0.016339
      4          1           0       -1.699126    0.893227   -0.346166
      5          1           0       -1.699454   -0.892152   -0.348379
 ---------------------------------------------------------------------

 SCF Done:  E(RHF) =  -496.659658091     A.U. after   11 cycles

 The electronic state is 1-A.
 Alpha  occ. eigenvalues -- -104.09116 -11.24822 -10.48541  -7.94908  -7.94500
 Alpha  occ. eigenvalues --   -7.94490  -1.12149  -0.93124  -0.64214  -0.63115
 Alpha  occ. eigenvalues --   -0.50585  -0.44282  -0.42777
 Alpha virt. eigenvalues --    0.15044   0.27671   0.31481   0.31590   0.74107
 Alpha virt. eigenvalues --    0.79289   0.80814   0.85164   0.93135   0.96520
 Alpha virt. eigenvalues --    1.01595   1.29213   1.31194   1.32079   1.87915

 Mulliken charges:
               1
     1  H    0.285646
     2  C   -0.707529
     3  Cl  -0.110340
     4  H    0.266118
     5  H    0.266106
 Sum of Mulliken charges =  -0.00000

 Dipole moment (field-independent basis, Debye):
    X=             -2.7603    Y=             -0.0004    Z=              0.2669  Tot=              2.7731
 Quadrupole moment (field-independent basis, Debye-Ang):
   XX=            -18.5153   YY=            -20.1765   ZZ=            -20.5279
   XY=             -0.0005   XZ=              0.6050   YZ=             -0.0001

 Normal termination of Gaussian 16 at Fri Sep 22 17:20:17 2023.
