 Gaussian 16, Revision A.03,
 Gaussian 16:  ES64L-G16RevA.03 25-Dec-2016

 ----------
 # hf/3-21g
 ----------

 -----------------------
 tmpdir/M2_conf_49_0.gjf
 -----------------------
 Symbolic Z-matrix:
 Charge =  0 Multiplicity = 1

                         Standard orientation:
 ---------------------------------------------------------------------
 Center     Atomic      Atomic             Coordinates (Angstroms)
 Number     Number       Type             X           Y           Z
 ---------------------------------------------------------------------
      1          6           0       -0.027540   -0.013596   -0.000056
      2          1           0       -0.664419    0.903560   -0.002781
      3          1           0       -0.145909   -0.598637   -0.892434
      4          1           0       -0.151200   -0.596580    0.892940
      5          1           0        1.126769    0.373232    0.002610
 ---------------------------------------------------------------------

 SCF Done:  E(RHF) =  -39.9661190389     A.U. after    9 cycles

 The electronic state is 1-A.
 Alpha  occ. eigenvalues --  -11.16230  -0.93327  -0.55708  -0.54723  -0.50232
 Alpha virt. eigenvalues --    0.28134   0.31877   0.34874   0.35686   0.91830
 Alpha virt. eigenvalues --    0.93699   0.97944   1.24806   1.30163   1.35079
 Alpha virt. eigenvalues --    1.36833   1.94147

 Mulliken charges:
               1
     1  C   -0.764075
     2  H    0.195114
     3  H    0.207926
     4  H    0.207923
     5  H    0.153112
 Sum of Mulliken charges =   0.00000

 Dipole moment (field-independent basis, Debye):
    X=             -0.0468    Y=             -0.0444    Z=             -0.0001  Tot=              0.0645
 Quadrupole moment (field-independent basis, Debye-Ang):
   XX=             -8.6624   YY=             -8.4349   ZZ=             -8.4316
   XY=             -0.0941   XZ=             -0.0012   YZ=             -0.0001

 Normal termination of Gaussian 16 at Fri Sep 22 17:15:21 2023.
