 Gaussian 16, Revision A.03,
 Gaussian 16:  ES64L-G16RevA.03 25-Dec-2016

 ----------
 # hf/3-21g
 ----------

 -----------------------
 tmpdir/M2_conf_20_9.gjf
 -----------------------
 Symbolic Z-matrix:
 Charge =  0 Multiplicity = 1

                         Standard orientation:
 ---------------------------------------------------------------------
 Center     Atomic      Atomic             Coordinates (Angstroms)
 Number     Number       Type             X           Y           Z
 ---------------------------------------------------------------------
      1          1           0        1.441073   -0.116548    1.038941
      2          6           0        1.202418    0.000152   -0.001272
      3         17           0       -0.689483    0.000268   -0.002457
      4          1           0        1.532975   -0.831464   -0.594013
      5          1           0        1.532662    0.942547   -0.395526
 ---------------------------------------------------------------------

 SCF Done:  E(RHF) =  -496.689010099     A.U. after   11 cycles

 The electronic state is 1-A.
 Alpha  occ. eigenvalues -- -104.08777 -11.25000 -10.48166  -7.94541  -7.94137
 Alpha  occ. eigenvalues --   -7.94137  -1.11292  -0.93334  -0.63280  -0.63225
 Alpha  occ. eigenvalues --   -0.51305  -0.43765  -0.43683
 Alpha virt. eigenvalues --    0.16575   0.27333   0.31369   0.31394   0.73831
 Alpha virt. eigenvalues --    0.80494   0.80852   0.85520   0.93241   0.94081
 Alpha virt. eigenvalues --    0.99595   1.31178   1.31210   1.32231   1.91938

 Mulliken charges:
               1
     1  H    0.272039
     2  C   -0.702792
     3  Cl  -0.107033
     4  H    0.268904
     5  H    0.268882
 Sum of Mulliken charges =  -0.00000

 Dipole moment (field-independent basis, Debye):
    X=              2.8649    Y=             -0.0037    Z=              0.0329  Tot=              2.8650
 Quadrupole moment (field-independent basis, Debye-Ang):
   XX=            -18.5684   YY=            -20.1817   ZZ=            -20.1855
   XY=              0.0097   XZ=             -0.0919   YZ=             -0.0003

 Normal termination of Gaussian 16 at Fri Sep 22 17:14:37 2023.
