 Gaussian 16, Revision A.03,
 Gaussian 16:  ES64L-G16RevA.03 25-Dec-2016

 ----------
 # hf/3-21g
 ----------

 ------------------------
 tmpdir/M2_conf_298_9.gjf
 ------------------------
 Symbolic Z-matrix:
 Charge =  0 Multiplicity = 1

                         Standard orientation:
 ---------------------------------------------------------------------
 Center     Atomic      Atomic             Coordinates (Angstroms)
 Number     Number       Type             X           Y           Z
 ---------------------------------------------------------------------
      1          1           0        1.218019   -0.006099    1.067069
      2          6           0        1.203612    0.000040   -0.006417
      3         17           0       -0.688286    0.000057   -0.010751
      4          1           0        1.630680   -0.890083   -0.427713
      5          1           0        1.630494    0.894971   -0.418092
 ---------------------------------------------------------------------

 SCF Done:  E(RHF) =  -496.679182124     A.U. after   11 cycles

 The electronic state is 1-A.
 Alpha  occ. eigenvalues -- -104.08880 -11.24957 -10.48277  -7.94649  -7.94244
 Alpha  occ. eigenvalues --   -7.94241  -1.11557  -0.93264  -0.63644  -0.63171
 Alpha  occ. eigenvalues --   -0.50982  -0.43970  -0.43363
 Alpha virt. eigenvalues --    0.15997   0.27407   0.31396   0.31479   0.73951
 Alpha virt. eigenvalues --    0.79844   0.81045   0.85621   0.92440   0.95484
 Alpha virt. eigenvalues --    1.00542   1.30359   1.31170   1.32349   1.90466

 Mulliken charges:
               1
     1  H    0.279726
     2  C   -0.705095
     3  Cl  -0.107687
     4  H    0.266541
     5  H    0.266515
 Sum of Mulliken charges =   0.00000

 Dipole moment (field-independent basis, Debye):
    X=              2.8327    Y=             -0.0010    Z=              0.1571  Tot=              2.8371
 Quadrupole moment (field-independent basis, Debye-Ang):
   XX=            -18.5412   YY=            -20.1831   ZZ=            -20.3068
   XY=              0.0019   XZ=             -0.4010   YZ=             -0.0001

 Normal termination of Gaussian 16 at Fri Sep 22 17:21:46 2023.
