 Gaussian 16, Revision A.03,
 Gaussian 16:  ES64L-G16RevA.03 25-Dec-2016

 ----------
 # hf/3-21g
 ----------

 ------------------------
 tmpdir/M2_conf_174_0.gjf
 ------------------------
 Symbolic Z-matrix:
 Charge =  0 Multiplicity = 1

                         Standard orientation:
 ---------------------------------------------------------------------
 Center     Atomic      Atomic             Coordinates (Angstroms)
 Number     Number       Type             X           Y           Z
 ---------------------------------------------------------------------
      1          6           0        0.018317   -0.024288    0.000056
      2          1           0        0.968977    0.614783    0.001692
      3          1           0       -0.083450   -0.611615    0.892981
      4          1           0       -0.078977   -0.613071   -0.892397
      5          1           0       -0.916451    0.755632   -0.002613
 ---------------------------------------------------------------------

 SCF Done:  E(RHF) =  -39.9643775392     A.U. after    9 cycles

 The electronic state is 1-A.
 Alpha  occ. eigenvalues --  -11.16564  -0.93065  -0.55760  -0.54141  -0.50183
 Alpha virt. eigenvalues --    0.27963   0.31552   0.34442   0.35685   0.91770
 Alpha virt. eigenvalues --    0.94639   0.98411   1.24512   1.28362   1.34496
 Alpha virt. eigenvalues --    1.36758   1.93827

 Mulliken charges:
               1
     1  C   -0.759017
     2  H    0.187126
     3  H    0.208838
     4  H    0.208836
     5  H    0.154218
 Sum of Mulliken charges =  -0.00000

 Dipole moment (field-independent basis, Debye):
    X=              0.0077    Y=             -0.0683    Z=              0.0001  Tot=              0.0687
 Quadrupole moment (field-independent basis, Debye-Ang):
   XX=             -8.5821   YY=             -8.5470   ZZ=             -8.4586
   XY=              0.1561   XZ=             -0.0011   YZ=              0.0006

 Normal termination of Gaussian 16 at Fri Sep 22 17:18:29 2023.
