 Gaussian 16, Revision A.03,
 Gaussian 16:  ES64L-G16RevA.03 25-Dec-2016

 ----------
 # hf/3-21g
 ----------

 ------------------------
 tmpdir/M2_conf_169_9.gjf
 ------------------------
 Symbolic Z-matrix:
 Charge =  0 Multiplicity = 1

                         Standard orientation:
 ---------------------------------------------------------------------
 Center     Atomic      Atomic             Coordinates (Angstroms)
 Number     Number       Type             X           Y           Z
 ---------------------------------------------------------------------
      1          1           0        0.779053   -0.000950    0.958099
      2          6           0        1.210440    0.000015   -0.025020
      3         17           0       -0.681458    0.000023   -0.020783
      4          1           0        1.771501   -0.892309   -0.227909
      5          1           0        1.771594    0.892771   -0.226760
 ---------------------------------------------------------------------

 SCF Done:  E(RHF) =  -496.609733252     A.U. after   12 cycles

 The electronic state is 1-A.
 Alpha  occ. eigenvalues -- -104.09836 -11.24216 -10.49400  -7.95756  -7.95332
 Alpha  occ. eigenvalues --   -7.95300  -1.13987  -0.92725  -0.65388  -0.62893
 Alpha  occ. eigenvalues --   -0.50499  -0.45141  -0.40972
 Alpha virt. eigenvalues --    0.13238   0.28647   0.31804   0.31891   0.74170
 Alpha virt. eigenvalues --    0.78377   0.80361   0.84509   0.94239   0.97671
 Alpha virt. eigenvalues --    1.02801   1.26283   1.31305   1.31476   1.83561

 Mulliken charges:
               1
     1  H    0.292917
     2  C   -0.715006
     3  Cl  -0.113332
     4  H    0.267727
     5  H    0.267693
 Sum of Mulliken charges =  -0.00000

 Dipole moment (field-independent basis, Debye):
    X=              2.5180    Y=             -0.0005    Z=              0.4346  Tot=              2.5552
 Quadrupole moment (field-independent basis, Debye-Ang):
   XX=            -18.5611   YY=            -20.1420   ZZ=            -20.9863
   XY=              0.0007   XZ=             -0.7306   YZ=             -0.0000

 Normal termination of Gaussian 16 at Fri Sep 22 17:18:21 2023.
