 Gaussian 16, Revision A.03,
 Gaussian 16:  ES64L-G16RevA.03 25-Dec-2016

 ----------
 # hf/3-21g
 ----------

 -----------------------
 tmpdir/M2_conf_61_5.gjf
 -----------------------
 Symbolic Z-matrix:
 Charge =  0 Multiplicity = 1

                         Standard orientation:
 ---------------------------------------------------------------------
 Center     Atomic      Atomic             Coordinates (Angstroms)
 Number     Number       Type             X           Y           Z
 ---------------------------------------------------------------------
      1          1           0       -0.477873   -0.155980    0.940175
      2          6           0       -0.014541    0.022963   -0.011397
      3          1           0       -0.742239   -0.342284   -0.711157
      4          1           0        0.325072    1.035725   -0.119036
      5          1           0        0.982286   -0.675238   -0.041600
 ---------------------------------------------------------------------

 SCF Done:  E(RHF) =  -39.9645730448     A.U. after    9 cycles

 The electronic state is 1-A.
 Alpha  occ. eigenvalues --  -11.15721  -0.93848  -0.57083  -0.53679  -0.50631
 Alpha virt. eigenvalues --    0.28221   0.32338   0.34944   0.36220   0.90516
 Alpha virt. eigenvalues --    0.93369   0.98301   1.24807   1.32702   1.35279
 Alpha virt. eigenvalues --    1.38663   1.94232

 Mulliken charges:
               1
     1  H    0.204452
     2  C   -0.773516
     3  H    0.206729
     4  H    0.208226
     5  H    0.154108
 Sum of Mulliken charges =  -0.00000

 Dipole moment (field-independent basis, Debye):
    X=             -0.1039    Y=              0.0230    Z=              0.0584  Tot=              0.1214
 Quadrupole moment (field-independent basis, Debye-Ang):
   XX=             -8.3128   YY=             -8.4056   ZZ=             -8.7170
   XY=              0.2245   XZ=              0.0237   YZ=             -0.0117

 Normal termination of Gaussian 16 at Fri Sep 22 17:15:38 2023.
