 Gaussian 16, Revision A.03,
 Gaussian 16:  ES64L-G16RevA.03 25-Dec-2016

 ----------
 # hf/3-21g
 ----------

 -----------------------
 tmpdir/M2_conf_57_5.gjf
 -----------------------
 Symbolic Z-matrix:
 Charge =  0 Multiplicity = 1

                         Standard orientation:
 ---------------------------------------------------------------------
 Center     Atomic      Atomic             Coordinates (Angstroms)
 Number     Number       Type             X           Y           Z
 ---------------------------------------------------------------------
      1          1           0       -0.523864   -0.100970    0.911498
      2          6           0       -0.004128    0.026802   -0.018951
      3          1           0       -0.815852   -0.224825   -0.675008
      4          1           0        0.487937    0.978538   -0.087367
      5          1           0        0.876546   -0.813557   -0.035418
 ---------------------------------------------------------------------

 SCF Done:  E(RHF) =  -39.9602989043     A.U. after    9 cycles

 The electronic state is 1-A.
 Alpha  occ. eigenvalues --  -11.15729  -0.93961  -0.57946  -0.52470  -0.50770
 Alpha virt. eigenvalues --    0.28113   0.32302   0.34505   0.36438   0.90081
 Alpha virt. eigenvalues --    0.94097   0.98952   1.24647   1.32342   1.34619
 Alpha virt. eigenvalues --    1.39888   1.93636

 Mulliken charges:
               1
     1  H    0.203403
     2  C   -0.777699
     3  H    0.208066
     4  H    0.210059
     5  H    0.156170
 Sum of Mulliken charges =   0.00000

 Dipole moment (field-independent basis, Debye):
    X=             -0.1337    Y=              0.0302    Z=              0.0970  Tot=              0.1679
 Quadrupole moment (field-independent basis, Debye-Ang):
   XX=             -8.0849   YY=             -8.4432   ZZ=             -8.9170
   XY=              0.2380   XZ=              0.0238   YZ=             -0.0145

 Normal termination of Gaussian 16 at Fri Sep 22 17:15:32 2023.
