 Gaussian 16, Revision A.03,
 Gaussian 16:  ES64L-G16RevA.03 25-Dec-2016

 ----------
 # hf/3-21g
 ----------

 ------------------------
 tmpdir/M2_conf_258_2.gjf
 ------------------------
 Symbolic Z-matrix:
 Charge =  0 Multiplicity = 1

                         Standard orientation:
 ---------------------------------------------------------------------
 Center     Atomic      Atomic             Coordinates (Angstroms)
 Number     Number       Type             X           Y           Z
 ---------------------------------------------------------------------
      1          6           0        0.000769   -0.030872   -0.000016
      2          1           0        1.192933    0.217681   -0.001877
      3          1           0       -0.311168   -0.538931    0.892604
      4          1           0       -0.314924   -0.537172   -0.892552
      5          1           0       -0.571456    1.043656    0.001920
 ---------------------------------------------------------------------

 SCF Done:  E(RHF) =  -39.9569035185     A.U. after    9 cycles

 The electronic state is 1-A.
 Alpha  occ. eigenvalues --  -11.17376  -0.92530  -0.55904  -0.52884  -0.49895
 Alpha virt. eigenvalues --    0.27241   0.30573   0.33766   0.35683   0.91628
 Alpha virt. eigenvalues --    0.95706   1.00749   1.22340   1.25652   1.33695
 Alpha virt. eigenvalues --    1.36562   1.93002

 Mulliken charges:
               1
     1  C   -0.744358
     2  H    0.166030
     3  H    0.210834
     4  H    0.210782
     5  H    0.156713
 Sum of Mulliken charges =  -0.00000

 Dipole moment (field-independent basis, Debye):
    X=             -0.0803    Y=             -0.0723    Z=              0.0002  Tot=              0.1081
 Quadrupole moment (field-independent basis, Debye-Ang):
   XX=             -8.4848   YY=             -8.7193   ZZ=             -8.5228
   XY=              0.1362   XZ=              0.0009   YZ=             -0.0008

 Normal termination of Gaussian 16 at Fri Sep 22 17:20:41 2023.
