 Gaussian 16, Revision A.03,
 Gaussian 16:  ES64L-G16RevA.03 25-Dec-2016

 ----------
 # hf/3-21g
 ----------

 -----------------------
 tmpdir/M2_conf_37_9.gjf
 -----------------------
 Symbolic Z-matrix:
 Charge =  0 Multiplicity = 1

                         Standard orientation:
 ---------------------------------------------------------------------
 Center     Atomic      Atomic             Coordinates (Angstroms)
 Number     Number       Type             X           Y           Z
 ---------------------------------------------------------------------
      1          1           0        1.556761   -0.134898    1.005546
      2          6           0        1.202403   -0.000137    0.001113
      3         17           0       -0.689496   -0.000302    0.002180
      4          1           0        1.475311   -0.814219   -0.643083
      5          1           0        1.474935    0.955074   -0.406201
 ---------------------------------------------------------------------

 SCF Done:  E(RHF) =  -496.689116280     A.U. after   11 cycles

 The electronic state is 1-A.
 Alpha  occ. eigenvalues -- -104.08776 -11.25000 -10.48165  -7.94540  -7.94136
 Alpha  occ. eigenvalues --   -7.94136  -1.11289  -0.93335  -0.63267  -0.63235
 Alpha  occ. eigenvalues --   -0.51309  -0.43752  -0.43697
 Alpha virt. eigenvalues --    0.16581   0.27332   0.31370   0.31392   0.73830
 Alpha virt. eigenvalues --    0.80504   0.80851   0.85517   0.93280   0.94027
 Alpha virt. eigenvalues --    0.99591   1.31144   1.31252   1.32235   1.91956

 Mulliken charges:
               1
     1  H    0.268022
     2  C   -0.702785
     3  Cl  -0.107015
     4  H    0.270899
     5  H    0.270879
 Sum of Mulliken charges =   0.00000

 Dipole moment (field-independent basis, Debye):
    X=              2.8652    Y=              0.0038    Z=             -0.0283  Tot=              2.8654
 Quadrupole moment (field-independent basis, Debye-Ang):
   XX=            -18.5687   YY=            -20.1794   ZZ=            -20.1864
   XY=             -0.0116   XZ=              0.0814   YZ=              0.0002

 Normal termination of Gaussian 16 at Fri Sep 22 17:15:02 2023.
