 Gaussian 16, Revision A.03,
 Gaussian 16:  ES64L-G16RevA.03 25-Dec-2016

 ----------
 # hf/3-21g
 ----------

 ------------------------
 tmpdir/M2_conf_292_8.gjf
 ------------------------
 Symbolic Z-matrix:
 Charge =  0 Multiplicity = 1

                         Standard orientation:
 ---------------------------------------------------------------------
 Center     Atomic      Atomic             Coordinates (Angstroms)
 Number     Number       Type             X           Y           Z
 ---------------------------------------------------------------------
      1          1           0        0.337719   -0.000007    0.532103
      2          6           0        1.225733    0.000022   -0.071261
      3         17           0       -0.665261   -0.000009   -0.012684
      4          1           0        1.808485    0.892489    0.055553
      5          1           0        1.808838   -0.892461    0.055542
 ---------------------------------------------------------------------

 SCF Done:  E(RHF) =  -496.371229641     A.U. after   12 cycles

 The electronic state is 1-A.
 Alpha  occ. eigenvalues -- -104.15505 -11.18750 -10.55952  -8.02414  -8.01662
 Alpha  occ. eigenvalues --   -8.01615  -1.28719  -0.90391  -0.69820  -0.60838
 Alpha  occ. eigenvalues --   -0.54791  -0.49762  -0.32484
 Alpha virt. eigenvalues --    0.10246   0.33116   0.34326   0.38859   0.66583
 Alpha virt. eigenvalues --    0.72402   0.74756   0.78494   0.93716   0.99591
 Alpha virt. eigenvalues --    1.06068   1.24164   1.34653   1.37337   1.83387

 Mulliken charges:
               1
     1  H    0.227096
     2  C   -0.836118
     3  Cl   0.070917
     4  H    0.269068
     5  H    0.269038
 Sum of Mulliken charges =  -0.00000

 Dipole moment (field-independent basis, Debye):
    X=              0.3236    Y=             -0.0000    Z=              1.2082  Tot=              1.2507
 Quadrupole moment (field-independent basis, Debye-Ang):
   XX=            -19.3245   YY=            -19.6553   ZZ=            -22.3040
   XY=             -0.0003   XZ=              0.7891   YZ=              0.0001

 Normal termination of Gaussian 16 at Fri Sep 22 17:21:37 2023.
