 Gaussian 16, Revision A.03,
 Gaussian 16:  ES64L-G16RevA.03 25-Dec-2016

 ----------
 # hf/3-21g
 ----------

 ------------------------
 tmpdir/M2_conf_273_8.gjf
 ------------------------
 Symbolic Z-matrix:
 Charge =  0 Multiplicity = 1

                         Standard orientation:
 ---------------------------------------------------------------------
 Center     Atomic      Atomic             Coordinates (Angstroms)
 Number     Number       Type             X           Y           Z
 ---------------------------------------------------------------------
      1          1           0       -0.641212   -0.000117    0.872895
      2          6           0       -1.214008   -0.000015   -0.035137
      3         17           0        0.677842    0.000012   -0.021073
      4          1           0       -1.798860   -0.892470   -0.151975
      5          1           0       -1.799198    0.892480   -0.151858
 ---------------------------------------------------------------------

 SCF Done:  E(RHF) =  -496.564946471     A.U. after   12 cycles

 The electronic state is 1-A.
 Alpha  occ. eigenvalues -- -104.10623 -11.23397 -10.50366  -7.96719  -7.96268
 Alpha  occ. eigenvalues --   -7.96217  -1.16040  -0.92296  -0.66300  -0.62563
 Alpha  occ. eigenvalues --   -0.51042  -0.46016  -0.39141
 Alpha virt. eigenvalues --    0.12087   0.29742   0.32234   0.32316   0.73964
 Alpha virt. eigenvalues --    0.77688   0.80063   0.84513   0.93439   0.98204
 Alpha virt. eigenvalues --    1.03420   1.23027   1.31136   1.31899   1.81634

 Mulliken charges:
               1
     1  H    0.295203
     2  C   -0.728494
     3  Cl  -0.105315
     4  H    0.269323
     5  H    0.269284
 Sum of Mulliken charges =  -0.00000

 Dipole moment (field-independent basis, Debye):
    X=             -2.2221    Y=             -0.0002    Z=              0.5554  Tot=              2.2905
 Quadrupole moment (field-independent basis, Debye-Ang):
   XX=            -18.6922   YY=            -20.0868   ZZ=            -21.3083
   XY=             -0.0003   XZ=              0.6543   YZ=              0.0000

 Normal termination of Gaussian 16 at Fri Sep 22 17:21:03 2023.
