 Gaussian 16, Revision A.03,
 Gaussian 16:  ES64L-G16RevA.03 25-Dec-2016

 ----------
 # hf/3-21g
 ----------

 ------------------------
 tmpdir/M2_conf_260_5.gjf
 ------------------------
 Symbolic Z-matrix:
 Charge =  0 Multiplicity = 1

                         Standard orientation:
 ---------------------------------------------------------------------
 Center     Atomic      Atomic             Coordinates (Angstroms)
 Number     Number       Type             X           Y           Z
 ---------------------------------------------------------------------
      1          1           0        0.627870    0.822795   -0.348519
      2          6           0        0.033976   -0.006397   -0.013977
      3          1           0       -0.180061   -0.789152   -0.716892
      4          1           0        0.410831   -0.442784    0.891648
      5          1           0       -1.062496    0.447522    0.257626
 ---------------------------------------------------------------------

 SCF Done:  E(RHF) =  -39.9654610164     A.U. after    9 cycles

 The electronic state is 1-A.
 Alpha  occ. eigenvalues --  -11.15738  -0.93796  -0.56725  -0.54833  -0.49946
 Alpha virt. eigenvalues --    0.28332   0.32012   0.35326   0.36105   0.91136
 Alpha virt. eigenvalues --    0.93160   0.97433   1.25212   1.32033   1.36194
 Alpha virt. eigenvalues --    1.38048   1.94657

 Mulliken charges:
               1
     1  H    0.208597
     2  C   -0.773048
     3  H    0.208230
     4  H    0.206065
     5  H    0.150156
 Sum of Mulliken charges =  -0.00000

 Dipole moment (field-independent basis, Debye):
    X=              0.0429    Y=             -0.0493    Z=              0.0062  Tot=              0.0657
 Quadrupole moment (field-independent basis, Debye-Ang):
   XX=             -8.5843   YY=             -8.2961   ZZ=             -8.5679
   XY=              0.1857   XZ=              0.0944   YZ=             -0.0439

 Normal termination of Gaussian 16 at Fri Sep 22 17:20:44 2023.
