 Gaussian 16, Revision A.03,
 Gaussian 16:  ES64L-G16RevA.03 25-Dec-2016

 ----------
 # hf/3-21g
 ----------

 -----------------------
 tmpdir/M2_conf_84_4.gjf
 -----------------------
 Symbolic Z-matrix:
 Charge =  0 Multiplicity = 1

                         Standard orientation:
 ---------------------------------------------------------------------
 Center     Atomic      Atomic             Coordinates (Angstroms)
 Number     Number       Type             X           Y           Z
 ---------------------------------------------------------------------
      1          1           0        0.370130   -0.289473    0.970284
      2          6           0        0.028652    0.008248   -0.002825
      3          1           0        0.482157   -0.610593   -0.753808
      4          1           0        0.144395    1.061782   -0.173921
      5          1           0       -1.168593   -0.211203   -0.025604
 ---------------------------------------------------------------------

 SCF Done:  E(RHF) =  -39.9669047026     A.U. after    9 cycles

 The electronic state is 1-A.
 Alpha  occ. eigenvalues --  -11.15722  -0.93783  -0.56037  -0.55100  -0.50392
 Alpha virt. eigenvalues --    0.28301   0.32289   0.35482   0.35852   0.91431
 Alpha virt. eigenvalues --    0.92332   0.97776   1.24995   1.32600   1.36439
 Alpha virt. eigenvalues --    1.37366   1.94594

 Mulliken charges:
               1
     1  H    0.205766
     2  C   -0.770721
     3  H    0.206148
     4  H    0.206769
     5  H    0.152038
 Sum of Mulliken charges =  -0.00000

 Dipole moment (field-independent basis, Debye):
    X=              0.0788    Y=              0.0039    Z=              0.0163  Tot=              0.0806
 Quadrupole moment (field-independent basis, Debye-Ang):
   XX=             -8.6068   YY=             -8.3473   ZZ=             -8.4808
   XY=             -0.0850   XZ=             -0.0136   YZ=             -0.0015

 Normal termination of Gaussian 16 at Fri Sep 22 17:16:13 2023.
