 Gaussian 16, Revision A.03,
 Gaussian 16:  ES64L-G16RevA.03 25-Dec-2016

 ----------
 # hf/3-21g
 ----------

 ------------------------
 tmpdir/M2_conf_280_3.gjf
 ------------------------
 Symbolic Z-matrix:
 Charge =  0 Multiplicity = 1

                         Standard orientation:
 ---------------------------------------------------------------------
 Center     Atomic      Atomic             Coordinates (Angstroms)
 Number     Number       Type             X           Y           Z
 ---------------------------------------------------------------------
      1          6           0       -2.488080    0.000007    0.000008
      2         17           0        1.370220   -0.000007   -0.000002
      3          1           0       -2.788448   -0.278197    0.992265
      4          1           0       -2.788137    0.998714   -0.255263
      5          1           0       -2.788684   -0.720439   -0.737023
 ---------------------------------------------------------------------

 SCF Done:  E(RHF) =  -496.495584166     A.U. after   10 cycles

 The electronic state is 1-A.
 Alpha  occ. eigenvalues -- -103.98591 -11.38886 -10.37368  -7.83687  -7.83509
 Alpha  occ. eigenvalues --   -7.83509  -1.07032  -0.92565  -0.72274  -0.72269
 Alpha  occ. eigenvalues --   -0.34513  -0.34513  -0.30767
 Alpha virt. eigenvalues --   -0.11657   0.19573   0.24168   0.24172   0.74748
 Alpha virt. eigenvalues --    0.78426   0.78439   0.83522   0.90200   0.90200
 Alpha virt. eigenvalues --    0.95158   1.09265   1.20977   1.20986   1.61553

 Mulliken charges:
               1
     1  C   -0.336563
     2  Cl  -0.607411
     3  H    0.314661
     4  H    0.314670
     5  H    0.314644
 Sum of Mulliken charges =  -0.00000

 Dipole moment (field-independent basis, Debye):
    X=            -11.6407    Y=              0.0001    Z=              0.0001  Tot=             11.6407
 Quadrupole moment (field-independent basis, Debye-Ang):
   XX=             -4.3094   YY=            -20.3788   ZZ=            -20.3805
   XY=              0.0002   XZ=              0.0000   YZ=             -0.0001

 Normal termination of Gaussian 16 at Fri Sep 22 17:21:14 2023.
