 Gaussian 16, Revision A.03,
 Gaussian 16:  ES64L-G16RevA.03 25-Dec-2016

 ----------
 # hf/3-21g
 ----------

 ------------------------
 tmpdir/M2_conf_111_9.gjf
 ------------------------
 Symbolic Z-matrix:
 Charge =  0 Multiplicity = 1

                         Standard orientation:
 ---------------------------------------------------------------------
 Center     Atomic      Atomic             Coordinates (Angstroms)
 Number     Number       Type             X           Y           Z
 ---------------------------------------------------------------------
      1          1           0        1.264314   -0.008513    1.066603
      2          6           0        1.203240    0.000047   -0.005224
      3         17           0       -0.688656    0.000068   -0.009147
      4          1           0        1.611807   -0.888974   -0.446713
      5          1           0        1.611594    0.896054   -0.433037
 ---------------------------------------------------------------------

 SCF Done:  E(RHF) =  -496.682318930     A.U. after   11 cycles

 The electronic state is 1-A.
 Alpha  occ. eigenvalues -- -104.08846 -11.24973 -10.48240  -7.94613  -7.94208
 Alpha  occ. eigenvalues --   -7.94206  -1.11469  -0.93287  -0.63539  -0.63181
 Alpha  occ. eigenvalues --   -0.51074  -0.43917  -0.43454
 Alpha virt. eigenvalues --    0.16171   0.27377   0.31384   0.31457   0.73916
 Alpha virt. eigenvalues --    0.79977   0.81058   0.85644   0.92456   0.95208
 Alpha virt. eigenvalues --    1.00294   1.30577   1.31173   1.32364   1.90926

 Mulliken charges:
               1
     1  H    0.278186
     2  C   -0.704526
     3  Cl  -0.107364
     4  H    0.266865
     5  H    0.266839
 Sum of Mulliken charges =  -0.00000

 Dipole moment (field-independent basis, Debye):
    X=              2.8433    Y=             -0.0011    Z=              0.1309  Tot=              2.8463
 Quadrupole moment (field-independent basis, Debye-Ang):
   XX=            -18.5487   YY=            -20.1833   ZZ=            -20.2687
   XY=              0.0023   XZ=             -0.3414   YZ=             -0.0001

 Normal termination of Gaussian 16 at Fri Sep 22 17:16:53 2023.
