 Gaussian 16, Revision A.03,
 Gaussian 16:  ES64L-G16RevA.03 25-Dec-2016

 ----------
 # hf/3-21g
 ----------

 -----------------------
 tmpdir/M2_conf_68_4.gjf
 -----------------------
 Symbolic Z-matrix:
 Charge =  0 Multiplicity = 1

                         Standard orientation:
 ---------------------------------------------------------------------
 Center     Atomic      Atomic             Coordinates (Angstroms)
 Number     Number       Type             X           Y           Z
 ---------------------------------------------------------------------
      1          1           0        0.428117   -0.223853    0.957720
      2          6           0        0.022707    0.016826   -0.006596
      3          1           0        0.634077   -0.482311   -0.734403
      4          1           0       -0.105059    1.073628   -0.146055
      5          1           0       -1.093377   -0.468419   -0.037687
 ---------------------------------------------------------------------

 SCF Done:  E(RHF) =  -39.9662414804     A.U. after    9 cycles

 The electronic state is 1-A.
 Alpha  occ. eigenvalues --  -11.15720  -0.93803  -0.56508  -0.54463  -0.50512
 Alpha virt. eigenvalues --    0.28271   0.32327   0.35239   0.36031   0.90961
 Alpha virt. eigenvalues --    0.92812   0.97980   1.24910   1.32704   1.35881
 Alpha virt. eigenvalues --    1.37920   1.94474

 Mulliken charges:
               1
     1  H    0.205110
     2  C   -0.771568
     3  H    0.206214
     4  H    0.207325
     5  H    0.152919
 Sum of Mulliken charges =  -0.00000

 Dipole moment (field-independent basis, Debye):
    X=              0.0891    Y=              0.0132    Z=              0.0350  Tot=              0.0967
 Quadrupole moment (field-independent basis, Debye-Ang):
   XX=             -8.4873   YY=             -8.3593   ZZ=             -8.5871
   XY=             -0.1749   XZ=             -0.0208   YZ=             -0.0064

 Normal termination of Gaussian 16 at Fri Sep 22 17:15:49 2023.
