 Gaussian 16, Revision A.03,
 Gaussian 16:  ES64L-G16RevA.03 25-Dec-2016

 ----------
 # hf/3-21g
 ----------

 -----------------------
 tmpdir/M2_conf_60_0.gjf
 -----------------------
 Symbolic Z-matrix:
 Charge =  0 Multiplicity = 1

                         Standard orientation:
 ---------------------------------------------------------------------
 Center     Atomic      Atomic             Coordinates (Angstroms)
 Number     Number       Type             X           Y           Z
 ---------------------------------------------------------------------
      1          6           0       -0.031854    0.000057    0.001972
      2          1           0       -0.295135   -0.011849    1.032918
      3          1           0       -0.346733    0.899697   -0.492115
      4          1           0       -0.351868   -0.885549   -0.513681
      5          1           0        1.184859   -0.002640   -0.038953
 ---------------------------------------------------------------------

 SCF Done:  E(RHF) =  -39.9668012668     A.U. after    9 cycles

 The electronic state is 1-A.
 Alpha  occ. eigenvalues --  -11.15617  -0.93882  -0.55839  -0.55622  -0.50274
 Alpha virt. eigenvalues --    0.28349   0.32288   0.35685   0.35883   0.91496
 Alpha virt. eigenvalues --    0.91946   0.97607   1.25111   1.32783   1.36957
 Alpha virt. eigenvalues --    1.37587   1.94767

 Mulliken charges:
               1
     1  C   -0.771948
     2  H    0.208824
     3  H    0.206082
     4  H    0.206078
     5  H    0.150964
 Sum of Mulliken charges =   0.00000

 Dipole moment (field-independent basis, Debye):
    X=             -0.0731    Y=              0.0001    Z=              0.0081  Tot=              0.0736
 Quadrupole moment (field-independent basis, Debye-Ang):
   XX=             -8.6480   YY=             -8.3809   ZZ=             -8.3888
   XY=              0.0012   XZ=              0.0099   YZ=             -0.0003

 Normal termination of Gaussian 16 at Fri Sep 22 17:15:37 2023.
