 Gaussian 16, Revision A.03,
 Gaussian 16:  ES64L-G16RevA.03 25-Dec-2016

 ----------
 # hf/3-21g
 ----------

 ------------------------
 tmpdir/M2_conf_164_1.gjf
 ------------------------
 Symbolic Z-matrix:
 Charge =  0 Multiplicity = 1

                         Standard orientation:
 ---------------------------------------------------------------------
 Center     Atomic      Atomic             Coordinates (Angstroms)
 Number     Number       Type             X           Y           Z
 ---------------------------------------------------------------------
      1          6           0       -0.032122   -0.000060    0.006336
      2          1           0       -0.225087   -0.004331    1.028472
      3          1           0       -0.379896   -0.890941   -0.481071
      4          1           0       -0.381877    0.893988   -0.474241
      5          1           0        1.179589    0.001647   -0.111176
 ---------------------------------------------------------------------

 SCF Done:  E(RHF) =  -39.9658053495     A.U. after    9 cycles

 The electronic state is 1-A.
 Alpha  occ. eigenvalues --  -11.15335  -0.94174  -0.56368  -0.55586  -0.50283
 Alpha virt. eigenvalues --    0.28420   0.32415   0.35685   0.36410   0.90413
 Alpha virt. eigenvalues --    0.91990   0.97561   1.25211   1.33407   1.37013
 Alpha virt. eigenvalues --    1.39593   1.95091

 Mulliken charges:
               1
     1  C   -0.774976
     2  H    0.214684
     3  H    0.205213
     4  H    0.205158
     5  H    0.149923
 Sum of Mulliken charges =  -0.00000

 Dipole moment (field-independent basis, Debye):
    X=             -0.0775    Y=             -0.0003    Z=              0.0263  Tot=              0.0819
 Quadrupole moment (field-independent basis, Debye-Ang):
   XX=             -8.6223   YY=             -8.3577   ZZ=             -8.3847
   XY=             -0.0005   XZ=              0.0289   YZ=             -0.0001

 Normal termination of Gaussian 16 at Fri Sep 22 17:18:13 2023.
