 Gaussian 16, Revision A.03,
 Gaussian 16:  ES64L-G16RevA.03 25-Dec-2016

 ----------
 # hf/3-21g
 ----------

 ------------------------
 tmpdir/M2_conf_129_0.gjf
 ------------------------
 Symbolic Z-matrix:
 Charge =  0 Multiplicity = 1

                         Standard orientation:
 ---------------------------------------------------------------------
 Center     Atomic      Atomic             Coordinates (Angstroms)
 Number     Number       Type             X           Y           Z
 ---------------------------------------------------------------------
      1          6           0        0.018028   -0.024498    0.000056
      2          1           0        0.975136    0.606331    0.001674
      3          1           0       -0.089072   -0.610862    0.892990
      4          1           0       -0.084633   -0.612383   -0.892388
      5          1           0       -0.909599    0.763901   -0.002613
 ---------------------------------------------------------------------

 SCF Done:  E(RHF) =  -39.9643176934     A.U. after    9 cycles

 The electronic state is 1-A.
 Alpha  occ. eigenvalues --  -11.16573  -0.93058  -0.55761  -0.54125  -0.50181
 Alpha virt. eigenvalues --    0.27957   0.31542   0.34432   0.35685   0.91768
 Alpha virt. eigenvalues --    0.94661   0.98428   1.24501   1.28314   1.34484
 Alpha virt. eigenvalues --    1.36756   1.93818

 Mulliken charges:
               1
     1  C   -0.758870
     2  H    0.186901
     3  H    0.208862
     4  H    0.208860
     5  H    0.154248
 Sum of Mulliken charges =   0.00000

 Dipole moment (field-independent basis, Debye):
    X=              0.0066    Y=             -0.0686    Z=              0.0001  Tot=              0.0689
 Quadrupole moment (field-independent basis, Debye-Ang):
   XX=             -8.5796   YY=             -8.5504   ZZ=             -8.4593
   XY=              0.1567   XZ=             -0.0011   YZ=              0.0006

 Normal termination of Gaussian 16 at Fri Sep 22 17:17:20 2023.
