 Gaussian 16, Revision A.03,
 Gaussian 16:  ES64L-G16RevA.03 25-Dec-2016

 ----------
 # hf/3-21g
 ----------

 ------------------------
 tmpdir/M2_conf_194_4.gjf
 ------------------------
 Symbolic Z-matrix:
 Charge =  0 Multiplicity = 1

                         Standard orientation:
 ---------------------------------------------------------------------
 Center     Atomic      Atomic             Coordinates (Angstroms)
 Number     Number       Type             X           Y           Z
 ---------------------------------------------------------------------
      1          1           0        0.418902   -0.235578    0.960025
      2          6           0        0.023860    0.015564   -0.005924
      3          1           0        0.611946   -0.505165   -0.737782
      4          1           0       -0.064699    1.075723   -0.150234
      5          1           0       -1.109307   -0.428364   -0.036468
 ---------------------------------------------------------------------

 SCF Done:  E(RHF) =  -39.9664021394     A.U. after    9 cycles

 The electronic state is 1-A.
 Alpha  occ. eigenvalues --  -11.15720  -0.93798  -0.56427  -0.54573  -0.50493
 Alpha virt. eigenvalues --    0.28277   0.32322   0.35281   0.36002   0.91035
 Alpha virt. eigenvalues --    0.92730   0.97941   1.24924   1.32692   1.35974
 Alpha virt. eigenvalues --    1.37821   1.94500

 Mulliken charges:
               1
     1  H    0.205213
     2  C   -0.771366
     3  H    0.206175
     4  H    0.207218
     5  H    0.152761
 Sum of Mulliken charges =  -0.00000

 Dipole moment (field-independent basis, Debye):
    X=              0.0873    Y=              0.0115    Z=              0.0318  Tot=              0.0936
 Quadrupole moment (field-independent basis, Debye-Ang):
   XX=             -8.5113   YY=             -8.3538   ZZ=             -8.5687
   XY=             -0.1625   XZ=             -0.0200   YZ=             -0.0055

 Normal termination of Gaussian 16 at Fri Sep 22 17:19:03 2023.
