 Gaussian 16, Revision A.03,
 Gaussian 16:  ES64L-G16RevA.03 25-Dec-2016

 ----------
 # hf/3-21g
 ----------

 ------------------------
 tmpdir/M2_conf_128_8.gjf
 ------------------------
 Symbolic Z-matrix:
 Charge =  0 Multiplicity = 1

                         Standard orientation:
 ---------------------------------------------------------------------
 Center     Atomic      Atomic             Coordinates (Angstroms)
 Number     Number       Type             X           Y           Z
 ---------------------------------------------------------------------
      1          1           0       -1.374201   -0.014586    1.057046
      2          6           0       -1.202620    0.000025   -0.002654
      3         17           0        0.689276    0.000075   -0.005084
      4          1           0       -1.563795   -0.885811   -0.489506
      5          1           0       -1.563979    0.898973   -0.465180
 ---------------------------------------------------------------------

 SCF Done:  E(RHF) =  -496.687426462     A.U. after   11 cycles

 The electronic state is 1-A.
 Alpha  occ. eigenvalues -- -104.08792 -11.24994 -10.48182  -7.94556  -7.94152
 Alpha  occ. eigenvalues --   -7.94152  -1.11332  -0.93322  -0.63355  -0.63205
 Alpha  occ. eigenvalues --   -0.51245  -0.43814  -0.43616
 Alpha virt. eigenvalues --    0.16474   0.27339   0.31370   0.31413   0.73852
 Alpha virt. eigenvalues --    0.80296   0.80982   0.85578   0.92837   0.94517
 Alpha virt. eigenvalues --    0.99794   1.31010   1.31190   1.32303   1.91696

 Mulliken charges:
               1
     1  H    0.274405
     2  C   -0.703301
     3  Cl  -0.107050
     4  H    0.267997
     5  H    0.267949
 Sum of Mulliken charges =   0.00000

 Dipole moment (field-independent basis, Debye):
    X=             -2.8599    Y=             -0.0011    Z=              0.0694  Tot=              2.8608
 Quadrupole moment (field-independent basis, Debye-Ang):
   XX=            -18.5634   YY=            -20.1831   ZZ=            -20.2045
   XY=             -0.0026   XZ=              0.1901   YZ=             -0.0000

 Normal termination of Gaussian 16 at Fri Sep 22 17:17:18 2023.
