 Gaussian 16, Revision A.03,
 Gaussian 16:  ES64L-G16RevA.03 25-Dec-2016

 ----------
 # hf/3-21g
 ----------

 -----------------------
 tmpdir/M2_conf_12_7.gjf
 -----------------------
 Symbolic Z-matrix:
 Charge =  0 Multiplicity = 1

                         Standard orientation:
 ---------------------------------------------------------------------
 Center     Atomic      Atomic             Coordinates (Angstroms)
 Number     Number       Type             X           Y           Z
 ---------------------------------------------------------------------
      1          1           0        0.361673   -0.301857    0.970593
      2          6           0        0.029174    0.007204   -0.002311
      3          1           0        0.465244   -0.616884   -0.759259
      4          1           0        0.171172    1.057805   -0.170383
      5          1           0       -1.173132   -0.182288   -0.027084
 ---------------------------------------------------------------------

 SCF Done:  E(RHF) =  -39.9669408101     A.U. after    9 cycles

 The electronic state is 1-A.
 Alpha  occ. eigenvalues --  -11.15722  -0.93781  -0.55984  -0.55172  -0.50376
 Alpha virt. eigenvalues --    0.28304   0.32283   0.35507   0.35832   0.91502
 Alpha virt. eigenvalues --    0.92265   0.97755   1.25005   1.32585   1.36497
 Alpha virt. eigenvalues --    1.37312   1.94604

 Mulliken charges:
               1
     1  H    0.205801
     2  C   -0.770673
     3  H    0.206159
     4  H    0.206771
     5  H    0.151942
 Sum of Mulliken charges =  -0.00000

 Dipole moment (field-independent basis, Debye):
    X=              0.0776    Y=              0.0033    Z=              0.0142  Tot=              0.0790
 Quadrupole moment (field-independent basis, Debye-Ang):
   XX=             -8.6162   YY=             -8.3510   ZZ=             -8.4681
   XY=             -0.0736   XZ=             -0.0140   YZ=             -0.0012

 Normal termination of Gaussian 16 at Fri Sep 22 17:14:25 2023.
