 Gaussian 16, Revision A.03,
 Gaussian 16:  ES64L-G16RevA.03 25-Dec-2016

 ----------
 # hf/3-21g
 ----------

 ------------------------
 tmpdir/M2_conf_164_4.gjf
 ------------------------
 Symbolic Z-matrix:
 Charge =  0 Multiplicity = 1

                         Standard orientation:
 ---------------------------------------------------------------------
 Center     Atomic      Atomic             Coordinates (Angstroms)
 Number     Number       Type             X           Y           Z
 ---------------------------------------------------------------------
      1          1           0       -1.042404    0.107896   -0.332425
      2          6           0       -0.023766   -0.028310   -0.022569
      3          1           0        0.753135   -0.317373   -0.704826
      4          1           0        0.063854   -0.683398    0.823473
      5          1           0        0.368010    1.062734    0.349194
 ---------------------------------------------------------------------

 SCF Done:  E(RHF) =  -39.9626630779     A.U. after    9 cycles

 The electronic state is 1-A.
 Alpha  occ. eigenvalues --  -11.15753  -0.93843  -0.57569  -0.54238  -0.49588
 Alpha virt. eigenvalues --    0.28320   0.31711   0.35052   0.36424   0.90607
 Alpha virt. eigenvalues --    0.94425   0.97335   1.25303   1.31625   1.35733
 Alpha virt. eigenvalues --    1.38981   1.94582

 Mulliken charges:
               1
     1  H    0.211150
     2  C   -0.777708
     3  H    0.211117
     4  H    0.206064
     5  H    0.149377
 Sum of Mulliken charges =   0.00000

 Dipole moment (field-independent basis, Debye):
    X=              0.0316    Y=             -0.0664    Z=              0.0178  Tot=              0.0757
 Quadrupole moment (field-independent basis, Debye-Ang):
   XX=             -8.0926   YY=             -8.6387   ZZ=             -8.7296
   XY=             -0.1474   XZ=             -0.0383   YZ=             -0.1339

 Normal termination of Gaussian 16 at Fri Sep 22 17:18:13 2023.
