 Gaussian 16, Revision A.03,
 Gaussian 16:  ES64L-G16RevA.03 25-Dec-2016

 ----------
 # hf/3-21g
 ----------

 -----------------------
 tmpdir/M2_conf_16_6.gjf
 -----------------------
 Symbolic Z-matrix:
 Charge =  0 Multiplicity = 1

                         Standard orientation:
 ---------------------------------------------------------------------
 Center     Atomic      Atomic             Coordinates (Angstroms)
 Number     Number       Type             X           Y           Z
 ---------------------------------------------------------------------
      1          1           0       -1.541076   -0.078050    1.016377
      2          6           0       -1.202383   -0.000041    0.000804
      3         17           0        0.689517   -0.000132    0.001555
      4          1           0       -1.482965    0.930350   -0.455549
      5          1           0       -1.483458   -0.849802   -0.592081
 ---------------------------------------------------------------------

 SCF Done:  E(RHF) =  -496.689298196     A.U. after   11 cycles

 The electronic state is 1-A.
 Alpha  occ. eigenvalues -- -104.08774 -11.25001 -10.48163  -7.94538  -7.94134
 Alpha  occ. eigenvalues --   -7.94134  -1.11284  -0.93336  -0.63259  -0.63237
 Alpha  occ. eigenvalues --   -0.51316  -0.43746  -0.43705
 Alpha virt. eigenvalues --    0.16593   0.27332   0.31370   0.31390   0.73827
 Alpha virt. eigenvalues --    0.80556   0.80803   0.85508   0.93399   0.93918
 Alpha virt. eigenvalues --    0.99557   1.31191   1.31239   1.32211   1.91982

 Mulliken charges:
               1
     1  H    0.268592
     2  C   -0.702695
     3  Cl  -0.107039
     4  H    0.270582
     5  H    0.270559
 Sum of Mulliken charges =   0.00000

 Dipole moment (field-independent basis, Debye):
    X=             -2.8658    Y=              0.0016    Z=             -0.0202  Tot=              2.8658
 Quadrupole moment (field-independent basis, Debye-Ang):
   XX=            -18.5695   YY=            -20.1791   ZZ=            -20.1842
   XY=              0.0051   XZ=             -0.0584   YZ=              0.0000

 Normal termination of Gaussian 16 at Fri Sep 22 17:14:31 2023.
