 Gaussian 16, Revision A.03,
 Gaussian 16:  ES64L-G16RevA.03 25-Dec-2016

 ----------
 # hf/3-21g
 ----------

 ------------------------
 tmpdir/M2_conf_260_0.gjf
 ------------------------
 Symbolic Z-matrix:
 Charge =  0 Multiplicity = 1

                         Standard orientation:
 ---------------------------------------------------------------------
 Center     Atomic      Atomic             Coordinates (Angstroms)
 Number     Number       Type             X           Y           Z
 ---------------------------------------------------------------------
      1          6           0        0.003834   -0.030369    0.000057
      2          1           0        1.166528    0.265709    0.000995
      3          1           0       -0.288756   -0.549097    0.893329
      4          1           0       -0.286065   -0.552585   -0.892049
      5          1           0       -0.614709    1.018187   -0.002615
 ---------------------------------------------------------------------

 SCF Done:  E(RHF) =  -39.9591148755     A.U. after    9 cycles

 The electronic state is 1-A.
 Alpha  occ. eigenvalues --  -11.17179  -0.92646  -0.55865  -0.53160  -0.49997
 Alpha virt. eigenvalues --    0.27470   0.30817   0.33888   0.35682   0.91667
 Alpha virt. eigenvalues --    0.95579   1.00058   1.23108   1.25998   1.33848
 Alpha virt. eigenvalues --    1.36606   1.93214

 Mulliken charges:
               1
     1  C   -0.748237
     2  H    0.171408
     3  H    0.210347
     4  H    0.210346
     5  H    0.156136
 Sum of Mulliken charges =  -0.00000

 Dipole moment (field-independent basis, Debye):
    X=             -0.0608    Y=             -0.0732    Z=              0.0001  Tot=              0.0952
 Quadrupole moment (field-independent basis, Debye-Ang):
   XX=             -8.4934   YY=             -8.6930   ZZ=             -8.5072
   XY=              0.1426   XZ=             -0.0009   YZ=              0.0009

 Normal termination of Gaussian 16 at Fri Sep 22 17:20:44 2023.
