 Gaussian 16, Revision A.03,
 Gaussian 16:  ES64L-G16RevA.03 25-Dec-2016

 ----------
 # hf/3-21g
 ----------

 ------------------------
 tmpdir/M2_conf_263_9.gjf
 ------------------------
 Symbolic Z-matrix:
 Charge =  0 Multiplicity = 1

                         Standard orientation:
 ---------------------------------------------------------------------
 Center     Atomic      Atomic             Coordinates (Angstroms)
 Number     Number       Type             X           Y           Z
 ---------------------------------------------------------------------
      1          1           0        1.016176   -0.002195    1.043699
      2          6           0        1.205980    0.000025   -0.012987
      3         17           0       -0.685921    0.000034   -0.016719
      4          1           0        1.704336   -0.891805   -0.342345
      5          1           0        1.704274    0.893272   -0.339205
 ---------------------------------------------------------------------

 SCF Done:  E(RHF) =  -496.657544908     A.U. after   11 cycles

 The electronic state is 1-A.
 Alpha  occ. eigenvalues -- -104.09143 -11.24803 -10.48573  -7.94940  -7.94531
 Alpha  occ. eigenvalues --   -7.94520  -1.12217  -0.93109  -0.64269  -0.63109
 Alpha  occ. eigenvalues --   -0.50558  -0.44317  -0.42709
 Alpha virt. eigenvalues --    0.14952   0.27702   0.31491   0.31604   0.74118
 Alpha virt. eigenvalues --    0.79240   0.80789   0.85114   0.93228   0.96588
 Alpha virt. eigenvalues --    1.01678   1.29109   1.31207   1.32026   1.87670

 Mulliken charges:
               1
     1  H    0.286050
     2  C   -0.707747
     3  Cl  -0.110611
     4  H    0.266169
     5  H    0.266139
 Sum of Mulliken charges =   0.00000

 Dipole moment (field-independent basis, Debye):
    X=              2.7516    Y=             -0.0006    Z=              0.2759  Tot=              2.7654
 Quadrupole moment (field-independent basis, Debye-Ang):
   XX=            -18.5141   YY=            -20.1763   ZZ=            -20.5498
   XY=              0.0011   XZ=             -0.6187   YZ=             -0.0001

 Normal termination of Gaussian 16 at Fri Sep 22 17:20:48 2023.
