 Gaussian 16, Revision A.03,
 Gaussian 16:  ES64L-G16RevA.03 25-Dec-2016

 ----------
 # hf/3-21g
 ----------

 ------------------------
 tmpdir/M2_conf_219_2.gjf
 ------------------------
 Symbolic Z-matrix:
 Charge =  0 Multiplicity = 1

                         Standard orientation:
 ---------------------------------------------------------------------
 Center     Atomic      Atomic             Coordinates (Angstroms)
 Number     Number       Type             X           Y           Z
 ---------------------------------------------------------------------
      1          6           0        0.010087   -0.028671   -0.000015
      2          1           0        1.102895    0.393715   -0.002707
      3          1           0       -0.214545   -0.580243    0.893018
      4          1           0       -0.219672   -0.579992   -0.892136
      5          1           0       -0.729199    0.938547    0.001917
 ---------------------------------------------------------------------

 SCF Done:  E(RHF) =  -39.9621334208     A.U. after    9 cycles

 The electronic state is 1-A.
 Alpha  occ. eigenvalues --  -11.16859  -0.92854  -0.55811  -0.53648  -0.50113
 Alpha virt. eigenvalues --    0.27759   0.31210   0.34139   0.35687   0.91712
 Alpha virt. eigenvalues --    0.95216   0.99092   1.24034   1.26970   1.34156
 Alpha virt. eigenvalues --    1.36695   1.93539

 Mulliken charges:
               1
     1  C   -0.754066
     2  H    0.179678
     3  H    0.209641
     4  H    0.209590
     5  H    0.155157
 Sum of Mulliken charges =  -0.00000

 Dipole moment (field-independent basis, Debye):
    X=             -0.0283    Y=             -0.0738    Z=              0.0002  Tot=              0.0790
 Quadrupole moment (field-independent basis, Debye-Ang):
   XX=             -8.5206   YY=             -8.6359   ZZ=             -8.4824
   XY=              0.1553   XZ=              0.0010   YZ=             -0.0007

 Normal termination of Gaussian 16 at Fri Sep 22 17:19:41 2023.
