 Gaussian 16, Revision A.03,
 Gaussian 16:  ES64L-G16RevA.03 25-Dec-2016

 ----------
 # hf/3-21g
 ----------

 ----------------------
 tmpdir/M2_conf_7_6.gjf
 ----------------------
 Symbolic Z-matrix:
 Charge =  0 Multiplicity = 1

                         Standard orientation:
 ---------------------------------------------------------------------
 Center     Atomic      Atomic             Coordinates (Angstroms)
 Number     Number       Type             X           Y           Z
 ---------------------------------------------------------------------
      1          1           0       -1.644965   -0.005761    0.981144
      2          6           0       -1.202700    0.000003    0.003107
      3         17           0        0.689196   -0.000048    0.005810
      4          1           0       -1.427323    0.895952   -0.544097
      5          1           0       -1.427837   -0.889398   -0.554466
 ---------------------------------------------------------------------

 SCF Done:  E(RHF) =  -496.686887353     A.U. after   11 cycles

 The electronic state is 1-A.
 Alpha  occ. eigenvalues -- -104.08795 -11.24995 -10.48184  -7.94558  -7.94154
 Alpha  occ. eigenvalues --   -7.94154  -1.11342  -0.93318  -0.63309  -0.63271
 Alpha  occ. eigenvalues --   -0.51215  -0.43766  -0.43654
 Alpha virt. eigenvalues --    0.16422   0.27328   0.31360   0.31440   0.73856
 Alpha virt. eigenvalues --    0.80189   0.81141   0.85638   0.92644   0.94493
 Alpha virt. eigenvalues --    1.00026   1.30829   1.31287   1.32405   1.91652

 Mulliken charges:
               1
     1  H    0.265259
     2  C   -0.704001
     3  Cl  -0.106680
     4  H    0.272723
     5  H    0.272699
 Sum of Mulliken charges =  -0.00000

 Dipole moment (field-independent basis, Debye):
    X=             -2.8587    Y=              0.0005    Z=             -0.0740  Tot=              2.8596
 Quadrupole moment (field-independent basis, Debye-Ang):
   XX=            -18.5601   YY=            -20.1768   ZZ=            -20.2186
   XY=              0.0019   XZ=             -0.2182   YZ=             -0.0001

 Normal termination of Gaussian 16 at Fri Sep 22 17:14:17 2023.
