 Gaussian 16, Revision A.03,
 Gaussian 16:  ES64L-G16RevA.03 25-Dec-2016

 ----------
 # hf/3-21g
 ----------

 ------------------------
 tmpdir/M2_conf_142_0.gjf
 ------------------------
 Symbolic Z-matrix:
 Charge =  0 Multiplicity = 1

                         Standard orientation:
 ---------------------------------------------------------------------
 Center     Atomic      Atomic             Coordinates (Angstroms)
 Number     Number       Type             X           Y           Z
 ---------------------------------------------------------------------
      1          6           0       -0.032250    0.000055    0.017991
      2          1           0       -0.123556   -0.000863    0.965602
      3          1           0       -0.420974    0.894263   -0.431351
      4          1           0       -0.425771   -0.891113   -0.433191
      5          1           0        1.163801   -0.002616   -0.209006
 ---------------------------------------------------------------------

 SCF Done:  E(RHF) =  -39.9523999270     A.U. after    9 cycles

 The electronic state is 1-A.
 Alpha  occ. eigenvalues --  -11.14331  -0.95457  -0.58311  -0.55483  -0.50289
 Alpha virt. eigenvalues --    0.28588   0.32682   0.35677   0.38437   0.86429
 Alpha virt. eigenvalues --    0.92222   0.97599   1.25484   1.34455   1.37148
 Alpha virt. eigenvalues --    1.49471   1.96813

 Mulliken charges:
               1
     1  C   -0.782654
     2  H    0.233906
     3  H    0.201429
     4  H    0.201421
     5  H    0.145899
 Sum of Mulliken charges =  -0.00000

 Dipole moment (field-independent basis, Debye):
    X=             -0.0874    Y=              0.0002    Z=              0.0758  Tot=              0.1156
 Quadrupole moment (field-independent basis, Debye-Ang):
   XX=             -8.5251   YY=             -8.2655   ZZ=             -8.3696
   XY=              0.0011   XZ=              0.0495   YZ=             -0.0004

 Normal termination of Gaussian 16 at Fri Sep 22 17:17:39 2023.
