 Gaussian 16, Revision A.03,
 Gaussian 16:  ES64L-G16RevA.03 25-Dec-2016

 ----------
 # hf/3-21g
 ----------

 -----------------------
 tmpdir/M2_conf_85_5.gjf
 -----------------------
 Symbolic Z-matrix:
 Charge =  0 Multiplicity = 1

                         Standard orientation:
 ---------------------------------------------------------------------
 Center     Atomic      Atomic             Coordinates (Angstroms)
 Number     Number       Type             X           Y           Z
 ---------------------------------------------------------------------
      1          1           0       -0.355909   -0.306803    0.971886
      2          6           0       -0.029781    0.005790   -0.001825
      3          1           0       -0.439531   -0.632410   -0.761705
      4          1           0       -0.203831    1.050491   -0.177650
      5          1           0        1.177955   -0.146016   -0.021584
 ---------------------------------------------------------------------

 SCF Done:  E(RHF) =  -39.9669691691     A.U. after    9 cycles

 The electronic state is 1-A.
 Alpha  occ. eigenvalues --  -11.15723  -0.93779  -0.55914  -0.55266  -0.50355
 Alpha virt. eigenvalues --    0.28307   0.32273   0.35545   0.35802   0.91572
 Alpha virt. eigenvalues --    0.92205   0.97730   1.25018   1.32559   1.36592
 Alpha virt. eigenvalues --    1.37230   1.94615

 Mulliken charges:
               1
     1  H    0.205972
     2  C   -0.770637
     3  H    0.206192
     4  H    0.206653
     5  H    0.151819
 Sum of Mulliken charges =   0.00000

 Dipole moment (field-independent basis, Debye):
    X=             -0.0762    Y=              0.0025    Z=              0.0114  Tot=              0.0771
 Quadrupole moment (field-independent basis, Debye-Ang):
   XX=             -8.6270   YY=             -8.3558   ZZ=             -8.4529
   XY=              0.0594   XZ=              0.0111   YZ=             -0.0007

 Normal termination of Gaussian 16 at Fri Sep 22 17:16:14 2023.
