 Gaussian 16, Revision A.03,
 Gaussian 16:  ES64L-G16RevA.03 25-Dec-2016

 ----------
 # hf/3-21g
 ----------

 ------------------------
 tmpdir/M2_conf_111_8.gjf
 ------------------------
 Symbolic Z-matrix:
 Charge =  0 Multiplicity = 1

                         Standard orientation:
 ---------------------------------------------------------------------
 Center     Atomic      Atomic             Coordinates (Angstroms)
 Number     Number       Type             X           Y           Z
 ---------------------------------------------------------------------
      1          1           0       -1.577275   -0.046626    1.006557
      2          6           0       -1.202454   -0.000083    0.001589
      3         17           0        0.689445   -0.000137    0.003038
      4          1           0       -1.464221   -0.866798   -0.575005
      5          1           0       -1.464342    0.916255   -0.492737
 ---------------------------------------------------------------------

 SCF Done:  E(RHF) =  -496.688780810     A.U. after   11 cycles

 The electronic state is 1-A.
 Alpha  occ. eigenvalues -- -104.08778 -11.24999 -10.48168  -7.94542  -7.94138
 Alpha  occ. eigenvalues --   -7.94138  -1.11297  -0.93332  -0.63274  -0.63241
 Alpha  occ. eigenvalues --   -0.51294  -0.43758  -0.43686
 Alpha virt. eigenvalues --    0.16557   0.27332   0.31366   0.31401   0.73834
 Alpha virt. eigenvalues --    0.80433   0.80917   0.85536   0.93129   0.94157
 Alpha virt. eigenvalues --    0.99652   1.31085   1.31258   1.32268   1.91909

 Mulliken charges:
               1
     1  H    0.267347
     2  C   -0.702956
     3  Cl  -0.106987
     4  H    0.271322
     5  H    0.271274
 Sum of Mulliken charges =   0.00000

 Dipole moment (field-independent basis, Debye):
    X=             -2.8643    Y=              0.0017    Z=             -0.0394  Tot=              2.8645
 Quadrupole moment (field-independent basis, Debye-Ang):
   XX=            -18.5677   YY=            -20.1794   ZZ=            -20.1907
   XY=              0.0053   XZ=             -0.1135   YZ=              0.0002

 Normal termination of Gaussian 16 at Fri Sep 22 17:16:53 2023.
