 Gaussian 16, Revision A.03,
 Gaussian 16:  ES64L-G16RevA.03 25-Dec-2016

 ----------
 # hf/3-21g
 ----------

 -----------------------
 tmpdir/M2_conf_58_7.gjf
 -----------------------
 Symbolic Z-matrix:
 Charge =  0 Multiplicity = 1

                         Standard orientation:
 ---------------------------------------------------------------------
 Center     Atomic      Atomic             Coordinates (Angstroms)
 Number     Number       Type             X           Y           Z
 ---------------------------------------------------------------------
      1          1           0       -0.400836    0.950486   -0.350414
      2          6           0       -0.033793    0.000653   -0.010247
      3          1           0       -0.080853   -0.808212   -0.714622
      4          1           0       -0.470765   -0.298074    0.923558
      5          1           0        1.155212    0.151879    0.202961
 ---------------------------------------------------------------------

 SCF Done:  E(RHF) =  -39.9661344390     A.U. after    9 cycles

 The electronic state is 1-A.
 Alpha  occ. eigenvalues --  -11.15734  -0.93786  -0.56399  -0.55071  -0.50055
 Alpha virt. eigenvalues --    0.28331   0.32093   0.35437   0.35979   0.91351
 Alpha virt. eigenvalues --    0.92759   0.97484   1.25170   1.32168   1.36408
 Alpha virt. eigenvalues --    1.37702   1.94667

 Mulliken charges:
               1
     1  H    0.207800
     2  C   -0.771961
     3  H    0.207489
     4  H    0.206182
     5  H    0.150491
 Sum of Mulliken charges =   0.00000

 Dipole moment (field-independent basis, Debye):
    X=             -0.0586    Y=             -0.0281    Z=              0.0030  Tot=              0.0650
 Quadrupole moment (field-independent basis, Debye-Ang):
   XX=             -8.6617   YY=             -8.2728   ZZ=             -8.5099
   XY=             -0.0699   XZ=             -0.0818   YZ=             -0.0132

 Normal termination of Gaussian 16 at Fri Sep 22 17:15:34 2023.
