 Gaussian 16, Revision A.03,
 Gaussian 16:  ES64L-G16RevA.03 25-Dec-2016

 ----------
 # hf/3-21g
 ----------

 ------------------------
 tmpdir/M2_conf_251_3.gjf
 ------------------------
 Symbolic Z-matrix:
 Charge =  0 Multiplicity = 1

                         Standard orientation:
 ---------------------------------------------------------------------
 Center     Atomic      Atomic             Coordinates (Angstroms)
 Number     Number       Type             X           Y           Z
 ---------------------------------------------------------------------
      1          6           0       -2.377383    0.000007    0.000008
      2         17           0        1.311617   -0.000007   -0.000002
      3          1           0       -2.677752   -0.278196    0.992266
      4          1           0       -2.677440    0.998715   -0.255263
      5          1           0       -2.677988   -0.720438   -0.737023
 ---------------------------------------------------------------------

 SCF Done:  E(RHF) =  -496.506179159     A.U. after   10 cycles

 The electronic state is 1-A.
 Alpha  occ. eigenvalues -- -103.99397 -11.38365 -10.38152  -7.84471  -7.84288
 Alpha  occ. eigenvalues --   -7.84288  -1.06480  -0.93222  -0.71712  -0.71707
 Alpha  occ. eigenvalues --   -0.35153  -0.35153  -0.31633
 Alpha virt. eigenvalues --   -0.10712   0.20023   0.24649   0.24653   0.73786
 Alpha virt. eigenvalues --    0.78826   0.78839   0.83445   0.89827   0.89827
 Alpha virt. eigenvalues --    0.96359   1.10446   1.21493   1.21503   1.62458

 Mulliken charges:
               1
     1  C   -0.338476
     2  Cl  -0.596208
     3  H    0.311565
     4  H    0.311573
     5  H    0.311546
 Sum of Mulliken charges =  -0.00000

 Dipole moment (field-independent basis, Debye):
    X=            -10.9279    Y=              0.0001    Z=              0.0001  Tot=             10.9279
 Quadrupole moment (field-independent basis, Debye-Ang):
   XX=             -5.6226   YY=            -20.3837   ZZ=            -20.3853
   XY=              0.0002   XZ=              0.0000   YZ=             -0.0001

 Normal termination of Gaussian 16 at Fri Sep 22 17:20:30 2023.
