 Gaussian 16, Revision A.03,
 Gaussian 16:  ES64L-G16RevA.03 25-Dec-2016

 ----------
 # hf/3-21g
 ----------

 -----------------------
 tmpdir/M2_conf_30_6.gjf
 -----------------------
 Symbolic Z-matrix:
 Charge =  0 Multiplicity = 1

                         Standard orientation:
 ---------------------------------------------------------------------
 Center     Atomic      Atomic             Coordinates (Angstroms)
 Number     Number       Type             X           Y           Z
 ---------------------------------------------------------------------
      1          1           0       -1.472802   -0.124304    1.030696
      2          6           0       -1.202375    0.000093   -0.000605
      3         17           0        0.689529    0.000132   -0.001198
      4          1           0       -1.517228    0.947032   -0.396566
      5          1           0       -1.517705   -0.825528   -0.610135
 ---------------------------------------------------------------------

 SCF Done:  E(RHF) =  -496.689372440     A.U. after   11 cycles

 The electronic state is 1-A.
 Alpha  occ. eigenvalues -- -104.08773 -11.25001 -10.48163  -7.94537  -7.94133
 Alpha  occ. eigenvalues --   -7.94133  -1.11282  -0.93336  -0.63260  -0.63234
 Alpha  occ. eigenvalues --   -0.51319  -0.43745  -0.43707
 Alpha virt. eigenvalues --    0.16599   0.27332   0.31374   0.31384   0.73826
 Alpha virt. eigenvalues --    0.80592   0.80769   0.85503   0.93448   0.93874
 Alpha virt. eigenvalues --    0.99543   1.31214   1.31223   1.32209   1.91992

 Mulliken charges:
               1
     1  H    0.270963
     2  C   -0.702655
     3  Cl  -0.107053
     4  H    0.269384
     5  H    0.269362
 Sum of Mulliken charges =  -0.00000

 Dipole moment (field-independent basis, Debye):
    X=             -2.8660    Y=             -0.0019    Z=              0.0160  Tot=              2.8660
 Quadrupole moment (field-independent basis, Debye-Ang):
   XX=            -18.5698   YY=            -20.1805   ZZ=            -20.1819
   XY=             -0.0048   XZ=              0.0445   YZ=             -0.0003

 Normal termination of Gaussian 16 at Fri Sep 22 17:14:52 2023.
