 Gaussian 16, Revision A.03,
 Gaussian 16:  ES64L-G16RevA.03 25-Dec-2016

 ----------
 # hf/3-21g
 ----------

 ------------------------
 tmpdir/M2_conf_260_7.gjf
 ------------------------
 Symbolic Z-matrix:
 Charge =  0 Multiplicity = 1

                         Standard orientation:
 ---------------------------------------------------------------------
 Center     Atomic      Atomic             Coordinates (Angstroms)
 Number     Number       Type             X           Y           Z
 ---------------------------------------------------------------------
      1          1           0        0.482176   -0.151070    0.937933
      2          6           0        0.013529    0.023505   -0.012072
      3          1           0        0.751311   -0.328472   -0.708067
      4          1           0       -0.343684    1.030468   -0.115024
      5          1           0       -0.970977   -0.691957   -0.042408
 ---------------------------------------------------------------------

 SCF Done:  E(RHF) =  -39.9642851570     A.U. after    9 cycles

 The electronic state is 1-A.
 Alpha  occ. eigenvalues --  -11.15721  -0.93855  -0.57161  -0.53570  -0.50647
 Alpha virt. eigenvalues --    0.28213   0.32339   0.34902   0.36245   0.90474
 Alpha virt. eigenvalues --    0.93429   0.98351   1.24794   1.32700   1.35195
 Alpha virt. eigenvalues --    1.38769   1.94194

 Mulliken charges:
               1
     1  H    0.204304
     2  C   -0.773833
     3  H    0.206829
     4  H    0.208416
     5  H    0.154284
 Sum of Mulliken charges =  -0.00000

 Dipole moment (field-independent basis, Debye):
    X=              0.1062    Y=              0.0238    Z=              0.0616  Tot=              0.1250
 Quadrupole moment (field-independent basis, Debye-Ang):
   XX=             -8.2920   YY=             -8.4095   ZZ=             -8.7344
   XY=             -0.2272   XZ=             -0.0244   YZ=             -0.0122

 Normal termination of Gaussian 16 at Fri Sep 22 17:20:44 2023.
