 Gaussian 16, Revision A.03,
 Gaussian 16:  ES64L-G16RevA.03 25-Dec-2016

 ----------
 # hf/3-21g
 ----------

 -----------------------
 tmpdir/M2_conf_26_4.gjf
 -----------------------
 Symbolic Z-matrix:
 Charge =  0 Multiplicity = 1

                         Standard orientation:
 ---------------------------------------------------------------------
 Center     Atomic      Atomic             Coordinates (Angstroms)
 Number     Number       Type             X           Y           Z
 ---------------------------------------------------------------------
      1          1           0        0.507271   -0.116864    0.923531
      2          6           0        0.008024    0.025679   -0.015948
      3          1           0        0.792683   -0.263598   -0.689190
      4          1           0       -0.437187    0.998924   -0.100708
      5          1           0       -0.910911   -0.772536   -0.037948
 ---------------------------------------------------------------------

 SCF Done:  E(RHF) =  -39.9622750970     A.U. after    9 cycles

 The electronic state is 1-A.
 Alpha  occ. eigenvalues --  -11.15724  -0.93909  -0.57597  -0.52958  -0.50723
 Alpha virt. eigenvalues --    0.28161   0.32324   0.34680   0.36360   0.90222
 Alpha virt. eigenvalues --    0.93826   0.98663   1.24713   1.32543   1.34847
 Alpha virt. eigenvalues --    1.39383   1.93917

 Mulliken charges:
               1
     1  H    0.203855
     2  C   -0.775899
     3  H    0.207484
     4  H    0.209252
     5  H    0.155307
 Sum of Mulliken charges =  -0.00000

 Dipole moment (field-independent basis, Debye):
    X=              0.1208    Y=              0.0281    Z=              0.0809  Tot=              0.1481
 Quadrupole moment (field-independent basis, Debye-Ang):
   XX=             -8.1726   YY=             -8.4315   ZZ=             -8.8359
   XY=             -0.2361   XZ=             -0.0238   YZ=             -0.0138

 Normal termination of Gaussian 16 at Fri Sep 22 17:14:46 2023.
