 Gaussian 16, Revision A.03,
 Gaussian 16:  ES64L-G16RevA.03 25-Dec-2016

 ----------
 # hf/3-21g
 ----------

 ------------------------
 tmpdir/M2_conf_135_7.gjf
 ------------------------
 Symbolic Z-matrix:
 Charge =  0 Multiplicity = 1

                         Standard orientation:
 ---------------------------------------------------------------------
 Center     Atomic      Atomic             Coordinates (Angstroms)
 Number     Number       Type             X           Y           Z
 ---------------------------------------------------------------------
      1          1           0        0.384279   -0.278430    0.966640
      2          6           0        0.027310    0.010811   -0.003684
      3          1           0        0.529199   -0.574196   -0.751009
      4          1           0        0.076165    1.071648   -0.159925
      5          1           0       -1.153503   -0.283888   -0.033600
 ---------------------------------------------------------------------

 SCF Done:  E(RHF) =  -39.9667964428     A.U. after    9 cycles

 The electronic state is 1-A.
 Alpha  occ. eigenvalues --  -11.15721  -0.93786  -0.56162  -0.54933  -0.50425
 Alpha virt. eigenvalues --    0.28294   0.32302   0.35416   0.35903   0.91309
 Alpha virt. eigenvalues --    0.92446   0.97825   1.24973   1.32638   1.36279
 Alpha virt. eigenvalues --    1.37511   1.94569

 Mulliken charges:
               1
     1  H    0.205527
     2  C   -0.770860
     3  H    0.206120
     4  H    0.206954
     5  H    0.152260
 Sum of Mulliken charges =   0.00000

 Dipole moment (field-independent basis, Debye):
    X=              0.0813    Y=              0.0063    Z=              0.0213  Tot=              0.0843
 Quadrupole moment (field-independent basis, Debye-Ang):
   XX=             -8.5806   YY=             -8.3457   ZZ=             -8.5081
   XY=             -0.1124   XZ=             -0.0178   YZ=             -0.0028

 Normal termination of Gaussian 16 at Fri Sep 22 17:17:29 2023.
