 Gaussian 16, Revision A.03,
 Gaussian 16:  ES64L-G16RevA.03 25-Dec-2016

 ----------
 # hf/3-21g
 ----------

 -----------------------
 tmpdir/M2_conf_18_3.gjf
 -----------------------
 Symbolic Z-matrix:
 Charge =  0 Multiplicity = 1

                         Standard orientation:
 ---------------------------------------------------------------------
 Center     Atomic      Atomic             Coordinates (Angstroms)
 Number     Number       Type             X           Y           Z
 ---------------------------------------------------------------------
      1          6           0       -1.275718    0.000018    0.000010
      2         17           0        0.728382   -0.000014   -0.000003
      3          1           0       -1.576086   -0.278184    0.992269
      4          1           0       -1.575764    0.998730   -0.255258
      5          1           0       -1.576334   -0.720423   -0.737021
 ---------------------------------------------------------------------

 SCF Done:  E(RHF) =  -496.685850332     A.U. after   10 cycles

 The electronic state is 1-A.
 Alpha  occ. eigenvalues -- -104.08716 -11.26208 -10.47839  -7.94195  -7.93839
 Alpha  occ. eigenvalues --   -7.93839  -1.08769  -0.94433  -0.63187  -0.63183
 Alpha  occ. eigenvalues --   -0.49395  -0.43550  -0.43549
 Alpha virt. eigenvalues --    0.12935   0.26890   0.31234   0.31237   0.73605
 Alpha virt. eigenvalues --    0.80147   0.80151   0.85627   0.93648   0.93659
 Alpha virt. eigenvalues --    1.02119   1.30690   1.30699   1.30896   1.88463

 Mulliken charges:
               1
     1  C   -0.634556
     2  Cl  -0.175121
     3  H    0.269915
     4  H    0.269896
     5  H    0.269866
 Sum of Mulliken charges =   0.00000

 Dipole moment (field-independent basis, Debye):
    X=             -3.2670    Y=              0.0001    Z=              0.0001  Tot=              3.2670
 Quadrupole moment (field-independent basis, Debye-Ang):
   XX=            -17.8484   YY=            -20.2676   ZZ=            -20.2689
   XY=              0.0006   XZ=             -0.0001   YZ=             -0.0001

 Normal termination of Gaussian 16 at Fri Sep 22 17:14:34 2023.
