 Gaussian 16, Revision A.03,
 Gaussian 16:  ES64L-G16RevA.03 25-Dec-2016

 ----------
 # hf/3-21g
 ----------

 ------------------------
 tmpdir/M2_conf_221_5.gjf
 ------------------------
 Symbolic Z-matrix:
 Charge =  0 Multiplicity = 1

                         Standard orientation:
 ---------------------------------------------------------------------
 Center     Atomic      Atomic             Coordinates (Angstroms)
 Number     Number       Type             X           Y           Z
 ---------------------------------------------------------------------
      1          1           0        1.051591    0.059873   -0.323600
      2          6           0        0.024376   -0.029171   -0.025124
      3          1           0       -0.778856   -0.262203   -0.698279
      4          1           0       -0.105542   -0.695664    0.806452
      5          1           0       -0.313447    1.073021    0.366168
 ---------------------------------------------------------------------

 SCF Done:  E(RHF) =  -39.9614005539     A.U. after    9 cycles

 The electronic state is 1-A.
 Alpha  occ. eigenvalues --  -11.15760  -0.93866  -0.57847  -0.54050  -0.49447
 Alpha virt. eigenvalues --    0.28312   0.31582   0.34968   0.36527   0.90457
 Alpha virt. eigenvalues --    0.94904   0.97309   1.25326   1.31483   1.35601
 Alpha virt. eigenvalues --    1.39309   1.94552

 Mulliken charges:
               1
     1  H    0.212217
     2  C   -0.779886
     3  H    0.212401
     4  H    0.206120
     5  H    0.149148
 Sum of Mulliken charges =  -0.00000

 Dipole moment (field-independent basis, Debye):
    X=             -0.0429    Y=             -0.0652    Z=              0.0226  Tot=              0.0813
 Quadrupole moment (field-independent basis, Debye-Ang):
   XX=             -8.0291   YY=             -8.6541   ZZ=             -8.7829
   XY=              0.1257   XZ=              0.0323   YZ=             -0.1420

 Normal termination of Gaussian 16 at Fri Sep 22 17:19:44 2023.
