 Gaussian 16, Revision A.03,
 Gaussian 16:  ES64L-G16RevA.03 25-Dec-2016

 ----------
 # hf/3-21g
 ----------

 -----------------------
 tmpdir/M2_conf_77_5.gjf
 -----------------------
 Symbolic Z-matrix:
 Charge =  0 Multiplicity = 1

                         Standard orientation:
 ---------------------------------------------------------------------
 Center     Atomic      Atomic             Coordinates (Angstroms)
 Number     Number       Type             X           Y           Z
 ---------------------------------------------------------------------
      1          1           0       -0.459841   -0.181667    0.947709
      2          6           0       -0.017934    0.020905   -0.009301
      3          1           0       -0.705922   -0.394060   -0.721405
      4          1           0        0.247065    1.054374   -0.128997
      5          1           0        1.026300   -0.604076   -0.041498
 ---------------------------------------------------------------------

 SCF Done:  E(RHF) =  -39.9653970952     A.U. after    9 cycles

 The electronic state is 1-A.
 Alpha  occ. eigenvalues --  -11.15720  -0.93826  -0.56838  -0.54015  -0.50583
 Alpha virt. eigenvalues --    0.28244   0.32337   0.35070   0.36144   0.90690
 Alpha virt. eigenvalues --    0.93137   0.98154   1.24851   1.32722   1.35522
 Alpha virt. eigenvalues --    1.38339   1.94348

 Mulliken charges:
               1
     1  H    0.204726
     2  C   -0.772580
     3  H    0.206458
     4  H    0.207813
     5  H    0.153583
 Sum of Mulliken charges =  -0.00000

 Dipole moment (field-independent basis, Debye):
    X=             -0.0971    Y=              0.0195    Z=              0.0483  Tot=              0.1102
 Quadrupole moment (field-independent basis, Debye-Ang):
   XX=             -8.3854   YY=             -8.3874   ZZ=             -8.6614
   XY=              0.2107   XZ=              0.0231   YZ=             -0.0099

 Normal termination of Gaussian 16 at Fri Sep 22 17:16:02 2023.
