 Gaussian 16, Revision A.03,
 Gaussian 16:  ES64L-G16RevA.03 25-Dec-2016

 ----------
 # hf/3-21g
 ----------

 ------------------------
 tmpdir/M2_conf_206_8.gjf
 ------------------------
 Symbolic Z-matrix:
 Charge =  0 Multiplicity = 1

                         Standard orientation:
 ---------------------------------------------------------------------
 Center     Atomic      Atomic             Coordinates (Angstroms)
 Number     Number       Type             X           Y           Z
 ---------------------------------------------------------------------
      1          1           0       -0.895748   -0.000432    1.008862
      2          6           0       -1.208000   -0.000010   -0.018327
      3         17           0        0.683903    0.000016   -0.019268
      4          1           0       -1.741156   -0.892366   -0.285951
      5          1           0       -1.741454    0.892584   -0.285388
 ---------------------------------------------------------------------

 SCF Done:  E(RHF) =  -496.637006439     A.U. after   11 cycles

 The electronic state is 1-A.
 Alpha  occ. eigenvalues -- -104.09424 -11.24590 -10.48901  -7.95263  -7.94849
 Alpha  occ. eigenvalues --   -7.94829  -1.12925  -0.92953  -0.64782  -0.63031
 Alpha  occ. eigenvalues --   -0.50416  -0.44656  -0.42008
 Alpha virt. eigenvalues --    0.14138   0.28070   0.31606   0.31719   0.74183
 Alpha virt. eigenvalues --    0.78835   0.80568   0.84729   0.93909   0.97163
 Alpha virt. eigenvalues --    1.02292   1.27979   1.31295   1.31686   1.85589

 Mulliken charges:
               1
     1  H    0.289642
     2  C   -0.710166
     3  Cl  -0.112864
     4  H    0.266716
     5  H    0.266672
 Sum of Mulliken charges =  -0.00000

 Dipole moment (field-independent basis, Debye):
    X=             -2.6610    Y=             -0.0003    Z=              0.3520  Tot=              2.6841
 Quadrupole moment (field-independent basis, Debye-Ang):
   XX=            -18.5191   YY=            -20.1650   ZZ=            -20.7515
   XY=             -0.0005   XZ=              0.7027   YZ=              0.0000

 Normal termination of Gaussian 16 at Fri Sep 22 17:19:21 2023.
