 Gaussian 16, Revision A.03,
 Gaussian 16:  ES64L-G16RevA.03 25-Dec-2016

 ----------
 # hf/3-21g
 ----------

 -----------------------
 tmpdir/M2_conf_31_1.gjf
 -----------------------
 Symbolic Z-matrix:
 Charge =  0 Multiplicity = 1

                         Standard orientation:
 ---------------------------------------------------------------------
 Center     Atomic      Atomic             Coordinates (Angstroms)
 Number     Number       Type             X           Y           Z
 ---------------------------------------------------------------------
      1          6           0       -0.032238   -0.000060    0.012420
      2          1           0       -0.159624   -0.001870    1.001953
      3          1           0       -0.407622   -0.892172   -0.451696
      4          1           0       -0.409841    0.892768   -0.448969
      5          1           0        1.170518    0.001635   -0.175810
 ---------------------------------------------------------------------

 SCF Done:  E(RHF) =  -39.9615038316     A.U. after    9 cycles

 The electronic state is 1-A.
 Alpha  occ. eigenvalues --  -11.14843  -0.94749  -0.57306  -0.55531  -0.50289
 Alpha virt. eigenvalues --    0.28515   0.32574   0.35682   0.37383   0.88469
 Alpha virt. eigenvalues --    0.92094   0.97554   1.25357   1.34040   1.37090
 Alpha virt. eigenvalues --    1.43992   1.95784

 Mulliken charges:
               1
     1  C   -0.779362
     2  H    0.224443
     3  H    0.203478
     4  H    0.203423
     5  H    0.148018
 Sum of Mulliken charges =  -0.00000

 Dipole moment (field-independent basis, Debye):
    X=             -0.0829    Y=             -0.0003    Z=              0.0530  Tot=              0.0984
 Quadrupole moment (field-independent basis, Debye-Ang):
   XX=             -8.5755   YY=             -8.3143   ZZ=             -8.3784
   XY=             -0.0005   XZ=              0.0440   YZ=             -0.0001

 Normal termination of Gaussian 16 at Fri Sep 22 17:14:53 2023.
