 Gaussian 16, Revision A.03,
 Gaussian 16:  ES64L-G16RevA.03 25-Dec-2016

 ----------
 # hf/3-21g
 ----------

 -----------------------
 tmpdir/M2_conf_47_0.gjf
 -----------------------
 Symbolic Z-matrix:
 Charge =  0 Multiplicity = 1

                         Standard orientation:
 ---------------------------------------------------------------------
 Center     Atomic      Atomic             Coordinates (Angstroms)
 Number     Number       Type             X           Y           Z
 ---------------------------------------------------------------------
      1          6           0        0.018172   -0.024394    0.000056
      2          1           0        0.972077    0.610548    0.001683
      3          1           0       -0.086273   -0.611243    0.892985
      4          1           0       -0.081817   -0.612732   -0.892392
      5          1           0       -0.913021    0.759791   -0.002613
 ---------------------------------------------------------------------

 SCF Done:  E(RHF) =  -39.9643476900     A.U. after    9 cycles

 The electronic state is 1-A.
 Alpha  occ. eigenvalues --  -11.16568  -0.93061  -0.55760  -0.54133  -0.50182
 Alpha virt. eigenvalues --    0.27960   0.31547   0.34437   0.35685   0.91769
 Alpha virt. eigenvalues --    0.94650   0.98420   1.24507   1.28338   1.34490
 Alpha virt. eigenvalues --    1.36757   1.93822

 Mulliken charges:
               1
     1  C   -0.758944
     2  H    0.187013
     3  H    0.208850
     4  H    0.208848
     5  H    0.154233
 Sum of Mulliken charges =  -0.00000

 Dipole moment (field-independent basis, Debye):
    X=              0.0071    Y=             -0.0685    Z=              0.0001  Tot=              0.0688
 Quadrupole moment (field-independent basis, Debye-Ang):
   XX=             -8.5809   YY=             -8.5487   ZZ=             -8.4590
   XY=              0.1564   XZ=             -0.0011   YZ=              0.0006

 Normal termination of Gaussian 16 at Fri Sep 22 17:15:18 2023.
