 Gaussian 16, Revision A.03,
 Gaussian 16:  ES64L-G16RevA.03 25-Dec-2016

 ----------
 # hf/3-21g
 ----------

 ------------------------
 tmpdir/M2_conf_104_1.gjf
 ------------------------
 Symbolic Z-matrix:
 Charge =  0 Multiplicity = 1

                         Standard orientation:
 ---------------------------------------------------------------------
 Center     Atomic      Atomic             Coordinates (Angstroms)
 Number     Number       Type             X           Y           Z
 ---------------------------------------------------------------------
      1          6           0       -0.023558   -0.019447    0.000059
      2          1           0       -0.828689    0.774713   -0.002532
      3          1           0       -0.034900   -0.612972    0.894364
      4          1           0       -0.034585   -0.618834   -0.890570
      5          1           0        1.039522    0.573776   -0.001614
 ---------------------------------------------------------------------

 SCF Done:  E(RHF) =  -39.9653605773     A.U. after    9 cycles

 The electronic state is 1-A.
 Alpha  occ. eigenvalues --  -11.16393  -0.93196  -0.55731  -0.54438  -0.50209
 Alpha virt. eigenvalues --    0.28057   0.31724   0.34653   0.35687   0.91788
 Alpha virt. eigenvalues --    0.94205   0.98137   1.24683   1.29262   1.34769
 Alpha virt. eigenvalues --    1.36802   1.93991

 Mulliken charges:
               1
     1  C   -0.761667
     2  H    0.191202
     3  H    0.208431
     4  H    0.208375
     5  H    0.153659
 Sum of Mulliken charges =   0.00000

 Dipole moment (field-independent basis, Debye):
    X=             -0.0292    Y=             -0.0588    Z=              0.0003  Tot=              0.0657
 Quadrupole moment (field-independent basis, Debye-Ang):
   XX=             -8.6296   YY=             -8.4825   ZZ=             -8.4457
   XY=             -0.1339   XZ=              0.0003   YZ=              0.0003

 Normal termination of Gaussian 16 at Fri Sep 22 17:16:43 2023.
