 Gaussian 16, Revision A.03,
 Gaussian 16:  ES64L-G16RevA.03 25-Dec-2016

 ----------
 # hf/3-21g
 ----------

 -----------------------
 tmpdir/M2_conf_59_8.gjf
 -----------------------
 Symbolic Z-matrix:
 Charge =  0 Multiplicity = 1

                         Standard orientation:
 ---------------------------------------------------------------------
 Center     Atomic      Atomic             Coordinates (Angstroms)
 Number     Number       Type             X           Y           Z
 ---------------------------------------------------------------------
      1          1           0       -1.459642   -0.187195    1.024501
      2          6           0       -1.202393    0.000144   -0.000850
      3         17           0        0.689510    0.000316   -0.001704
      4          1           0       -1.523754   -0.787487   -0.655481
      5          1           0       -1.523912    0.968449   -0.334960
 ---------------------------------------------------------------------

 SCF Done:  E(RHF) =  -496.689252915     A.U. after   11 cycles

 The electronic state is 1-A.
 Alpha  occ. eigenvalues -- -104.08774 -11.25001 -10.48164  -7.94538  -7.94134
 Alpha  occ. eigenvalues --   -7.94134  -1.11286  -0.93335  -0.63270  -0.63229
 Alpha  occ. eigenvalues --   -0.51314  -0.43753  -0.43698
 Alpha virt. eigenvalues --    0.16591   0.27332   0.31371   0.31388   0.73828
 Alpha virt. eigenvalues --    0.80550   0.80807   0.85509   0.93369   0.93951
 Alpha virt. eigenvalues --    0.99560   1.31206   1.31218   1.32212   1.91974

 Mulliken charges:
               1
     1  H    0.271390
     2  C   -0.702698
     3  Cl  -0.107054
     4  H    0.269205
     5  H    0.269157
 Sum of Mulliken charges =  -0.00000

 Dipole moment (field-independent basis, Debye):
    X=             -2.8656    Y=             -0.0042    Z=              0.0225  Tot=              2.8657
 Quadrupole moment (field-independent basis, Debye-Ang):
   XX=            -18.5695   YY=            -20.1818   ZZ=            -20.1821
   XY=             -0.0116   XZ=              0.0639   YZ=             -0.0003

 Normal termination of Gaussian 16 at Fri Sep 22 17:15:35 2023.
