 Gaussian 16, Revision A.03,
 Gaussian 16:  ES64L-G16RevA.03 25-Dec-2016

 ----------
 # hf/3-21g
 ----------

 ------------------------
 tmpdir/M2_conf_109_5.gjf
 ------------------------
 Symbolic Z-matrix:
 Charge =  0 Multiplicity = 1

                         Standard orientation:
 ---------------------------------------------------------------------
 Center     Atomic      Atomic             Coordinates (Angstroms)
 Number     Number       Type             X           Y           Z
 ---------------------------------------------------------------------
      1          1           0        0.906655    0.506162   -0.345103
      2          6           0        0.029833   -0.018669   -0.016587
      3          1           0       -0.508738   -0.630272   -0.715516
      4          1           0        0.205866   -0.598176    0.869862
      5          1           0       -0.782779    0.834299    0.290281
 ---------------------------------------------------------------------

 SCF Done:  E(RHF) =  -39.9648108485     A.U. after    9 cycles

 The electronic state is 1-A.
 Alpha  occ. eigenvalues --  -11.15742  -0.93807  -0.56969  -0.54657  -0.49854
 Alpha virt. eigenvalues --    0.28330   0.31939   0.35245   0.36197   0.90974
 Alpha virt. eigenvalues --    0.93496   0.97399   1.25242   1.31921   1.36050
 Alpha virt. eigenvalues --    1.38310   1.94642

 Mulliken charges:
               1
     1  H    0.209240
     2  C   -0.774113
     3  H    0.208912
     4  H    0.206043
     5  H    0.149918
 Sum of Mulliken charges =  -0.00000

 Dipole moment (field-independent basis, Debye):
    X=              0.0130    Y=             -0.0655    Z=              0.0092  Tot=              0.0674
 Quadrupole moment (field-independent basis, Debye-Ang):
   XX=             -8.3693   YY=             -8.4687   ZZ=             -8.6135
   XY=              0.2517   XZ=              0.0763   YZ=             -0.0884

 Normal termination of Gaussian 16 at Fri Sep 22 17:16:50 2023.
