 Gaussian 16, Revision A.03,
 Gaussian 16:  ES64L-G16RevA.03 25-Dec-2016

 ----------
 # hf/3-21g
 ----------

 -----------------------
 tmpdir/M2_conf_92_2.gjf
 -----------------------
 Symbolic Z-matrix:
 Charge =  0 Multiplicity = 1

                         Standard orientation:
 ---------------------------------------------------------------------
 Center     Atomic      Atomic             Coordinates (Angstroms)
 Number     Number       Type             X           Y           Z
 ---------------------------------------------------------------------
      1          6           0        0.029726   -0.008595   -0.000014
      2          1           0        0.532142    0.973860   -0.008593
      3          1           0        0.230692   -0.564541    0.895941
      4          1           0        0.224817   -0.577787   -0.889161
      5          1           0       -1.166008    0.220039    0.001898
 ---------------------------------------------------------------------

 SCF Done:  E(RHF) =  -39.9666122225     A.U. after    9 cycles

 The electronic state is 1-A.
 Alpha  occ. eigenvalues --  -11.16075  -0.93458  -0.55687  -0.54998  -0.50247
 Alpha virt. eigenvalues --    0.28199   0.32001   0.35104   0.35689   0.91850
 Alpha virt. eigenvalues --    0.93191   0.97812   1.24901   1.30964   1.35483
 Alpha virt. eigenvalues --    1.36874   1.94297

 Mulliken charges:
               1
     1  C   -0.766231
     2  H    0.198634
     3  H    0.207531
     4  H    0.207482
     5  H    0.152583
 Sum of Mulliken charges =  -0.00000

 Dipole moment (field-independent basis, Debye):
    X=              0.0577    Y=             -0.0301    Z=              0.0001  Tot=              0.0651
 Quadrupole moment (field-independent basis, Debye-Ang):
   XX=             -8.6724   YY=             -8.4096   ZZ=             -8.4193
   XY=              0.0576   XZ=              0.0012   YZ=              0.0002

 Normal termination of Gaussian 16 at Fri Sep 22 17:16:25 2023.
