 Gaussian 16, Revision A.03,
 Gaussian 16:  ES64L-G16RevA.03 25-Dec-2016

 ----------
 # hf/3-21g
 ----------

 ------------------------
 tmpdir/M2_conf_121_3.gjf
 ------------------------
 Symbolic Z-matrix:
 Charge =  0 Multiplicity = 1

                         Standard orientation:
 ---------------------------------------------------------------------
 Center     Atomic      Atomic             Coordinates (Angstroms)
 Number     Number       Type             X           Y           Z
 ---------------------------------------------------------------------
      1          6           0       -1.368891    0.000016    0.000010
      2         17           0        0.777709   -0.000013   -0.000003
      3          1           0       -1.669259   -0.278186    0.992268
      4          1           0       -1.668939    0.998728   -0.255258
      5          1           0       -1.669505   -0.720425   -0.737021
 ---------------------------------------------------------------------

 SCF Done:  E(RHF) =  -496.673709368     A.U. after   10 cycles

 The electronic state is 1-A.
 Alpha  occ. eigenvalues -- -104.08382 -11.27692 -10.47266  -7.93604  -7.93295
 Alpha  occ. eigenvalues --   -7.93295  -1.06269  -0.95663  -0.63501  -0.63497
 Alpha  occ. eigenvalues --   -0.47048  -0.43049  -0.43049
 Alpha virt. eigenvalues --    0.08930   0.26329   0.30910   0.30913   0.73426
 Alpha virt. eigenvalues --    0.79495   0.79500   0.86489   0.93648   0.93657
 Alpha virt. eigenvalues --    1.03226   1.29404   1.29866   1.29876   1.84692

 Mulliken charges:
               1
     1  C   -0.559867
     2  Cl  -0.250058
     3  H    0.269994
     4  H    0.269982
     5  H    0.269949
 Sum of Mulliken charges =  -0.00000

 Dipole moment (field-independent basis, Debye):
    X=             -3.8223    Y=              0.0001    Z=              0.0001  Tot=              3.8223
 Quadrupole moment (field-independent basis, Debye-Ang):
   XX=            -16.8798   YY=            -20.3453   ZZ=            -20.3467
   XY=              0.0006   XZ=             -0.0001   YZ=             -0.0001

 Normal termination of Gaussian 16 at Fri Sep 22 17:17:08 2023.
