 Gaussian 16, Revision A.03,
 Gaussian 16:  ES64L-G16RevA.03 25-Dec-2016

 ----------
 # hf/3-21g
 ----------

 ----------------------
 tmpdir/M2_conf_0_8.gjf
 ----------------------
 Symbolic Z-matrix:
 Charge =  0 Multiplicity = 1

                         Standard orientation:
 ---------------------------------------------------------------------
 Center     Atomic      Atomic             Coordinates (Angstroms)
 Number     Number       Type             X           Y           Z
 ---------------------------------------------------------------------
      1          1           0       -1.284097   -0.004777    1.065830
      2          6           0       -1.203103    0.000008   -0.004700
      3         17           0        0.688791    0.000043   -0.008443
      4          1           0       -1.603263   -0.890471   -0.450904
      5          1           0       -1.603471    0.894462   -0.443192
 ---------------------------------------------------------------------

 SCF Done:  E(RHF) =  -496.683479504     A.U. after   11 cycles

 The electronic state is 1-A.
 Alpha  occ. eigenvalues -- -104.08833 -11.24978 -10.48226  -7.94599  -7.94195
 Alpha  occ. eigenvalues --   -7.94193  -1.11438  -0.93294  -0.63502  -0.63184
 Alpha  occ. eigenvalues --   -0.51110  -0.43895  -0.43489
 Alpha virt. eigenvalues --    0.16238   0.27366   0.31381   0.31448   0.73902
 Alpha virt. eigenvalues --    0.80034   0.81057   0.85642   0.92492   0.95083
 Alpha virt. eigenvalues --    1.00194   1.30668   1.31173   1.32361   1.91097

 Mulliken charges:
               1
     1  H    0.277523
     2  C   -0.704279
     3  Cl  -0.107274
     4  H    0.267039
     5  H    0.266991
 Sum of Mulliken charges =  -0.00000

 Dipole moment (field-independent basis, Debye):
    X=             -2.8472    Y=             -0.0007    Z=              0.1196  Tot=              2.8497
 Quadrupole moment (field-independent basis, Debye-Ang):
   XX=            -18.5519   YY=            -20.1837   ZZ=            -20.2538
   XY=             -0.0014   XZ=              0.3153   YZ=              0.0000

 Normal termination of Gaussian 16 at Fri Sep 22 17:14:07 2023.
