 Gaussian 16, Revision A.03,
 Gaussian 16:  ES64L-G16RevA.03 25-Dec-2016

 ----------
 # hf/3-21g
 ----------

 -----------------------
 tmpdir/M2_conf_38_8.gjf
 -----------------------
 Symbolic Z-matrix:
 Charge =  0 Multiplicity = 1

                         Standard orientation:
 ---------------------------------------------------------------------
 Center     Atomic      Atomic             Coordinates (Angstroms)
 Number     Number       Type             X           Y           Z
 ---------------------------------------------------------------------
      1          1           0       -1.431654   -0.053021    1.046063
      2          6           0       -1.202442    0.000062   -0.001439
      3         17           0        0.689458    0.000149   -0.002841
      4          1           0       -1.537157   -0.866276   -0.539587
      5          1           0       -1.537323    0.916401   -0.449541
 ---------------------------------------------------------------------

 SCF Done:  E(RHF) =  -496.688855635     A.U. after   11 cycles

 The electronic state is 1-A.
 Alpha  occ. eigenvalues -- -104.08778 -11.24999 -10.48168  -7.94542  -7.94138
 Alpha  occ. eigenvalues --   -7.94138  -1.11296  -0.93332  -0.63292  -0.63221
 Alpha  occ. eigenvalues --   -0.51299  -0.43771  -0.43675
 Alpha virt. eigenvalues --    0.16565   0.27333   0.31369   0.31396   0.73833
 Alpha virt. eigenvalues --    0.80466   0.80875   0.85527   0.93182   0.94140
 Alpha virt. eigenvalues --    0.99616   1.31163   1.31206   1.32239   1.91913

 Mulliken charges:
               1
     1  H    0.272378
     2  C   -0.702844
     3  Cl  -0.107042
     4  H    0.268778
     5  H    0.268730
 Sum of Mulliken charges =  -0.00000

 Dipole moment (field-independent basis, Debye):
    X=             -2.8644    Y=             -0.0020    Z=              0.0380  Tot=              2.8647
 Quadrupole moment (field-independent basis, Debye-Ang):
   XX=            -18.5682   YY=            -20.1823   ZZ=            -20.1867
   XY=             -0.0054   XZ=              0.1064   YZ=             -0.0001

 Normal termination of Gaussian 16 at Fri Sep 22 17:15:04 2023.
