 Gaussian 16, Revision A.03,
 Gaussian 16:  ES64L-G16RevA.03 25-Dec-2016

 ----------
 # hf/3-21g
 ----------

 -----------------------
 tmpdir/M2_conf_19_7.gjf
 -----------------------
 Symbolic Z-matrix:
 Charge =  0 Multiplicity = 1

                         Standard orientation:
 ---------------------------------------------------------------------
 Center     Atomic      Atomic             Coordinates (Angstroms)
 Number     Number       Type             X           Y           Z
 ---------------------------------------------------------------------
      1          1           0       -1.039654    0.120864   -0.334314
      2          6           0       -0.023486   -0.028161   -0.021567
      3          1           0        0.743006   -0.336598   -0.707105
      4          1           0        0.053122   -0.675756    0.831033
      5          1           0        0.384440    1.060454    0.339787
 ---------------------------------------------------------------------

 SCF Done:  E(RHF) =  -39.9630641636     A.U. after    9 cycles

 The electronic state is 1-A.
 Alpha  occ. eigenvalues --  -11.15751  -0.93837  -0.57469  -0.54306  -0.49637
 Alpha virt. eigenvalues --    0.28322   0.31752   0.35086   0.36385   0.90655
 Alpha virt. eigenvalues --    0.94275   0.97342   1.25295   1.31667   1.35793
 Alpha virt. eigenvalues --    1.38866   1.94594

 Mulliken charges:
               1
     1  H    0.210761
     2  C   -0.777037
     3  H    0.210697
     4  H    0.206117
     5  H    0.149462
 Sum of Mulliken charges =   0.00000

 Dipole moment (field-independent basis, Debye):
    X=              0.0280    Y=             -0.0666    Z=              0.0166  Tot=              0.0742
 Quadrupole moment (field-independent basis, Debye-Ang):
   XX=             -8.1147   YY=             -8.6342   ZZ=             -8.7103
   XY=             -0.1537   XZ=             -0.0396   YZ=             -0.1301

 Normal termination of Gaussian 16 at Fri Sep 22 17:14:35 2023.
