 Gaussian 16, Revision A.03,
 Gaussian 16:  ES64L-G16RevA.03 25-Dec-2016

 ----------
 # hf/3-21g
 ----------

 -----------------------
 tmpdir/M2_conf_55_2.gjf
 -----------------------
 Symbolic Z-matrix:
 Charge =  0 Multiplicity = 1

                         Standard orientation:
 ---------------------------------------------------------------------
 Center     Atomic      Atomic             Coordinates (Angstroms)
 Number     Number       Type             X           Y           Z
 ---------------------------------------------------------------------
      1          6           0        0.008719   -0.029139   -0.000015
      2          1           0        1.118721    0.362292   -0.002572
      3          1           0       -0.232344   -0.573840    0.892951
      4          1           0       -0.237272   -0.573299   -0.892204
      5          1           0       -0.701417    0.959679    0.001918
 ---------------------------------------------------------------------

 SCF Done:  E(RHF) =  -39.9615998519     A.U. after    9 cycles

 The electronic state is 1-A.
 Alpha  occ. eigenvalues --  -11.16921  -0.92813  -0.55821  -0.53551  -0.50095
 Alpha virt. eigenvalues --    0.27710   0.31136   0.34086   0.35686   0.91701
 Alpha virt. eigenvalues --    0.95303   0.99262   1.23892   1.26737   1.34094
 Alpha virt. eigenvalues --    1.36680   1.93479

 Mulliken charges:
               1
     1  C   -0.752988
     2  H    0.178112
     3  H    0.209790
     4  H    0.209739
     5  H    0.155347
 Sum of Mulliken charges =   0.00000

 Dipole moment (field-independent basis, Debye):
    X=             -0.0349    Y=             -0.0739    Z=              0.0002  Tot=              0.0817
 Quadrupole moment (field-independent basis, Debye-Ang):
   XX=             -8.5131   YY=             -8.6492   ZZ=             -8.4873
   XY=              0.1529   XZ=              0.0010   YZ=             -0.0007

 Normal termination of Gaussian 16 at Fri Sep 22 17:15:30 2023.
