 Gaussian 16, Revision A.03,
 Gaussian 16:  ES64L-G16RevA.03 25-Dec-2016

 ----------
 # hf/3-21g
 ----------

 -----------------------
 tmpdir/M2_conf_50_5.gjf
 -----------------------
 Symbolic Z-matrix:
 Charge =  0 Multiplicity = 1

                         Standard orientation:
 ---------------------------------------------------------------------
 Center     Atomic      Atomic             Coordinates (Angstroms)
 Number     Number       Type             X           Y           Z
 ---------------------------------------------------------------------
      1          1           0        1.063083    0.025312   -0.306080
      2          6           0        0.027259   -0.029636   -0.029971
      3          1           0       -0.807755   -0.202635   -0.682230
      4          1           0       -0.147215   -0.717231    0.775872
      5          1           0       -0.271667    1.072372    0.392264
 ---------------------------------------------------------------------

 SCF Done:  E(RHF) =  -39.9584191675     A.U. after    9 cycles

 The electronic state is 1-A.
 Alpha  occ. eigenvalues --  -11.15772  -0.93920  -0.58383  -0.53711  -0.49124
 Alpha virt. eigenvalues --    0.28288   0.31280   0.34821   0.36723   0.90205
 Alpha virt. eigenvalues --    0.95925   0.97281   1.25345   1.31204   1.35380
 Alpha virt. eigenvalues --    1.39972   1.94477

 Mulliken charges:
               1
     1  H    0.214644
     2  C   -0.785080
     3  H    0.215435
     4  H    0.206266
     5  H    0.148735
 Sum of Mulliken charges =  -0.00000

 Dipole moment (field-independent basis, Debye):
    X=             -0.0612    Y=             -0.0642    Z=              0.0325  Tot=              0.0945
 Quadrupole moment (field-independent basis, Debye-Ang):
   XX=             -7.9202   YY=             -8.6674   ZZ=             -8.8896
   XY=              0.1079   XZ=              0.0273   YZ=             -0.1531

 Normal termination of Gaussian 16 at Fri Sep 22 17:15:22 2023.
