 Gaussian 16, Revision A.03,
 Gaussian 16:  ES64L-G16RevA.03 25-Dec-2016

 ----------
 # hf/3-21g
 ----------

 ------------------------
 tmpdir/M2_conf_279_1.gjf
 ------------------------
 Symbolic Z-matrix:
 Charge =  0 Multiplicity = 1

                         Standard orientation:
 ---------------------------------------------------------------------
 Center     Atomic      Atomic             Coordinates (Angstroms)
 Number     Number       Type             X           Y           Z
 ---------------------------------------------------------------------
      1          6           0       -0.029132   -0.010182    0.000059
      2          1           0       -0.571448    0.956361   -0.004139
      3          1           0       -0.204911   -0.575938    0.895158
      4          1           0       -0.205596   -0.584360   -0.889765
      5          1           0        1.156748    0.265030   -0.001607
 ---------------------------------------------------------------------

 SCF Done:  E(RHF) =  -39.9664536563     A.U. after    9 cycles

 The electronic state is 1-A.
 Alpha  occ. eigenvalues --  -11.16131  -0.93410  -0.55692  -0.54902  -0.50241
 Alpha virt. eigenvalues --    0.28177   0.31957   0.35021   0.35687   0.91836
 Alpha virt. eigenvalues --    0.93386   0.97854   1.24869   1.30677   1.35330
 Alpha virt. eigenvalues --    1.36859   1.94243

 Mulliken charges:
               1
     1  C   -0.765466
     2  H    0.197357
     3  H    0.207695
     4  H    0.207639
     5  H    0.152776
 Sum of Mulliken charges =   0.00000

 Dipole moment (field-independent basis, Debye):
    X=             -0.0544    Y=             -0.0350    Z=              0.0003  Tot=              0.0647
 Quadrupole moment (field-independent basis, Debye-Ang):
   XX=             -8.6718   YY=             -8.4150   ZZ=             -8.4244
   XY=             -0.0680   XZ=              0.0004   YZ=              0.0002

 Normal termination of Gaussian 16 at Fri Sep 22 17:21:12 2023.
