 Gaussian 16, Revision A.03,
 Gaussian 16:  ES64L-G16RevA.03 25-Dec-2016

 ----------
 # hf/3-21g
 ----------

 ------------------------
 tmpdir/M2_conf_115_6.gjf
 ------------------------
 Symbolic Z-matrix:
 Charge =  0 Multiplicity = 1

                         Standard orientation:
 ---------------------------------------------------------------------
 Center     Atomic      Atomic             Coordinates (Angstroms)
 Number     Number       Type             X           Y           Z
 ---------------------------------------------------------------------
      1          1           0       -1.318091   -0.007257    1.063245
      2          6           0       -1.202892    0.000044   -0.003931
      3         17           0        0.689005    0.000038   -0.007199
      4          1           0       -1.588609    0.895842   -0.452686
      5          1           0       -1.589041   -0.889499   -0.464595
 ---------------------------------------------------------------------

 SCF Done:  E(RHF) =  -496.685218066     A.U. after   11 cycles

 The electronic state is 1-A.
 Alpha  occ. eigenvalues -- -104.08815 -11.24986 -10.48206  -7.94580  -7.94176
 Alpha  occ. eigenvalues --   -7.94174  -1.11391  -0.93307  -0.63438  -0.63193
 Alpha  occ. eigenvalues --   -0.51168  -0.43862  -0.43543
 Alpha virt. eigenvalues --    0.16340   0.27354   0.31375   0.31432   0.73881
 Alpha virt. eigenvalues --    0.80134   0.81039   0.85626   0.92578   0.94885
 Alpha virt. eigenvalues --    1.00030   1.30795   1.31174   1.32367   1.91362

 Mulliken charges:
               1
     1  H    0.276400
     2  C   -0.703898
     3  Cl  -0.107149
     4  H    0.267333
     5  H    0.267314
 Sum of Mulliken charges =  -0.00000

 Dipole moment (field-independent basis, Debye):
    X=             -2.8529    Y=             -0.0006    Z=              0.1008  Tot=              2.8547
 Quadrupole moment (field-independent basis, Debye-Ang):
   XX=            -18.5566   YY=            -20.1825   ZZ=            -20.2333
   XY=             -0.0013   XZ=              0.2684   YZ=             -0.0001

 Normal termination of Gaussian 16 at Fri Sep 22 17:16:59 2023.
