 Gaussian 16, Revision A.03,
 Gaussian 16:  ES64L-G16RevA.03 25-Dec-2016

 ----------
 # hf/3-21g
 ----------

 -----------------------
 tmpdir/M2_conf_36_9.gjf
 -----------------------
 Symbolic Z-matrix:
 Charge =  0 Multiplicity = 1

                         Standard orientation:
 ---------------------------------------------------------------------
 Center     Atomic      Atomic             Coordinates (Angstroms)
 Number     Number       Type             X           Y           Z
 ---------------------------------------------------------------------
      1          1           0        1.597136   -0.040766    0.999605
      2          6           0        1.202506   -0.000068    0.001994
      3         17           0       -0.689396   -0.000167    0.003850
      4          1           0        1.453978   -0.869799   -0.574656
      5          1           0        1.453580    0.913817   -0.502369
 ---------------------------------------------------------------------

 SCF Done:  E(RHF) =  -496.688354230     A.U. after   11 cycles

 The electronic state is 1-A.
 Alpha  occ. eigenvalues -- -104.08782 -11.24998 -10.48172  -7.94546  -7.94142
 Alpha  occ. eigenvalues --   -7.94142  -1.11307  -0.93329  -0.63285  -0.63244
 Alpha  occ. eigenvalues --   -0.51277  -0.43763  -0.43677
 Alpha virt. eigenvalues --    0.16527   0.27332   0.31365   0.31409   0.73839
 Alpha virt. eigenvalues --    0.80361   0.80981   0.85559   0.92989   0.94267
 Alpha virt. eigenvalues --    0.99736   1.31015   1.31270   1.32304   1.91849

 Mulliken charges:
               1
     1  H    0.266696
     2  C   -0.703176
     3  Cl  -0.106919
     4  H    0.271710
     5  H    0.271689
 Sum of Mulliken charges =  -0.00000

 Dipole moment (field-independent basis, Debye):
    X=              2.8630    Y=              0.0020    Z=             -0.0496  Tot=              2.8634
 Quadrupole moment (field-independent basis, Debye-Ang):
   XX=            -18.5657   YY=            -20.1785   ZZ=            -20.1975
   XY=             -0.0066   XZ=              0.1441   YZ=              0.0001

 Normal termination of Gaussian 16 at Fri Sep 22 17:15:01 2023.
