 Gaussian 16, Revision A.03,
 Gaussian 16:  ES64L-G16RevA.03 25-Dec-2016

 ----------
 # hf/3-21g
 ----------

 ------------------------
 tmpdir/M2_conf_223_5.gjf
 ------------------------
 Symbolic Z-matrix:
 Charge =  0 Multiplicity = 1

                         Standard orientation:
 ---------------------------------------------------------------------
 Center     Atomic      Atomic             Coordinates (Angstroms)
 Number     Number       Type             X           Y           Z
 ---------------------------------------------------------------------
      1          1           0        0.609107    0.836501   -0.348721
      2          6           0        0.034056   -0.005712   -0.013787
      3          1           0       -0.159572   -0.793604   -0.716888
      4          1           0        0.419306   -0.431661    0.893273
      5          1           0       -1.073174    0.423035    0.255060
 ---------------------------------------------------------------------

 SCF Done:  E(RHF) =  -39.9655022570     A.U. after    9 cycles

 The electronic state is 1-A.
 Alpha  occ. eigenvalues --  -11.15738  -0.93795  -0.56707  -0.54845  -0.49952
 Alpha virt. eigenvalues --    0.28332   0.32017   0.35332   0.36098   0.91148
 Alpha virt. eigenvalues --    0.93137   0.97435   1.25210   1.32040   1.36204
 Alpha virt. eigenvalues --    1.38029   1.94658

 Mulliken charges:
               1
     1  H    0.208555
     2  C   -0.772980
     3  H    0.208185
     4  H    0.206067
     5  H    0.150173
 Sum of Mulliken charges =   0.00000

 Dipole moment (field-independent basis, Debye):
    X=              0.0444    Y=             -0.0479    Z=              0.0060  Tot=              0.0656
 Quadrupole moment (field-independent basis, Debye-Ang):
   XX=             -8.5935   YY=             -8.2898   ZZ=             -8.5647
   XY=              0.1775   XZ=              0.0945   YZ=             -0.0413

 Normal termination of Gaussian 16 at Fri Sep 22 17:19:47 2023.
