 Gaussian 16, Revision A.03,
 Gaussian 16:  ES64L-G16RevA.03 25-Dec-2016

 ----------
 # hf/3-21g
 ----------

 ------------------------
 tmpdir/M2_conf_104_7.gjf
 ------------------------
 Symbolic Z-matrix:
 Charge =  0 Multiplicity = 1

                         Standard orientation:
 ---------------------------------------------------------------------
 Center     Atomic      Atomic             Coordinates (Angstroms)
 Number     Number       Type             X           Y           Z
 ---------------------------------------------------------------------
      1          1           0       -0.327083    0.977179   -0.334705
      2          6           0       -0.031904    0.000380   -0.001015
      3          1           0       -0.314718   -0.777057   -0.685286
      4          1           0       -0.352024   -0.204932    1.002750
      5          1           0        1.185250    0.002528    0.023328
 ---------------------------------------------------------------------

 SCF Done:  E(RHF) =  -39.9669182428     A.U. after    9 cycles

 The electronic state is 1-A.
 Alpha  occ. eigenvalues --  -11.15726  -0.93776  -0.55707  -0.55585  -0.50252
 Alpha virt. eigenvalues --    0.28320   0.32221   0.35665   0.35713   0.91859
 Alpha virt. eigenvalues --    0.91994   0.97621   1.25077   1.32430   1.36892
 Alpha virt. eigenvalues --    1.37005   1.94654

 Mulliken charges:
               1
     1  H    0.206533
     2  C   -0.770731
     3  H    0.206483
     4  H    0.206443
     5  H    0.151273
 Sum of Mulliken charges =  -0.00000

 Dipole moment (field-independent basis, Debye):
    X=             -0.0698    Y=             -0.0020    Z=              0.0001  Tot=              0.0699
 Quadrupole moment (field-independent basis, Debye-Ang):
   XX=             -8.6604   YY=             -8.3783   ZZ=             -8.3996
   XY=             -0.0015   XZ=             -0.0097   YZ=             -0.0003

 Normal termination of Gaussian 16 at Fri Sep 22 17:16:43 2023.
