 Gaussian 16, Revision A.03,
 Gaussian 16:  ES64L-G16RevA.03 25-Dec-2016

 ----------
 # hf/3-21g
 ----------

 ----------------------
 tmpdir/M2_conf_6_6.gjf
 ----------------------
 Symbolic Z-matrix:
 Charge =  0 Multiplicity = 1

                         Standard orientation:
 ---------------------------------------------------------------------
 Center     Atomic      Atomic             Coordinates (Angstroms)
 Number     Number       Type             X           Y           Z
 ---------------------------------------------------------------------
      1          1           0       -1.621133   -0.008897    0.990953
      2          6           0       -1.202597   -0.000002    0.002552
      3         17           0        0.689306   -0.000057    0.004836
      4          1           0       -1.440486    0.897592   -0.536286
      5          1           0       -1.440995   -0.887717   -0.552188
 ---------------------------------------------------------------------

 SCF Done:  E(RHF) =  -496.687694803     A.U. after   11 cycles

 The electronic state is 1-A.
 Alpha  occ. eigenvalues -- -104.08788 -11.24997 -10.48178  -7.94552  -7.94148
 Alpha  occ. eigenvalues --   -7.94147  -1.11322  -0.93324  -0.63296  -0.63256
 Alpha  occ. eigenvalues --   -0.51249  -0.43766  -0.43665
 Alpha virt. eigenvalues --    0.16480   0.27330   0.31361   0.31425   0.73847
 Alpha virt. eigenvalues --    0.80274   0.81061   0.85595   0.92821   0.94385
 Alpha virt. eigenvalues --    0.99864   1.30935   1.31275   1.32347   1.91759

 Mulliken charges:
               1
     1  H    0.265979
     2  C   -0.703533
     3  Cl  -0.106822
     4  H    0.272200
     5  H    0.272176
 Sum of Mulliken charges =   0.00000

 Dipole moment (field-independent basis, Debye):
    X=             -2.8610    Y=              0.0006    Z=             -0.0618  Tot=              2.8617
 Quadrupole moment (field-independent basis, Debye-Ang):
   XX=            -18.5633   YY=            -20.1773   ZZ=            -20.2074
   XY=              0.0022   XZ=             -0.1815   YZ=             -0.0001

 Normal termination of Gaussian 16 at Fri Sep 22 17:14:16 2023.
