 Gaussian 16, Revision A.03,
 Gaussian 16:  ES64L-G16RevA.03 25-Dec-2016

 ----------
 # hf/3-21g
 ----------

 ------------------------
 tmpdir/M2_conf_140_3.gjf
 ------------------------
 Symbolic Z-matrix:
 Charge =  0 Multiplicity = 1

                         Standard orientation:
 ---------------------------------------------------------------------
 Center     Atomic      Atomic             Coordinates (Angstroms)
 Number     Number       Type             X           Y           Z
 ---------------------------------------------------------------------
      1          6           0       -1.480176    0.000015    0.000010
      2         17           0        0.836624   -0.000012   -0.000003
      3          1           0       -1.780544   -0.278188    0.992268
      4          1           0       -1.780226    0.998725   -0.255259
      5          1           0       -1.780788   -0.720428   -0.737022
 ---------------------------------------------------------------------

 SCF Done:  E(RHF) =  -496.653313703     A.U. after   10 cycles

 The electronic state is 1-A.
 Alpha  occ. eigenvalues -- -104.07664 -11.29379 -10.46379  -7.92704  -7.92434
 Alpha  occ. eigenvalues --   -7.92434  -1.04081  -0.96891  -0.64251  -0.64246
 Alpha  occ. eigenvalues --   -0.44434  -0.42211  -0.42211
 Alpha virt. eigenvalues --    0.04998   0.25612   0.30352   0.30355   0.73300
 Alpha virt. eigenvalues --    0.78933   0.78938   0.88258   0.93438   0.93447
 Alpha virt. eigenvalues --    1.01649   1.27729   1.28774   1.28783   1.81364

 Mulliken charges:
               1
     1  C   -0.489540
     2  Cl  -0.324529
     3  H    0.271371
     4  H    0.271365
     5  H    0.271331
 Sum of Mulliken charges =  -0.00000

 Dipole moment (field-independent basis, Debye):
    X=             -4.5423    Y=              0.0001    Z=              0.0001  Tot=              4.5423
 Quadrupole moment (field-independent basis, Debye-Ang):
   XX=            -15.6775   YY=            -20.3983   ZZ=            -20.3997
   XY=              0.0005   XZ=             -0.0001   YZ=             -0.0001

 Normal termination of Gaussian 16 at Fri Sep 22 17:17:36 2023.
