 Gaussian 16, Revision A.03,
 Gaussian 16:  ES64L-G16RevA.03 25-Dec-2016

 ----------
 # hf/3-21g
 ----------

 ------------------------
 tmpdir/M2_conf_209_7.gjf
 ------------------------
 Symbolic Z-matrix:
 Charge =  0 Multiplicity = 1

                         Standard orientation:
 ---------------------------------------------------------------------
 Center     Atomic      Atomic             Coordinates (Angstroms)
 Number     Number       Type             X           Y           Z
 ---------------------------------------------------------------------
      1          1           0       -1.068502    0.015117   -0.296675
      2          6           0       -0.028930   -0.029779   -0.032307
      3          1           0        0.819147   -0.181514   -0.672902
      4          1           0        0.163195   -0.725505    0.762191
      5          1           0        0.259739    1.070575    0.401228
 ---------------------------------------------------------------------

 SCF Done:  E(RHF) =  -39.9566428198     A.U. after    9 cycles

 The electronic state is 1-A.
 Alpha  occ. eigenvalues --  -11.15779  -0.93952  -0.58646  -0.53558  -0.48937
 Alpha virt. eigenvalues --    0.28272   0.31100   0.34760   0.36818   0.90094
 Alpha virt. eigenvalues --    0.96487   0.97284   1.25340   1.31055   1.35296
 Alpha virt. eigenvalues --    1.40319   1.94431

 Mulliken charges:
               1
     1  H    0.216017
     2  C   -0.788203
     3  H    0.217229
     4  H    0.206415
     5  H    0.148542
 Sum of Mulliken charges =   0.00000

 Dipole moment (field-independent basis, Debye):
    X=              0.0701    Y=             -0.0641    Z=              0.0381  Tot=              0.1023
 Quadrupole moment (field-independent basis, Debye-Ang):
   XX=             -7.8665   YY=             -8.6724   ZZ=             -8.9446
   XY=             -0.1026   XZ=             -0.0256   YZ=             -0.1572

 Normal termination of Gaussian 16 at Fri Sep 22 17:19:26 2023.
