 Gaussian 16, Revision A.03,
 Gaussian 16:  ES64L-G16RevA.03 25-Dec-2016

 ----------
 # hf/3-21g
 ----------

 ------------------------
 tmpdir/M2_conf_226_7.gjf
 ------------------------
 Symbolic Z-matrix:
 Charge =  0 Multiplicity = 1

                         Standard orientation:
 ---------------------------------------------------------------------
 Center     Atomic      Atomic             Coordinates (Angstroms)
 Number     Number       Type             X           Y           Z
 ---------------------------------------------------------------------
      1          1           0       -1.066750    0.017299   -0.299930
      2          6           0       -0.028311   -0.029768   -0.031515
      3          1           0        0.815692   -0.187579   -0.675997
      4          1           0        0.158641   -0.722645    0.766698
      5          1           0        0.262284    1.071532    0.398316
 ---------------------------------------------------------------------

 SCF Done:  E(RHF) =  -39.9572569678     A.U. after    9 cycles

 The electronic state is 1-A.
 Alpha  occ. eigenvalues --  -11.15777  -0.93941  -0.58557  -0.53610  -0.49001
 Alpha virt. eigenvalues --    0.28277   0.31161   0.34781   0.36785   0.90127
 Alpha virt. eigenvalues --    0.96301   0.97281   1.25343   1.31101   1.35328
 Alpha virt. eigenvalues --    1.40200   1.94445

 Mulliken charges:
               1
     1  H    0.215527
     2  C   -0.787120
     3  H    0.216605
     4  H    0.206383
     5  H    0.148606
 Sum of Mulliken charges =   0.00000

 Dipole moment (field-independent basis, Debye):
    X=              0.0672    Y=             -0.0641    Z=              0.0362  Tot=              0.0997
 Quadrupole moment (field-independent basis, Debye-Ang):
   XX=             -7.8843   YY=             -8.6707   ZZ=             -8.9262
   XY=             -0.1038   XZ=             -0.0260   YZ=             -0.1560

 Normal termination of Gaussian 16 at Fri Sep 22 17:19:52 2023.
