 Gaussian 16, Revision A.03,
 Gaussian 16:  ES64L-G16RevA.03 25-Dec-2016

 ----------
 # hf/3-21g
 ----------

 ------------------------
 tmpdir/M2_conf_252_2.gjf
 ------------------------
 Symbolic Z-matrix:
 Charge =  0 Multiplicity = 1

                         Standard orientation:
 ---------------------------------------------------------------------
 Center     Atomic      Atomic             Coordinates (Angstroms)
 Number     Number       Type             X           Y           Z
 ---------------------------------------------------------------------
      1          6           0        0.032273    0.000013    0.016776
      2          1           0        0.131121   -0.002148    0.973983
      3          1           0        0.422292   -0.890577   -0.438125
      4          1           0        0.418204    0.894575   -0.434265
      5          1           0       -1.165258   -0.001929   -0.202247
 ---------------------------------------------------------------------

 SCF Done:  E(RHF) =  -39.9549184352     A.U. after    9 cycles

 The electronic state is 1-A.
 Alpha  occ. eigenvalues --  -11.14443  -0.95290  -0.58087  -0.55495  -0.50289
 Alpha virt. eigenvalues --    0.28574   0.32662   0.35681   0.38202   0.86881
 Alpha virt. eigenvalues --    0.92188   0.97583   1.25459   1.34382   1.37144
 Alpha virt. eigenvalues --    1.48183   1.96547

 Mulliken charges:
               1
     1  C   -0.782061
     2  H    0.231861
     3  H    0.201932
     4  H    0.201889
     5  H    0.146379
 Sum of Mulliken charges =  -0.00000

 Dipole moment (field-independent basis, Debye):
    X=              0.0865    Y=             -0.0000    Z=              0.0708  Tot=              0.1118
 Quadrupole moment (field-independent basis, Debye-Ang):
   XX=             -8.5368   YY=             -8.2766   ZZ=             -8.3714
   XY=             -0.0010   XZ=             -0.0480   YZ=             -0.0006

 Normal termination of Gaussian 16 at Fri Sep 22 17:20:31 2023.
