 Gaussian 16, Revision A.03,
 Gaussian 16:  ES64L-G16RevA.03 25-Dec-2016

 ----------
 # hf/3-21g
 ----------

 -----------------------
 tmpdir/M2_conf_56_6.gjf
 -----------------------
 Symbolic Z-matrix:
 Charge =  0 Multiplicity = 1

                         Standard orientation:
 ---------------------------------------------------------------------
 Center     Atomic      Atomic             Coordinates (Angstroms)
 Number     Number       Type             X           Y           Z
 ---------------------------------------------------------------------
      1          1           0       -1.349797   -0.010001    1.060014
      2          6           0       -1.202725    0.000048   -0.003215
      3         17           0        0.689171    0.000045   -0.006013
      4          1           0       -1.574661    0.897121   -0.460965
      5          1           0       -1.575103   -0.888182   -0.477546
 ---------------------------------------------------------------------

 SCF Done:  E(RHF) =  -496.686565810     A.U. after   11 cycles

 The electronic state is 1-A.
 Alpha  occ. eigenvalues -- -104.08801 -11.24991 -10.48192  -7.94566  -7.94161
 Alpha  occ. eigenvalues --   -7.94161  -1.11355  -0.93316  -0.63387  -0.63200
 Alpha  occ. eigenvalues --   -0.51214  -0.43834  -0.43586
 Alpha virt. eigenvalues --    0.16421   0.27345   0.31372   0.31421   0.73864
 Alpha virt. eigenvalues --    0.80226   0.81011   0.85601   0.92705   0.94685
 Alpha virt. eigenvalues --    0.99891   1.30915   1.31180   1.32344   1.91566

 Mulliken charges:
               1
     1  H    0.275300
     2  C   -0.703554
     3  Cl  -0.107076
     4  H    0.267675
     5  H    0.267656
 Sum of Mulliken charges =   0.00000

 Dipole moment (field-independent basis, Debye):
    X=             -2.8572    Y=             -0.0007    Z=              0.0832  Tot=              2.8584
 Quadrupole moment (field-independent basis, Debye-Ang):
   XX=            -18.5606   YY=            -20.1823   ZZ=            -20.2164
   XY=             -0.0016   XZ=              0.2242   YZ=             -0.0002

 Normal termination of Gaussian 16 at Fri Sep 22 17:15:31 2023.
