 Gaussian 16, Revision A.03,
 Gaussian 16:  ES64L-G16RevA.03 25-Dec-2016

 ----------
 # hf/3-21g
 ----------

 ------------------------
 tmpdir/M2_conf_300_5.gjf
 ------------------------
 Symbolic Z-matrix:
 Charge =  0 Multiplicity = 1

                         Standard orientation:
 ---------------------------------------------------------------------
 Center     Atomic      Atomic             Coordinates (Angstroms)
 Number     Number       Type             X           Y           Z
 ---------------------------------------------------------------------
      1          1           0        1.054447    0.048423   -0.319831
      2          6           0        0.024910   -0.029345   -0.026243
      3          1           0       -0.786838   -0.245185   -0.694897
      4          1           0       -0.117355   -0.701086    0.799065
      5          1           0       -0.299715    1.073917    0.373122
 ---------------------------------------------------------------------

 SCF Done:  E(RHF) =  -39.9607846513     A.U. after    9 cycles

 The electronic state is 1-A.
 Alpha  occ. eigenvalues --  -11.15762  -0.93877  -0.57969  -0.53970  -0.49379
 Alpha virt. eigenvalues --    0.28307   0.31519   0.34933   0.36572   0.90394
 Alpha virt. eigenvalues --    0.95126   0.97301   1.25333   1.31420   1.35548
 Alpha virt. eigenvalues --    1.39456   1.94536

 Mulliken charges:
               1
     1  H    0.212725
     2  C   -0.780951
     3  H    0.213028
     4  H    0.206148
     5  H    0.149050
 Sum of Mulliken charges =  -0.00000

 Dipole moment (field-independent basis, Debye):
    X=             -0.0473    Y=             -0.0649    Z=              0.0248  Tot=              0.0840
 Quadrupole moment (field-independent basis, Debye-Ang):
   XX=             -8.0036   YY=             -8.6580   ZZ=             -8.8069
   XY=              0.1199   XZ=              0.0308   YZ=             -0.1451

 Normal termination of Gaussian 16 at Fri Sep 22 17:21:49 2023.
