 Gaussian 16, Revision A.03,
 Gaussian 16:  ES64L-G16RevA.03 25-Dec-2016

 ----------
 # hf/3-21g
 ----------

 -----------------------
 tmpdir/M2_conf_42_9.gjf
 -----------------------
 Symbolic Z-matrix:
 Charge =  0 Multiplicity = 1

                         Standard orientation:
 ---------------------------------------------------------------------
 Center     Atomic      Atomic             Coordinates (Angstroms)
 Number     Number       Type             X           Y           Z
 ---------------------------------------------------------------------
      1          1           0        1.241344   -0.007162    1.067101
      2          6           0        1.203417    0.000043   -0.005805
      3         17           0       -0.688481    0.000062   -0.009952
      4          1           0        1.621262   -0.889598   -0.437245
      5          1           0        1.621062    0.895446   -0.425842
 ---------------------------------------------------------------------

 SCF Done:  E(RHF) =  -496.680838993     A.U. after   11 cycles

 The electronic state is 1-A.
 Alpha  occ. eigenvalues -- -104.08862 -11.24966 -10.48257  -7.94630  -7.94225
 Alpha  occ. eigenvalues --   -7.94222  -1.11510  -0.93276  -0.63589  -0.63176
 Alpha  occ. eigenvalues --   -0.51029  -0.43942  -0.43411
 Alpha virt. eigenvalues --    0.16088   0.27390   0.31389   0.31467   0.73933
 Alpha virt. eigenvalues --    0.79911   0.81055   0.85638   0.92437   0.95346
 Alpha virt. eigenvalues --    1.00415   1.30472   1.31171   1.32360   1.90708

 Mulliken charges:
               1
     1  H    0.278954
     2  C   -0.704806
     3  Cl  -0.107508
     4  H    0.266693
     5  H    0.266667
 Sum of Mulliken charges =   0.00000

 Dipole moment (field-independent basis, Debye):
    X=              2.8384    Y=             -0.0010    Z=              0.1439  Tot=              2.8420
 Quadrupole moment (field-independent basis, Debye-Ang):
   XX=            -18.5450   YY=            -20.1832   ZZ=            -20.2868
   XY=              0.0021   XZ=             -0.3713   YZ=             -0.0001

 Normal termination of Gaussian 16 at Fri Sep 22 17:15:10 2023.
