 Gaussian 16, Revision A.03,
 Gaussian 16:  ES64L-G16RevA.03 25-Dec-2016

 ----------
 # hf/3-21g
 ----------

 ------------------------
 tmpdir/M2_conf_287_8.gjf
 ------------------------
 Symbolic Z-matrix:
 Charge =  0 Multiplicity = 1

                         Standard orientation:
 ---------------------------------------------------------------------
 Center     Atomic      Atomic             Coordinates (Angstroms)
 Number     Number       Type             X           Y           Z
 ---------------------------------------------------------------------
      1          1           0        0.331319   -0.000008    0.520980
      2          6           0        1.226074    0.000023   -0.072341
      3         17           0       -0.664873   -0.000009   -0.012293
      4          1           0        1.807361    0.892488    0.061033
      5          1           0        1.807713   -0.892462    0.061021
 ---------------------------------------------------------------------

 SCF Done:  E(RHF) =  -496.363858882     A.U. after   12 cycles

 The electronic state is 1-A.
 Alpha  occ. eigenvalues -- -104.15678 -11.18616 -10.56146  -8.02616  -8.01847
 Alpha  occ. eigenvalues --   -8.01803  -1.29229  -0.90355  -0.69931  -0.60809
 Alpha  occ. eigenvalues --   -0.54915  -0.49856  -0.32329
 Alpha virt. eigenvalues --    0.10253   0.33174   0.34394   0.39126   0.65933
 Alpha virt. eigenvalues --    0.72303   0.74662   0.78379   0.93917   0.99630
 Alpha virt. eigenvalues --    1.06158   1.24548   1.34737   1.37764   1.83572

 Mulliken charges:
               1
     1  H    0.222475
     2  C   -0.839517
     3  Cl   0.079644
     4  H    0.268714
     5  H    0.268684
 Sum of Mulliken charges =   0.00000

 Dipole moment (field-independent basis, Debye):
    X=              0.2576    Y=             -0.0000    Z=              1.2381  Tot=              1.2646
 Quadrupole moment (field-independent basis, Debye-Ang):
   XX=            -19.3303   YY=            -19.6398   ZZ=            -22.3352
   XY=             -0.0003   XZ=              0.8620   YZ=              0.0001

 Normal termination of Gaussian 16 at Fri Sep 22 17:21:29 2023.
