 Gaussian 16, Revision A.03,
 Gaussian 16:  ES64L-G16RevA.03 25-Dec-2016

 ----------
 # hf/3-21g
 ----------

 -----------------------
 tmpdir/M2_conf_91_9.gjf
 -----------------------
 Symbolic Z-matrix:
 Charge =  0 Multiplicity = 1

                         Standard orientation:
 ---------------------------------------------------------------------
 Center     Atomic      Atomic             Coordinates (Angstroms)
 Number     Number       Type             X           Y           Z
 ---------------------------------------------------------------------
      1          1           0        1.538982   -0.301618    0.974609
      2          6           0        1.202379   -0.000209    0.000716
      3         17           0       -0.689524   -0.000445    0.001406
      4          1           0        1.484506   -0.697495   -0.765047
      5          1           0        1.484139    1.007931   -0.237759
 ---------------------------------------------------------------------

 SCF Done:  E(RHF) =  -496.689318691     A.U. after   11 cycles

 The electronic state is 1-A.
 Alpha  occ. eigenvalues -- -104.08774 -11.25001 -10.48163  -7.94538  -7.94134
 Alpha  occ. eigenvalues --   -7.94134  -1.11284  -0.93336  -0.63259  -0.63236
 Alpha  occ. eigenvalues --   -0.51317  -0.43745  -0.43707
 Alpha virt. eigenvalues --    0.16595   0.27332   0.31372   0.31386   0.73827
 Alpha virt. eigenvalues --    0.80565   0.80795   0.85506   0.93406   0.93912
 Alpha virt. eigenvalues --    0.99554   1.31183   1.31245   1.32214   1.91985

 Mulliken charges:
               1
     1  H    0.268623
     2  C   -0.702685
     3  Cl  -0.107038
     4  H    0.270561
     5  H    0.270540
 Sum of Mulliken charges =   0.00000

 Dipole moment (field-independent basis, Debye):
    X=              2.8658    Y=              0.0057    Z=             -0.0184  Tot=              2.8659
 Quadrupole moment (field-independent basis, Debye-Ang):
   XX=            -18.5694   YY=            -20.1798   ZZ=            -20.1834
   XY=             -0.0169   XZ=              0.0524   YZ=              0.0004

 Normal termination of Gaussian 16 at Fri Sep 22 17:16:23 2023.
