 Gaussian 16, Revision A.03,
 Gaussian 16:  ES64L-G16RevA.03 25-Dec-2016

 ----------
 # hf/3-21g
 ----------

 ------------------------
 tmpdir/M2_conf_244_8.gjf
 ------------------------
 Symbolic Z-matrix:
 Charge =  0 Multiplicity = 1

                         Standard orientation:
 ---------------------------------------------------------------------
 Center     Atomic      Atomic             Coordinates (Angstroms)
 Number     Number       Type             X           Y           Z
 ---------------------------------------------------------------------
      1          1           0        0.586691    0.000082    0.830056
      2          6           0        1.215661    0.000016   -0.040009
      3         17           0       -0.676143   -0.000011   -0.020632
      4          1           0        1.806714    0.892479   -0.119666
      5          1           0        1.807058   -0.892471   -0.119591
 ---------------------------------------------------------------------

 SCF Done:  E(RHF) =  -496.542293069     A.U. after   12 cycles

 The electronic state is 1-A.
 Alpha  occ. eigenvalues -- -104.11084 -11.22897 -10.50925  -7.97281  -7.96810
 Alpha  occ. eigenvalues --   -7.96751  -1.17233  -0.92054  -0.66739  -0.62356
 Alpha  occ. eigenvalues --   -0.51429  -0.46490  -0.38199
 Alpha virt. eigenvalues --    0.11628   0.30322   0.32442   0.32707   0.73787
 Alpha virt. eigenvalues --    0.77345   0.79835   0.84410   0.92557   0.98410
 Alpha virt. eigenvalues --    1.03717   1.21548   1.31304   1.32172   1.81180

 Mulliken charges:
               1
     1  H    0.294480
     2  C   -0.738147
     3  Cl  -0.096279
     4  H    0.269992
     5  H    0.269953
 Sum of Mulliken charges =  -0.00000

 Dipole moment (field-independent basis, Debye):
    X=              2.0419    Y=              0.0001    Z=              0.6169  Tot=              2.1331
 Quadrupole moment (field-independent basis, Debye-Ang):
   XX=            -18.7785   YY=            -20.0494   ZZ=            -21.4494
   XY=             -0.0003   XZ=             -0.5699   YZ=             -0.0000

 Normal termination of Gaussian 16 at Fri Sep 22 17:20:19 2023.
