 Gaussian 16, Revision A.03,
 Gaussian 16:  ES64L-G16RevA.03 25-Dec-2016

 ----------
 # hf/3-21g
 ----------

 ------------------------
 tmpdir/M2_conf_199_4.gjf
 ------------------------
 Symbolic Z-matrix:
 Charge =  0 Multiplicity = 1

                         Standard orientation:
 ---------------------------------------------------------------------
 Center     Atomic      Atomic             Coordinates (Angstroms)
 Number     Number       Type             X           Y           Z
 ---------------------------------------------------------------------
      1          1           0        0.368977   -0.290519    0.970529
      2          6           0        0.028744    0.008057   -0.002755
      3          1           0        0.478739   -0.612856   -0.754143
      4          1           0        0.149323    1.060919   -0.174643
      5          1           0       -1.169503   -0.205886   -0.025215
 ---------------------------------------------------------------------

 SCF Done:  E(RHF) =  -39.9669112396     A.U. after    9 cycles

 The electronic state is 1-A.
 Alpha  occ. eigenvalues --  -11.15722  -0.93782  -0.56028  -0.55112  -0.50389
 Alpha virt. eigenvalues --    0.28301   0.32288   0.35486   0.35848   0.91441
 Alpha virt. eigenvalues --    0.92322   0.97773   1.24996   1.32597   1.36450
 Alpha virt. eigenvalues --    1.37355   1.94596

 Mulliken charges:
               1
     1  H    0.205781
     2  C   -0.770712
     3  H    0.206149
     4  H    0.206760
     5  H    0.152022
 Sum of Mulliken charges =  -0.00000

 Dipole moment (field-independent basis, Debye):
    X=              0.0786    Y=              0.0037    Z=              0.0160  Tot=              0.0803
 Quadrupole moment (field-independent basis, Debye-Ang):
   XX=             -8.6086   YY=             -8.3477   ZZ=             -8.4787
   XY=             -0.0829   XZ=             -0.0134   YZ=             -0.0014

 Normal termination of Gaussian 16 at Fri Sep 22 17:19:11 2023.
