 Gaussian 16, Revision A.03,
 Gaussian 16:  ES64L-G16RevA.03 25-Dec-2016

 ----------
 # hf/3-21g
 ----------

 ------------------------
 tmpdir/M2_conf_108_9.gjf
 ------------------------
 Symbolic Z-matrix:
 Charge =  0 Multiplicity = 1

                         Standard orientation:
 ---------------------------------------------------------------------
 Center     Atomic      Atomic             Coordinates (Angstroms)
 Number     Number       Type             X           Y           Z
 ---------------------------------------------------------------------
      1          1           0        1.372733   -0.026937    1.056971
      2          6           0        1.202625    0.000077   -0.002723
      3         17           0       -0.689277    0.000124   -0.005139
      4          1           0        1.564746   -0.880075   -0.499106
      5          1           0        1.564471    0.904439   -0.454167
 ---------------------------------------------------------------------

 SCF Done:  E(RHF) =  -496.687376823     A.U. after   11 cycles

 The electronic state is 1-A.
 Alpha  occ. eigenvalues -- -104.08793 -11.24994 -10.48183  -7.94557  -7.94153
 Alpha  occ. eigenvalues --   -7.94153  -1.11333  -0.93322  -0.63354  -0.63207
 Alpha  occ. eigenvalues --   -0.51244  -0.43815  -0.43614
 Alpha virt. eigenvalues --    0.16471   0.27340   0.31369   0.31415   0.73853
 Alpha virt. eigenvalues --    0.80291   0.80983   0.85580   0.92827   0.94530
 Alpha virt. eigenvalues --    0.99800   1.31001   1.31192   1.32307   1.91689

 Mulliken charges:
               1
     1  H    0.274451
     2  C   -0.703317
     3  Cl  -0.107043
     4  H    0.267967
     5  H    0.267943
 Sum of Mulliken charges =   0.00000

 Dipole moment (field-independent basis, Debye):
    X=              2.8598    Y=             -0.0018    Z=              0.0704  Tot=              2.8606
 Quadrupole moment (field-independent basis, Debye-Ang):
   XX=            -18.5630   YY=            -20.1827   ZZ=            -20.2057
   XY=              0.0044   XZ=             -0.1920   YZ=             -0.0002

 Normal termination of Gaussian 16 at Fri Sep 22 17:16:49 2023.
