 Gaussian 16, Revision A.03,
 Gaussian 16:  ES64L-G16RevA.03 25-Dec-2016

 ----------
 # hf/3-21g
 ----------

 ------------------------
 tmpdir/M2_conf_172_3.gjf
 ------------------------
 Symbolic Z-matrix:
 Charge =  0 Multiplicity = 1

                         Standard orientation:
 ---------------------------------------------------------------------
 Center     Atomic      Atomic             Coordinates (Angstroms)
 Number     Number       Type             X           Y           Z
 ---------------------------------------------------------------------
      1          6           0       -1.618857    0.000013    0.000009
      2         17           0        0.910043   -0.000011   -0.000002
      3          1           0       -1.919225   -0.278190    0.992267
      4          1           0       -1.918908    0.998723   -0.255260
      5          1           0       -1.919467   -0.720430   -0.737022
 ---------------------------------------------------------------------

 SCF Done:  E(RHF) =  -496.624785909     A.U. after   10 cycles

 The electronic state is 1-A.
 Alpha  occ. eigenvalues -- -104.06447 -11.31337 -10.45075  -7.91391  -7.91152
 Alpha  occ. eigenvalues --   -7.91152  -1.02483  -0.97844  -0.65486  -0.65482
 Alpha  occ. eigenvalues --   -0.41522  -0.41011  -0.41011
 Alpha virt. eigenvalues --    0.01090   0.24652   0.29475   0.29479   0.73154
 Alpha virt. eigenvalues --    0.78668   0.78674   0.90101   0.92741   0.92749
 Alpha virt. eigenvalues --    0.98155   1.25471   1.27373   1.27382   1.78054

 Mulliken charges:
               1
     1  C   -0.427912
     2  Cl  -0.398981
     3  H    0.275643
     4  H    0.275642
     5  H    0.275608
 Sum of Mulliken charges =   0.00000

 Dipole moment (field-independent basis, Debye):
    X=             -5.5050    Y=              0.0001    Z=              0.0001  Tot=              5.5050
 Quadrupole moment (field-independent basis, Debye-Ang):
   XX=            -14.1460   YY=            -20.4238   ZZ=            -20.4253
   XY=              0.0004   XZ=             -0.0001   YZ=             -0.0001

 Normal termination of Gaussian 16 at Fri Sep 22 17:18:25 2023.
