 Gaussian 16, Revision A.03,
 Gaussian 16:  ES64L-G16RevA.03 25-Dec-2016

 ----------
 # hf/3-21g
 ----------

 ------------------------
 tmpdir/M2_conf_286_0.gjf
 ------------------------
 Symbolic Z-matrix:
 Charge =  0 Multiplicity = 1

                         Standard orientation:
 ---------------------------------------------------------------------
 Center     Atomic      Atomic             Coordinates (Angstroms)
 Number     Number       Type             X           Y           Z
 ---------------------------------------------------------------------
      1          6           0       -0.032258    0.000055    0.014496
      2          1           0       -0.145120   -0.001160    0.988880
      3          1           0       -0.412214    0.894411   -0.441996
      4          1           0       -0.417061   -0.890965   -0.444431
      5          1           0        1.167942   -0.002617   -0.189427
 ---------------------------------------------------------------------

 SCF Done:  E(RHF) =  -39.9587584180     A.U. after    9 cycles

 The electronic state is 1-A.
 Alpha  occ. eigenvalues --  -11.14654  -0.94996  -0.57673  -0.55513  -0.50289
 Alpha virt. eigenvalues --    0.28544   0.32617   0.35680   0.37771   0.87709
 Alpha virt. eigenvalues --    0.92148   0.97567   1.25406   1.34201   1.37111
 Alpha virt. eigenvalues --    1.45931   1.96117

 Mulliken charges:
               1
     1  C   -0.780723
     2  H    0.228053
     3  H    0.202711
     4  H    0.202705
     5  H    0.147254
 Sum of Mulliken charges =  -0.00000

 Dipole moment (field-independent basis, Debye):
    X=             -0.0847    Y=              0.0002    Z=              0.0620  Tot=              0.1049
 Quadrupole moment (field-independent basis, Debye-Ang):
   XX=             -8.5574   YY=             -8.2962   ZZ=             -8.3759
   XY=              0.0011   XZ=              0.0459   YZ=             -0.0004

 Normal termination of Gaussian 16 at Fri Sep 22 17:21:28 2023.
