 Gaussian 16, Revision A.03,
 Gaussian 16:  ES64L-G16RevA.03 25-Dec-2016

 ----------
 # hf/3-21g
 ----------

 -----------------------
 tmpdir/M2_conf_70_7.gjf
 -----------------------
 Symbolic Z-matrix:
 Charge =  0 Multiplicity = 1

                         Standard orientation:
 ---------------------------------------------------------------------
 Center     Atomic      Atomic             Coordinates (Angstroms)
 Number     Number       Type             X           Y           Z
 ---------------------------------------------------------------------
      1          1           0        0.397528   -0.263727    0.964095
      2          6           0        0.026062    0.012765   -0.004504
      3          1           0        0.563552   -0.546941   -0.746422
      4          1           0        0.020749    1.075632   -0.154365
      5          1           0       -1.138202   -0.341551   -0.036286
 ---------------------------------------------------------------------

 SCF Done:  E(RHF) =  -39.9666708313     A.U. after    9 cycles

 The electronic state is 1-A.
 Alpha  occ. eigenvalues --  -11.15720  -0.93790  -0.56264  -0.54795  -0.50452
 Alpha virt. eigenvalues --    0.28288   0.32311   0.35363   0.35942   0.91204
 Alpha virt. eigenvalues --    0.92551   0.97868   1.24954   1.32665   1.36156
 Alpha virt. eigenvalues --    1.37630   1.94545

 Mulliken charges:
               1
     1  H    0.205380
     2  C   -0.771023
     3  H    0.206126
     4  H    0.207069
     5  H    0.152448
 Sum of Mulliken charges =  -0.00000

 Dipole moment (field-independent basis, Debye):
    X=              0.0835    Y=              0.0083    Z=              0.0253  Tot=              0.0876
 Quadrupole moment (field-independent basis, Debye-Ang):
   XX=             -8.5558   YY=             -8.3471   ZZ=             -8.5312
   XY=             -0.1333   XZ=             -0.0194   YZ=             -0.0039

 Normal termination of Gaussian 16 at Fri Sep 22 17:15:52 2023.
