 Gaussian 16, Revision A.03,
 Gaussian 16:  ES64L-G16RevA.03 25-Dec-2016

 ----------
 # hf/3-21g
 ----------

 ------------------------
 tmpdir/M2_conf_216_9.gjf
 ------------------------
 Symbolic Z-matrix:
 Charge =  0 Multiplicity = 1

                         Standard orientation:
 ---------------------------------------------------------------------
 Center     Atomic      Atomic             Coordinates (Angstroms)
 Number     Number       Type             X           Y           Z
 ---------------------------------------------------------------------
      1          1           0        1.102707   -0.003208    1.058876
      2          6           0        1.204809    0.000030   -0.009853
      3         17           0       -0.687084    0.000041   -0.014388
      4          1           0        1.674493   -0.891372   -0.379982
      5          1           0        1.674377    0.893702   -0.375178
 ---------------------------------------------------------------------

 SCF Done:  E(RHF) =  -496.668541932     A.U. after   11 cycles

 The electronic state is 1-A.
 Alpha  occ. eigenvalues -- -104.09005 -11.24891 -10.48415  -7.94785  -7.94378
 Alpha  occ. eigenvalues --   -7.94371  -1.11870  -0.93189  -0.63967  -0.63141
 Alpha  occ. eigenvalues --   -0.50732  -0.44141  -0.43051
 Alpha virt. eigenvalues --    0.15454   0.27537   0.31440   0.31543   0.74047
 Alpha virt. eigenvalues --    0.79506   0.80929   0.85394   0.92762   0.96134
 Alpha virt. eigenvalues --    1.01195   1.29715   1.31179   1.32209   1.89008

 Mulliken charges:
               1
     1  H    0.283404
     2  C   -0.706550
     3  Cl  -0.109073
     4  H    0.266124
     5  H    0.266095
 Sum of Mulliken charges =  -0.00000

 Dipole moment (field-independent basis, Debye):
    X=              2.7946    Y=             -0.0007    Z=              0.2240  Tot=              2.8036
 Quadrupole moment (field-independent basis, Debye-Ang):
   XX=            -18.5231   YY=            -20.1806   ZZ=            -20.4306
   XY=              0.0013   XZ=             -0.5351   YZ=             -0.0001

 Normal termination of Gaussian 16 at Fri Sep 22 17:19:36 2023.
