 Gaussian 16, Revision A.03,
 Gaussian 16:  ES64L-G16RevA.03 25-Dec-2016

 ----------
 # hf/3-21g
 ----------

 -----------------------
 tmpdir/M2_conf_13_0.gjf
 -----------------------
 Symbolic Z-matrix:
 Charge =  0 Multiplicity = 1

                         Standard orientation:
 ---------------------------------------------------------------------
 Center     Atomic      Atomic             Coordinates (Angstroms)
 Number     Number       Type             X           Y           Z
 ---------------------------------------------------------------------
      1          6           0       -0.032174    0.000056    0.007623
      2          1           0       -0.210165   -0.002645    1.023545
      3          1           0       -0.384825    0.895150   -0.468892
      4          1           0       -0.389812   -0.890219   -0.474155
      5          1           0        1.177845   -0.002621   -0.126237
 ---------------------------------------------------------------------

 SCF Done:  E(RHF) =  -39.9651991258     A.U. after    9 cycles

 The electronic state is 1-A.
 Alpha  occ. eigenvalues --  -11.15235  -0.94284  -0.56555  -0.55575  -0.50285
 Alpha virt. eigenvalues --    0.28442   0.32451   0.35684   0.36605   0.90007
 Alpha virt. eigenvalues --    0.92023   0.97555   1.25243   1.33560   1.37025
 Alpha virt. eigenvalues --    1.40426   1.95217

 Mulliken charges:
               1
     1  C   -0.775953
     2  H    0.216775
     3  H    0.204819
     4  H    0.204814
     5  H    0.149545
 Sum of Mulliken charges =  -0.00000

 Dipole moment (field-independent basis, Debye):
    X=             -0.0788    Y=              0.0001    Z=              0.0323  Tot=              0.0852
 Quadrupole moment (field-independent basis, Debye-Ang):
   XX=             -8.6131   YY=             -8.3482   ZZ=             -8.3842
   XY=              0.0012   XZ=              0.0318   YZ=             -0.0004

 Normal termination of Gaussian 16 at Fri Sep 22 17:14:26 2023.
