 Gaussian 16, Revision A.03,
 Gaussian 16:  ES64L-G16RevA.03 25-Dec-2016

 ----------
 # hf/3-21g
 ----------

 -----------------------
 tmpdir/M2_conf_55_9.gjf
 -----------------------
 Symbolic Z-matrix:
 Charge =  0 Multiplicity = 1

                         Standard orientation:
 ---------------------------------------------------------------------
 Center     Atomic      Atomic             Coordinates (Angstroms)
 Number     Number       Type             X           Y           Z
 ---------------------------------------------------------------------
      1          1           0        1.688914   -0.008955    0.961448
      2          6           0        1.202950   -0.000023    0.004173
      3         17           0       -0.688943   -0.000082    0.007598
      4          1           0        1.402935   -0.887256   -0.565933
      5          1           0        1.402491    0.897751   -0.549714
 ---------------------------------------------------------------------

 SCF Done:  E(RHF) =  -496.684984086     A.U. after   11 cycles

 The electronic state is 1-A.
 Alpha  occ. eigenvalues -- -104.08810 -11.24990 -10.48200  -7.94574  -7.94170
 Alpha  occ. eigenvalues --   -7.94169  -1.11386  -0.93304  -0.63337  -0.63308
 Alpha  occ. eigenvalues --   -0.51135  -0.43759  -0.43635
 Alpha virt. eigenvalues --    0.16284   0.27323   0.31364   0.31471   0.73877
 Alpha virt. eigenvalues --    0.80042   0.81289   0.85735   0.92306   0.94654
 Alpha virt. eigenvalues --    1.00416   1.30598   1.31316   1.32537   1.91410

 Mulliken charges:
               1
     1  H    0.263993
     2  C   -0.705177
     3  Cl  -0.106303
     4  H    0.273753
     5  H    0.273734
 Sum of Mulliken charges =  -0.00000

 Dipole moment (field-independent basis, Debye):
    X=              2.8532    Y=              0.0009    Z=             -0.0963  Tot=              2.8548
 Quadrupole moment (field-independent basis, Debye-Ang):
   XX=            -18.5524   YY=            -20.1765   ZZ=            -20.2441
   XY=             -0.0034   XZ=              0.2854   YZ=              0.0000

 Normal termination of Gaussian 16 at Fri Sep 22 17:15:29 2023.
