 Gaussian 16, Revision A.03,
 Gaussian 16:  ES64L-G16RevA.03 25-Dec-2016

 ----------
 # hf/3-21g
 ----------

 ------------------------
 tmpdir/M2_conf_170_2.gjf
 ------------------------
 Symbolic Z-matrix:
 Charge =  0 Multiplicity = 1

                         Standard orientation:
 ---------------------------------------------------------------------
 Center     Atomic      Atomic             Coordinates (Angstroms)
 Number     Number       Type             X           Y           Z
 ---------------------------------------------------------------------
      1          6           0        0.027816   -0.013091   -0.000014
      2          1           0        0.651742    0.911219   -0.006213
      3          1           0        0.159553   -0.591208    0.894762
      4          1           0        0.153369   -0.599717   -0.890368
      5          1           0       -1.131561    0.358255    0.001905
 ---------------------------------------------------------------------

 SCF Done:  E(RHF) =  -39.9661790540     A.U. after    9 cycles

 The electronic state is 1-A.
 Alpha  occ. eigenvalues --  -11.16211  -0.93343  -0.55707  -0.54754  -0.50233
 Alpha virt. eigenvalues --    0.28142   0.31891   0.34899   0.35689   0.91825
 Alpha virt. eigenvalues --    0.93646   0.97927   1.24819   1.30253   1.35125
 Alpha virt. eigenvalues --    1.36845   1.94165

 Mulliken charges:
               1
     1  C   -0.764337
     2  H    0.195492
     3  H    0.207923
     4  H    0.207874
     5  H    0.153048
 Sum of Mulliken charges =  -0.00000

 Dipole moment (field-independent basis, Debye):
    X=              0.0480    Y=             -0.0432    Z=              0.0001  Tot=              0.0646
 Quadrupole moment (field-independent basis, Debye-Ang):
   XX=             -8.6635   YY=             -8.4317   ZZ=             -8.4304
   XY=              0.0910   XZ=              0.0012   YZ=              0.0000

 Normal termination of Gaussian 16 at Fri Sep 22 17:18:22 2023.
