 Gaussian 16, Revision A.03,
 Gaussian 16:  ES64L-G16RevA.03 25-Dec-2016

 ----------
 # hf/3-21g
 ----------

 ------------------------
 tmpdir/M2_conf_106_8.gjf
 ------------------------
 Symbolic Z-matrix:
 Charge =  0 Multiplicity = 1

                         Standard orientation:
 ---------------------------------------------------------------------
 Center     Atomic      Atomic             Coordinates (Angstroms)
 Number     Number       Type             X           Y           Z
 ---------------------------------------------------------------------
      1          1           0       -1.597303   -0.027487    1.000027
      2          6           0       -1.202509   -0.000064    0.002028
      3         17           0        0.689386   -0.000103    0.003861
      4          1           0       -1.453545   -0.877331   -0.563270
      5          1           0       -1.453660    0.906954   -0.514557
 ---------------------------------------------------------------------

 SCF Done:  E(RHF) =  -496.688348486     A.U. after   11 cycles

 The electronic state is 1-A.
 Alpha  occ. eigenvalues -- -104.08782 -11.24998 -10.48172  -7.94546  -7.94142
 Alpha  occ. eigenvalues --   -7.94142  -1.11307  -0.93328  -0.63283  -0.63247
 Alpha  occ. eigenvalues --   -0.51276  -0.43763  -0.43676
 Alpha virt. eigenvalues --    0.16527   0.27331   0.31364   0.31410   0.73839
 Alpha virt. eigenvalues --    0.80361   0.80982   0.85560   0.92984   0.94272
 Alpha virt. eigenvalues --    0.99735   1.31015   1.31267   1.32307   1.91849

 Mulliken charges:
               1
     1  H    0.266697
     2  C   -0.703187
     3  Cl  -0.106926
     4  H    0.271732
     5  H    0.271684
 Sum of Mulliken charges =  -0.00000

 Dipole moment (field-independent basis, Debye):
    X=             -2.8630    Y=              0.0013    Z=             -0.0498  Tot=              2.8634
 Quadrupole moment (field-independent basis, Debye-Ang):
   XX=            -18.5661   YY=            -20.1789   ZZ=            -20.1969
   XY=              0.0041   XZ=             -0.1444   YZ=              0.0002

 Normal termination of Gaussian 16 at Fri Sep 22 17:16:46 2023.
