 Gaussian 16, Revision A.03,
 Gaussian 16:  ES64L-G16RevA.03 25-Dec-2016

 ----------
 # hf/3-21g
 ----------

 ------------------------
 tmpdir/M2_conf_194_8.gjf
 ------------------------
 Symbolic Z-matrix:
 Charge =  0 Multiplicity = 1

                         Standard orientation:
 ---------------------------------------------------------------------
 Center     Atomic      Atomic             Coordinates (Angstroms)
 Number     Number       Type             X           Y           Z
 ---------------------------------------------------------------------
      1          1           0        0.610292    0.000096    0.849318
      2          6           0        1.214924    0.000016   -0.037833
      3         17           0       -0.676898   -0.000011   -0.020866
      4          1           0        1.803547    0.892475   -0.133842
      5          1           0        1.803888   -0.892475   -0.133750
 ---------------------------------------------------------------------

 SCF Done:  E(RHF) =  -496.552501711     A.U. after   12 cycles

 The electronic state is 1-A.
 Alpha  occ. eigenvalues -- -104.10870 -11.23129 -10.50667  -7.97022  -7.96560
 Alpha  occ. eigenvalues --   -7.96504  -1.16683  -0.92164  -0.66542  -0.62452
 Alpha  occ. eigenvalues --   -0.51248  -0.46274  -0.38623
 Alpha virt. eigenvalues --    0.11826   0.30062   0.32345   0.32517   0.73872
 Alpha virt. eigenvalues --    0.77500   0.79949   0.84487   0.92976   0.98321
 Alpha virt. eigenvalues --    1.03582   1.22175   1.31208   1.32044   1.81348

 Mulliken charges:
               1
     1  H    0.294992
     2  C   -0.733571
     3  Cl  -0.100793
     4  H    0.269705
     5  H    0.269666
 Sum of Mulliken charges =  -0.00000

 Dipole moment (field-independent basis, Debye):
    X=              2.1257    Y=              0.0001    Z=              0.5889  Tot=              2.2058
 Quadrupole moment (field-independent basis, Debye-Ang):
   XX=            -18.7385   YY=            -20.0670   ZZ=            -21.3873
   XY=             -0.0003   XZ=             -0.6114   YZ=             -0.0000

 Normal termination of Gaussian 16 at Fri Sep 22 17:19:03 2023.
