 Gaussian 16, Revision A.03,
 Gaussian 16:  ES64L-G16RevA.03 25-Dec-2016

 ----------
 # hf/3-21g
 ----------

 -----------------------
 tmpdir/M2_conf_88_8.gjf
 -----------------------
 Symbolic Z-matrix:
 Charge =  0 Multiplicity = 1

                         Standard orientation:
 ---------------------------------------------------------------------
 Center     Atomic      Atomic             Coordinates (Angstroms)
 Number     Number       Type             X           Y           Z
 ---------------------------------------------------------------------
      1          1           0       -1.575677   -0.048982    1.007003
      2          6           0       -1.202450   -0.000085    0.001554
      3         17           0        0.689449   -0.000141    0.002973
      4          1           0       -1.465065   -0.865484   -0.576629
      5          1           0       -1.465186    0.917374   -0.490236
 ---------------------------------------------------------------------

 SCF Done:  E(RHF) =  -496.688810770     A.U. after   11 cycles

 The electronic state is 1-A.
 Alpha  occ. eigenvalues -- -104.08778 -11.24999 -10.48167  -7.94542  -7.94138
 Alpha  occ. eigenvalues --   -7.94138  -1.11296  -0.93332  -0.63273  -0.63241
 Alpha  occ. eigenvalues --   -0.51295  -0.43758  -0.43687
 Alpha virt. eigenvalues --    0.16559   0.27332   0.31366   0.31401   0.73834
 Alpha virt. eigenvalues --    0.80438   0.80912   0.85535   0.93141   0.94147
 Alpha virt. eigenvalues --    0.99646   1.31090   1.31258   1.32265   1.91913

 Mulliken charges:
               1
     1  H    0.267400
     2  C   -0.702941
     3  Cl  -0.106990
     4  H    0.271290
     5  H    0.271242
 Sum of Mulliken charges =   0.00000

 Dipole moment (field-independent basis, Debye):
    X=             -2.8643    Y=              0.0018    Z=             -0.0386  Tot=              2.8646
 Quadrupole moment (field-independent basis, Debye-Ang):
   XX=            -18.5679   YY=            -20.1794   ZZ=            -20.1903
   XY=              0.0055   XZ=             -0.1111   YZ=              0.0002

 Normal termination of Gaussian 16 at Fri Sep 22 17:16:19 2023.
