 Gaussian 16, Revision A.03,
 Gaussian 16:  ES64L-G16RevA.03 25-Dec-2016

 ----------
 # hf/3-21g
 ----------

 ------------------------
 tmpdir/M2_conf_242_8.gjf
 ------------------------
 Symbolic Z-matrix:
 Charge =  0 Multiplicity = 1

                         Standard orientation:
 ---------------------------------------------------------------------
 Center     Atomic      Atomic             Coordinates (Angstroms)
 Number     Number       Type             X           Y           Z
 ---------------------------------------------------------------------
      1          1           0        0.563633    0.000070    0.810114
      2          6           0        1.216405    0.000017   -0.042240
      3         17           0       -0.675369   -0.000011   -0.020335
      4          1           0        1.809432    0.892481   -0.105522
      5          1           0        1.809778   -0.892469   -0.105461
 ---------------------------------------------------------------------

 SCF Done:  E(RHF) =  -496.531675012     A.U. after   12 cycles

 The electronic state is 1-A.
 Alpha  occ. eigenvalues -- -104.11316 -11.22647 -10.51204  -7.97561  -7.97080
 Alpha  occ. eigenvalues --   -7.97017  -1.17829  -0.91935  -0.66942  -0.62251
 Alpha  occ. eigenvalues --   -0.51627  -0.46716  -0.37761
 Alpha virt. eigenvalues --    0.11438   0.30587   0.32546   0.32933   0.73688
 Alpha virt. eigenvalues --    0.77183   0.79692   0.84247   0.92118   0.98498
 Alpha virt. eigenvalues --    1.03859   1.20985   1.31439   1.32311   1.81064

 Mulliken charges:
               1
     1  H    0.293587
     2  C   -0.743286
     3  Cl  -0.090787
     4  H    0.270262
     5  H    0.270224
 Sum of Mulliken charges =   0.00000

 Dipole moment (field-independent basis, Debye):
    X=              1.9505    Y=              0.0001    Z=              0.6466  Tot=              2.0549
 Quadrupole moment (field-independent basis, Debye-Ang):
   XX=            -18.8217   YY=            -20.0298   ZZ=            -21.5117
   XY=             -0.0003   XZ=             -0.5207   YZ=             -0.0000

 Normal termination of Gaussian 16 at Fri Sep 22 17:20:16 2023.
