 Gaussian 16, Revision A.03,
 Gaussian 16:  ES64L-G16RevA.03 25-Dec-2016

 ----------
 # hf/3-21g
 ----------

 -----------------------
 tmpdir/M2_conf_19_1.gjf
 -----------------------
 Symbolic Z-matrix:
 Charge =  0 Multiplicity = 1

                         Standard orientation:
 ---------------------------------------------------------------------
 Center     Atomic      Atomic             Coordinates (Angstroms)
 Number     Number       Type             X           Y           Z
 ---------------------------------------------------------------------
      1          6           0       -0.029913   -0.008017    0.000059
      2          1           0       -0.515052    0.981882   -0.004967
      3          1           0       -0.237002   -0.562416    0.895567
      4          1           0       -0.237903   -0.572198   -0.889349
      5          1           0        1.169435    0.200832   -0.001603
 ---------------------------------------------------------------------

 SCF Done:  E(RHF) =  -39.9666447251     A.U. after    9 cycles

 The electronic state is 1-A.
 Alpha  occ. eigenvalues --  -11.16062  -0.93469  -0.55682  -0.55025  -0.50247
 Alpha virt. eigenvalues --    0.28204   0.32010   0.35126   0.35687   0.91848
 Alpha virt. eigenvalues --    0.93151   0.97802   1.24909   1.31028   1.35527
 Alpha virt. eigenvalues --    1.36874   1.94310

 Mulliken charges:
               1
     1  C   -0.766407
     2  H    0.198933
     3  H    0.207495
     4  H    0.207440
     5  H    0.152540
 Sum of Mulliken charges =  -0.00000

 Dipole moment (field-independent basis, Debye):
    X=             -0.0587    Y=             -0.0284    Z=              0.0003  Tot=              0.0652
 Quadrupole moment (field-independent basis, Debye-Ang):
   XX=             -8.6737   YY=             -8.4064   ZZ=             -8.4188
   XY=             -0.0518   XZ=              0.0004   YZ=              0.0002

 Normal termination of Gaussian 16 at Fri Sep 22 17:14:35 2023.
