 Gaussian 16, Revision A.03,
 Gaussian 16:  ES64L-G16RevA.03 25-Dec-2016

 ----------
 # hf/3-21g
 ----------

 ------------------------
 tmpdir/M2_conf_264_1.gjf
 ------------------------
 Symbolic Z-matrix:
 Charge =  0 Multiplicity = 1

                         Standard orientation:
 ---------------------------------------------------------------------
 Center     Atomic      Atomic             Coordinates (Angstroms)
 Number     Number       Type             X           Y           Z
 ---------------------------------------------------------------------
      1          6           0       -0.032070   -0.000061    0.005164
      2          1           0       -0.241576   -0.005530    1.031280
      3          1           0       -0.372666   -0.890340   -0.488372
      4          1           0       -0.374587    0.894581   -0.479506
      5          1           0        1.181249    0.001652   -0.094384
 ---------------------------------------------------------------------

 SCF Done:  E(RHF) =  -39.9661978357     A.U. after    9 cycles

 The electronic state is 1-A.
 Alpha  occ. eigenvalues --  -11.15418  -0.94086  -0.56212  -0.55596  -0.50281
 Alpha virt. eigenvalues --    0.28401   0.32381   0.35686   0.36252   0.90738
 Alpha virt. eigenvalues --    0.91974   0.97570   1.25184   1.33253   1.36998
 Alpha virt. eigenvalues --    1.38953   1.94992

 Mulliken charges:
               1
     1  C   -0.774125
     2  H    0.212970
     3  H    0.205489
     4  H    0.205434
     5  H    0.150232
 Sum of Mulliken charges =  -0.00000

 Dipole moment (field-independent basis, Debye):
    X=             -0.0764    Y=             -0.0003    Z=              0.0212  Tot=              0.0793
 Quadrupole moment (field-independent basis, Debye-Ang):
   XX=             -8.6300   YY=             -8.3649   ZZ=             -8.3856
   XY=             -0.0005   XZ=              0.0248   YZ=             -0.0001

 Normal termination of Gaussian 16 at Fri Sep 22 17:20:50 2023.
