 Gaussian 16, Revision A.03,
 Gaussian 16:  ES64L-G16RevA.03 25-Dec-2016

 ----------
 # hf/3-21g
 ----------

 -----------------------
 tmpdir/M2_conf_72_4.gjf
 -----------------------
 Symbolic Z-matrix:
 Charge =  0 Multiplicity = 1

                         Standard orientation:
 ---------------------------------------------------------------------
 Center     Atomic      Atomic             Coordinates (Angstroms)
 Number     Number       Type             X           Y           Z
 ---------------------------------------------------------------------
      1          1           0       -0.360786    0.963472   -0.353095
      2          6           0       -0.033329    0.001200   -0.008143
      3          1           0       -0.149128   -0.803588   -0.709228
      4          1           0       -0.457785   -0.260301    0.942677
      5          1           0        1.167671    0.093218    0.168504
 ---------------------------------------------------------------------

 SCF Done:  E(RHF) =  -39.9664242025     A.U. after    9 cycles

 The electronic state is 1-A.
 Alpha  occ. eigenvalues --  -11.15731  -0.93781  -0.56221  -0.55202  -0.50111
 Alpha virt. eigenvalues --    0.28329   0.32133   0.35494   0.35913   0.91489
 Alpha virt. eigenvalues --    0.92535   0.97517   1.25146   1.32245   1.36517
 Alpha virt. eigenvalues --    1.37524   1.94668

 Mulliken charges:
               1
     1  H    0.207478
     2  C   -0.771498
     3  H    0.207164
     4  H    0.206172
     5  H    0.150683
 Sum of Mulliken charges =  -0.00000

 Dipole moment (field-independent basis, Debye):
    X=             -0.0622    Y=             -0.0203    Z=              0.0012  Tot=              0.0654
 Quadrupole moment (field-independent basis, Debye-Ang):
   XX=             -8.6670   YY=             -8.2970   ZZ=             -8.4786
   XY=             -0.0439   XZ=             -0.0684   YZ=             -0.0073

 Normal termination of Gaussian 16 at Fri Sep 22 17:15:55 2023.
