 Gaussian 16, Revision A.03,
 Gaussian 16:  ES64L-G16RevA.03 25-Dec-2016

 ----------
 # hf/3-21g
 ----------

 ------------------------
 tmpdir/M2_conf_118_2.gjf
 ------------------------
 Symbolic Z-matrix:
 Charge =  0 Multiplicity = 1

                         Standard orientation:
 ---------------------------------------------------------------------
 Center     Atomic      Atomic             Coordinates (Angstroms)
 Number     Number       Type             X           Y           Z
 ---------------------------------------------------------------------
      1          6           0        0.026408   -0.015571   -0.000015
      2          1           0        0.720284    0.865107   -0.005446
      3          1           0        0.115058   -0.602424    0.894381
      4          1           0        0.108759   -0.609222   -0.890756
      5          1           0       -1.102547    0.439966    0.001908
 ---------------------------------------------------------------------

 SCF Done:  E(RHF) =  -39.9658971819     A.U. after    9 cycles

 The electronic state is 1-A.
 Alpha  occ. eigenvalues --  -11.16281  -0.93286  -0.55717  -0.54630  -0.50225
 Alpha virt. eigenvalues --    0.28111   0.31831   0.34801   0.35689   0.91812
 Alpha virt. eigenvalues --    0.93866   0.98000   1.24770   1.29876   1.34974
 Alpha virt. eigenvalues --    1.36830   1.94098

 Mulliken charges:
               1
     1  C   -0.763333
     2  H    0.193861
     3  H    0.208119
     4  H    0.208070
     5  H    0.153283
 Sum of Mulliken charges =   0.00000

 Dipole moment (field-independent basis, Debye):
    X=              0.0415    Y=             -0.0497    Z=              0.0001  Tot=              0.0648
 Quadrupole moment (field-independent basis, Debye-Ang):
   XX=             -8.6530   YY=             -8.4488   ZZ=             -8.4361
   XY=              0.1090   XZ=              0.0012   YZ=             -0.0001

 Normal termination of Gaussian 16 at Fri Sep 22 17:17:04 2023.
