 Gaussian 16, Revision A.03,
 Gaussian 16:  ES64L-G16RevA.03 25-Dec-2016

 ----------
 # hf/3-21g
 ----------

 -----------------------
 tmpdir/M2_conf_83_5.gjf
 -----------------------
 Symbolic Z-matrix:
 Charge =  0 Multiplicity = 1

                         Standard orientation:
 ---------------------------------------------------------------------
 Center     Atomic      Atomic             Coordinates (Angstroms)
 Number     Number       Type             X           Y           Z
 ---------------------------------------------------------------------
      1          1           0       -0.498627   -0.128290    0.928991
      2          6           0       -0.010072    0.024973   -0.014413
      3          1           0       -0.779076   -0.284568   -0.696643
      4          1           0        0.407162    1.009949   -0.105788
      5          1           0        0.930974   -0.746930   -0.040082
 ---------------------------------------------------------------------

 SCF Done:  E(RHF) =  -39.9631100148     A.U. after    9 cycles

 The electronic state is 1-A.
 Alpha  occ. eigenvalues --  -11.15723  -0.93886  -0.57430  -0.53196  -0.50693
 Alpha virt. eigenvalues --    0.28182   0.32330   0.34767   0.36318   0.90308
 Alpha virt. eigenvalues --    0.93682   0.98539   1.24744   1.32614   1.34973
 Alpha virt. eigenvalues --    1.39144   1.94029

 Mulliken charges:
               1
     1  H    0.204061
     2  C   -0.775065
     3  H    0.207211
     4  H    0.208894
     5  H    0.154899
 Sum of Mulliken charges =  -0.00000

 Dipole moment (field-independent basis, Debye):
    X=             -0.1148    Y=              0.0268    Z=              0.0733  Tot=              0.1388
 Quadrupole moment (field-independent basis, Debye-Ang):
   XX=             -8.2160   YY=             -8.4255   ZZ=             -8.7966
   XY=              0.2340   XZ=              0.0241   YZ=             -0.0134

 Normal termination of Gaussian 16 at Fri Sep 22 17:16:12 2023.
