 Gaussian 16, Revision A.03,
 Gaussian 16:  ES64L-G16RevA.03 25-Dec-2016

 ----------
 # hf/3-21g
 ----------

 ------------------------
 tmpdir/M2_conf_223_4.gjf
 ------------------------
 Symbolic Z-matrix:
 Charge =  0 Multiplicity = 1

                         Standard orientation:
 ---------------------------------------------------------------------
 Center     Atomic      Atomic             Coordinates (Angstroms)
 Number     Number       Type             X           Y           Z
 ---------------------------------------------------------------------
      1          1           0        0.354836   -0.302779    0.973580
      2          6           0        0.029836    0.005552   -0.001866
      3          1           0        0.433598   -0.640431   -0.758378
      4          1           0        0.211515    1.047747   -0.184691
      5          1           0       -1.178967   -0.137848   -0.019313
 ---------------------------------------------------------------------

 SCF Done:  E(RHF) =  -39.9669723776     A.U. after    9 cycles

 The electronic state is 1-A.
 Alpha  occ. eigenvalues --  -11.15723  -0.93779  -0.55908  -0.55273  -0.50355
 Alpha virt. eigenvalues --    0.28307   0.32273   0.35548   0.35800   0.91578
 Alpha virt. eigenvalues --    0.92199   0.97728   1.25018   1.32558   1.36599
 Alpha virt. eigenvalues --    1.37223   1.94617

 Mulliken charges:
               1
     1  H    0.205977
     2  C   -0.770632
     3  H    0.206198
     4  H    0.206645
     5  H    0.151812
 Sum of Mulliken charges =   0.00000

 Dipole moment (field-independent basis, Debye):
    X=              0.0762    Y=              0.0020    Z=              0.0112  Tot=              0.0770
 Quadrupole moment (field-independent basis, Debye-Ang):
   XX=             -8.6284   YY=             -8.3555   ZZ=             -8.4517
   XY=             -0.0561   XZ=             -0.0101   YZ=             -0.0006

 Normal termination of Gaussian 16 at Fri Sep 22 17:19:47 2023.
