 Gaussian 16, Revision A.03,
 Gaussian 16:  ES64L-G16RevA.03 25-Dec-2016

 ----------
 # hf/3-21g
 ----------

 ------------------------
 tmpdir/M2_conf_213_6.gjf
 ------------------------
 Symbolic Z-matrix:
 Charge =  0 Multiplicity = 1

                         Standard orientation:
 ---------------------------------------------------------------------
 Center     Atomic      Atomic             Coordinates (Angstroms)
 Number     Number       Type             X           Y           Z
 ---------------------------------------------------------------------
      1          1           0       -0.953364   -0.001178    1.027378
      2          6           0       -1.206972    0.000029   -0.015631
      3         17           0        0.684925    0.000014   -0.018153
      4          1           0       -1.724114    0.893076   -0.311676
      5          1           0       -1.724408   -0.892303   -0.313310
 ---------------------------------------------------------------------

 SCF Done:  E(RHF) =  -496.647662822     A.U. after   11 cycles

 The electronic state is 1-A.
 Alpha  occ. eigenvalues -- -104.09275 -11.24708 -10.48725  -7.95090  -7.94678
 Alpha  occ. eigenvalues --   -7.94663  -1.12549  -0.93035  -0.64523  -0.63075
 Alpha  occ. eigenvalues --   -0.50463  -0.44477  -0.42382
 Alpha virt. eigenvalues --    0.14543   0.27874   0.31542   0.31657   0.74159
 Alpha virt. eigenvalues --    0.79037   0.80672   0.84900   0.93595   0.96906
 Alpha virt. eigenvalues --    1.02006   1.28565   1.31239   1.31875   1.86606

 Mulliken charges:
               1
     1  H    0.287982
     2  C   -0.708842
     3  Cl  -0.111860
     4  H    0.266365
     5  H    0.266355
 Sum of Mulliken charges =  -0.00000

 Dipole moment (field-independent basis, Debye):
    X=             -2.7098    Y=             -0.0003    Z=              0.3151  Tot=              2.7281
 Quadrupole moment (field-independent basis, Debye-Ang):
   XX=            -18.5134   YY=            -20.1705   ZZ=            -20.6505
   XY=             -0.0005   XZ=              0.6673   YZ=             -0.0001

 Normal termination of Gaussian 16 at Fri Sep 22 17:19:32 2023.
