 Gaussian 16, Revision A.03,
 Gaussian 16:  ES64L-G16RevA.03 25-Dec-2016

 ----------
 # hf/3-21g
 ----------

 -----------------------
 tmpdir/M2_conf_84_7.gjf
 -----------------------
 Symbolic Z-matrix:
 Charge =  0 Multiplicity = 1

                         Standard orientation:
 ---------------------------------------------------------------------
 Center     Atomic      Atomic             Coordinates (Angstroms)
 Number     Number       Type             X           Y           Z
 ---------------------------------------------------------------------
      1          1           0       -0.443925    0.932196   -0.350289
      2          6           0       -0.034028   -0.000418   -0.011420
      3          1           0       -0.024949   -0.810578   -0.715822
      4          1           0       -0.469282   -0.328602    0.913255
      5          1           0        1.142324    0.209494    0.221375
 ---------------------------------------------------------------------

 SCF Done:  E(RHF) =  -39.9659480907     A.U. after    9 cycles

 The electronic state is 1-A.
 Alpha  occ. eigenvalues --  -11.15735  -0.93788  -0.56498  -0.54998  -0.50023
 Alpha virt. eigenvalues --    0.28331   0.32070   0.35404   0.36017   0.91281
 Alpha virt. eigenvalues --    0.92882   0.97468   1.25183   1.32126   1.36344
 Alpha virt. eigenvalues --    1.37805   1.94664

 Mulliken charges:
               1
     1  H    0.208018
     2  C   -0.772259
     3  H    0.207696
     4  H    0.206159
     5  H    0.150386
 Sum of Mulliken charges =   0.00000

 Dipole moment (field-independent basis, Debye):
    X=             -0.0557    Y=             -0.0334    Z=              0.0039  Tot=              0.0650
 Quadrupole moment (field-independent basis, Debye-Ang):
   XX=             -8.6524   YY=             -8.2654   ZZ=             -8.5277
   XY=             -0.0946   XZ=             -0.0881   YZ=             -0.0191

 Normal termination of Gaussian 16 at Fri Sep 22 17:16:13 2023.
