 Gaussian 16, Revision A.03,
 Gaussian 16:  ES64L-G16RevA.03 25-Dec-2016

 ----------
 # hf/3-21g
 ----------

 ------------------------
 tmpdir/M2_conf_165_9.gjf
 ------------------------
 Symbolic Z-matrix:
 Charge =  0 Multiplicity = 1

                         Standard orientation:
 ---------------------------------------------------------------------
 Center     Atomic      Atomic             Coordinates (Angstroms)
 Number     Number       Type             X           Y           Z
 ---------------------------------------------------------------------
      1          1           0        0.940440   -0.001642    1.023712
      2          6           0        1.207195    0.000022   -0.016219
      3         17           0       -0.684707    0.000030   -0.018424
      4          1           0        1.728214   -0.892034   -0.307717
      5          1           0        1.728201    0.893044   -0.305473
 ---------------------------------------------------------------------

 SCF Done:  E(RHF) =  -496.645415516     A.U. after   11 cycles

 The electronic state is 1-A.
 Alpha  occ. eigenvalues -- -104.09306 -11.24685 -10.48762  -7.95126  -7.94714
 Alpha  occ. eigenvalues --   -7.94698  -1.12626  -0.93018  -0.64578  -0.63067
 Alpha  occ. eigenvalues --   -0.50449  -0.44515  -0.42304
 Alpha virt. eigenvalues --    0.14454   0.27912   0.31555   0.31672   0.74166
 Alpha virt. eigenvalues --    0.78991   0.80650   0.84861   0.93674   0.96959
 Alpha virt. eigenvalues --    1.02073   1.28451   1.31255   1.31822   1.86380

 Mulliken charges:
               1
     1  H    0.288316
     2  C   -0.709105
     3  Cl  -0.112083
     4  H    0.266452
     5  H    0.266420
 Sum of Mulliken charges =  -0.00000

 Dipole moment (field-independent basis, Debye):
    X=              2.6997    Y=             -0.0006    Z=              0.3232  Tot=              2.7190
 Quadrupole moment (field-independent basis, Debye-Ang):
   XX=            -18.5139   YY=            -20.1699   ZZ=            -20.6721
   XY=              0.0009   XZ=             -0.6765   YZ=             -0.0000

 Normal termination of Gaussian 16 at Fri Sep 22 17:18:15 2023.
