 Gaussian 16, Revision A.03,
 Gaussian 16:  ES64L-G16RevA.03 25-Dec-2016

 ----------
 # hf/3-21g
 ----------

 ------------------------
 tmpdir/M2_conf_235_6.gjf
 ------------------------
 Symbolic Z-matrix:
 Charge =  0 Multiplicity = 1

                         Standard orientation:
 ---------------------------------------------------------------------
 Center     Atomic      Atomic             Coordinates (Angstroms)
 Number     Number       Type             X           Y           Z
 ---------------------------------------------------------------------
      1          1           0       -1.343836   -0.009368    1.060699
      2          6           0       -1.202757    0.000047   -0.003348
      3         17           0        0.689144    0.000044   -0.006238
      4          1           0       -1.577315    0.896826   -0.459535
      5          1           0       -1.577755   -0.888487   -0.475038
 ---------------------------------------------------------------------

 SCF Done:  E(RHF) =  -496.686332277     A.U. after   11 cycles

 The electronic state is 1-A.
 Alpha  occ. eigenvalues -- -104.08803 -11.24990 -10.48194  -7.94568  -7.94164
 Alpha  occ. eigenvalues --   -7.94163  -1.11361  -0.93315  -0.63396  -0.63199
 Alpha  occ. eigenvalues --   -0.51206  -0.43839  -0.43578
 Alpha virt. eigenvalues --    0.16407   0.27347   0.31372   0.31423   0.73867
 Alpha virt. eigenvalues --    0.80209   0.81018   0.85606   0.92679   0.94723
 Alpha virt. eigenvalues --    0.99916   1.30893   1.31179   1.32349   1.91530

 Mulliken charges:
               1
     1  H    0.275508
     2  C   -0.703613
     3  Cl  -0.107090
     4  H    0.267608
     5  H    0.267588
 Sum of Mulliken charges =   0.00000

 Dipole moment (field-independent basis, Debye):
    X=             -2.8565    Y=             -0.0007    Z=              0.0865  Tot=              2.8578
 Quadrupole moment (field-independent basis, Debye-Ang):
   XX=            -18.5599   YY=            -20.1824   ZZ=            -20.2194
   XY=             -0.0016   XZ=              0.2326   YZ=             -0.0002

 Normal termination of Gaussian 16 at Fri Sep 22 17:20:05 2023.
