 Gaussian 16, Revision A.03,
 Gaussian 16:  ES64L-G16RevA.03 25-Dec-2016

 ----------
 # hf/3-21g
 ----------

 ------------------------
 tmpdir/M2_conf_119_4.gjf
 ------------------------
 Symbolic Z-matrix:
 Charge =  0 Multiplicity = 1

                         Standard orientation:
 ---------------------------------------------------------------------
 Center     Atomic      Atomic             Coordinates (Angstroms)
 Number     Number       Type             X           Y           Z
 ---------------------------------------------------------------------
      1          1           0       -0.961166    0.395284   -0.344795
      2          6           0       -0.027836   -0.021852   -0.017563
      3          1           0        0.590496   -0.555969   -0.713989
      4          1           0       -0.135212   -0.628915    0.861384
      5          1           0        0.672898    0.920712    0.302778
 ---------------------------------------------------------------------

 SCF Done:  E(RHF) =  -39.9645382051     A.U. after    9 cycles

 The electronic state is 1-A.
 Alpha  occ. eigenvalues --  -11.15744  -0.93811  -0.57058  -0.54594  -0.49817
 Alpha virt. eigenvalues --    0.28329   0.31909   0.35215   0.36232   0.90915
 Alpha virt. eigenvalues --    0.93626   0.97390   1.25251   1.31877   1.36000
 Alpha virt. eigenvalues --    1.38406   1.94633

 Mulliken charges:
               1
     1  H    0.209491
     2  C   -0.774553
     3  H    0.209195
     4  H    0.206033
     5  H    0.149834
 Sum of Mulliken charges =  -0.00000

 Dipole moment (field-independent basis, Debye):
    X=             -0.0027    Y=             -0.0674    Z=              0.0102  Tot=              0.0683
 Quadrupole moment (field-independent basis, Debye-Ang):
   XX=             -8.2964   YY=             -8.5250   ZZ=             -8.6314
   XY=             -0.2379   XZ=             -0.0674   YZ=             -0.1013

 Normal termination of Gaussian 16 at Fri Sep 22 17:17:05 2023.
