 Gaussian 16, Revision A.03,
 Gaussian 16:  ES64L-G16RevA.03 25-Dec-2016

 ----------
 # hf/3-21g
 ----------

 ------------------------
 tmpdir/M2_conf_150_8.gjf
 ------------------------
 Symbolic Z-matrix:
 Charge =  0 Multiplicity = 1

                         Standard orientation:
 ---------------------------------------------------------------------
 Center     Atomic      Atomic             Coordinates (Angstroms)
 Number     Number       Type             X           Y           Z
 ---------------------------------------------------------------------
      1          1           0       -1.368810   -0.013376    1.057807
      2          6           0       -1.202643    0.000023   -0.002771
      3         17           0        0.689255    0.000072   -0.005291
      4          1           0       -1.566238   -0.886398   -0.486750
      5          1           0       -1.566423    0.898413   -0.464483
 ---------------------------------------------------------------------

 SCF Done:  E(RHF) =  -496.687249553     A.U. after   11 cycles

 The electronic state is 1-A.
 Alpha  occ. eigenvalues -- -104.08794 -11.24994 -10.48184  -7.94558  -7.94154
 Alpha  occ. eigenvalues --   -7.94154  -1.11337  -0.93321  -0.63362  -0.63204
 Alpha  occ. eigenvalues --   -0.51238  -0.43818  -0.43610
 Alpha virt. eigenvalues --    0.16463   0.27340   0.31370   0.31415   0.73855
 Alpha virt. eigenvalues --    0.80280   0.80990   0.85584   0.92809   0.94551
 Alpha virt. eigenvalues --    0.99815   1.30992   1.31188   1.32308   1.91668

 Mulliken charges:
               1
     1  H    0.274594
     2  C   -0.703351
     3  Cl  -0.107056
     4  H    0.267930
     5  H    0.267882
 Sum of Mulliken charges =  -0.00000

 Dipole moment (field-independent basis, Debye):
    X=             -2.8594    Y=             -0.0010    Z=              0.0724  Tot=              2.8603
 Quadrupole moment (field-independent basis, Debye-Ang):
   XX=            -18.5629   YY=            -20.1832   ZZ=            -20.2067
   XY=             -0.0025   XZ=              0.1978   YZ=             -0.0000

 Normal termination of Gaussian 16 at Fri Sep 22 17:17:52 2023.
