 Gaussian 16, Revision A.03,
 Gaussian 16:  ES64L-G16RevA.03 25-Dec-2016

 ----------
 # hf/3-21g
 ----------

 -----------------------
 tmpdir/M2_conf_57_9.gjf
 -----------------------
 Symbolic Z-matrix:
 Charge =  0 Multiplicity = 1

                         Standard orientation:
 ---------------------------------------------------------------------
 Center     Atomic      Atomic             Coordinates (Angstroms)
 Number     Number       Type             X           Y           Z
 ---------------------------------------------------------------------
      1          1           0        1.720009   -0.006207    0.945992
      2          6           0        1.203181   -0.000016    0.004999
      3         17           0       -0.688720   -0.000070    0.008849
      4          1           0        1.384799   -0.888773   -0.568867
      5          1           0        1.384339    0.896271   -0.557545
 ---------------------------------------------------------------------

 SCF Done:  E(RHF) =  -496.683289747     A.U. after   11 cycles

 The electronic state is 1-A.
 Alpha  occ. eigenvalues -- -104.08824 -11.24986 -10.48214  -7.94587  -7.94183
 Alpha  occ. eigenvalues --   -7.94182  -1.11425  -0.93291  -0.63359  -0.63344
 Alpha  occ. eigenvalues --   -0.51065  -0.43748  -0.43622
 Alpha virt. eigenvalues --    0.16160   0.27318   0.31367   0.31500   0.73893
 Alpha virt. eigenvalues --    0.79946   0.81397   0.85816   0.92068   0.94734
 Alpha virt. eigenvalues --    1.00757   1.30441   1.31334   1.32628   1.91203

 Mulliken charges:
               1
     1  H    0.263217
     2  C   -0.706274
     3  Cl  -0.105933
     4  H    0.274504
     5  H    0.274485
 Sum of Mulliken charges =   0.00000

 Dipole moment (field-independent basis, Debye):
    X=              2.8483    Y=              0.0007    Z=             -0.1118  Tot=              2.8505
 Quadrupole moment (field-independent basis, Debye-Ang):
   XX=            -18.5457   YY=            -20.1758   ZZ=            -20.2669
   XY=             -0.0030   XZ=              0.3329   YZ=              0.0000

 Normal termination of Gaussian 16 at Fri Sep 22 17:15:32 2023.
