 Gaussian 16, Revision A.03,
 Gaussian 16:  ES64L-G16RevA.03 25-Dec-2016

 ----------
 # hf/3-21g
 ----------

 -----------------------
 tmpdir/M2_conf_79_5.gjf
 -----------------------
 Symbolic Z-matrix:
 Charge =  0 Multiplicity = 1

                         Standard orientation:
 ---------------------------------------------------------------------
 Center     Atomic      Atomic             Coordinates (Angstroms)
 Number     Number       Type             X           Y           Z
 ---------------------------------------------------------------------
      1          1           0       -0.531992   -0.093951    0.905044
      2          6           0       -0.002165    0.027257   -0.020580
      3          1           0       -0.826001   -0.208853   -0.667241
      4          1           0        0.509005    0.969413   -0.081055
      5          1           0        0.861979   -0.830155   -0.033267
 ---------------------------------------------------------------------

 SCF Done:  E(RHF) =  -39.9591116099     A.U. after    9 cycles

 The electronic state is 1-A.
 Alpha  occ. eigenvalues --  -11.15732  -0.93993  -0.58130  -0.52209  -0.50792
 Alpha virt. eigenvalues --    0.28084   0.32288   0.34412   0.36474   0.90022
 Alpha virt. eigenvalues --    0.94229   0.99116   1.24610   1.32206   1.34520
 Alpha virt. eigenvalues --    1.40158   1.93467

 Mulliken charges:
               1
     1  H    0.203128
     2  C   -0.778693
     3  H    0.208389
     4  H    0.210525
     5  H    0.156651
 Sum of Mulliken charges =   0.00000

 Dipole moment (field-independent basis, Debye):
    X=             -0.1412    Y=              0.0310    Z=              0.1059  Tot=              0.1792
 Quadrupole moment (field-independent basis, Debye-Ang):
   XX=             -8.0408   YY=             -8.4469   ZZ=             -8.9606
   XY=              0.2381   XZ=              0.0236   YZ=             -0.0146

 Normal termination of Gaussian 16 at Fri Sep 22 17:16:05 2023.
