 Gaussian 16, Revision A.03,
 Gaussian 16:  ES64L-G16RevA.03 25-Dec-2016

 ----------
 # hf/3-21g
 ----------

 ------------------------
 tmpdir/M2_conf_114_7.gjf
 ------------------------
 Symbolic Z-matrix:
 Charge =  0 Multiplicity = 1

                         Standard orientation:
 ---------------------------------------------------------------------
 Center     Atomic      Atomic             Coordinates (Angstroms)
 Number     Number       Type             X           Y           Z
 ---------------------------------------------------------------------
      1          1           0        0.391339   -0.270742    0.965297
      2          6           0        0.026663    0.011861   -0.004117
      3          1           0        0.547679   -0.559903   -0.748585
      4          1           0        0.046728    1.074135   -0.156909
      5          1           0       -1.145722   -0.314657   -0.035102
 ---------------------------------------------------------------------

 SCF Done:  E(RHF) =  -39.9667336309     A.U. after    9 cycles

 The electronic state is 1-A.
 Alpha  occ. eigenvalues --  -11.15721  -0.93788  -0.56216  -0.54860  -0.50439
 Alpha virt. eigenvalues --    0.28291   0.32307   0.35388   0.35924   0.91253
 Alpha virt. eigenvalues --    0.92502   0.97848   1.24963   1.32653   1.36214
 Alpha virt. eigenvalues --    1.37574   1.94557

 Mulliken charges:
               1
     1  H    0.205448
     2  C   -0.770943
     3  H    0.206122
     4  H    0.207014
     5  H    0.152359
 Sum of Mulliken charges =   0.00000

 Dipole moment (field-independent basis, Debye):
    X=              0.0824    Y=              0.0074    Z=              0.0234  Tot=              0.0860
 Quadrupole moment (field-independent basis, Debye-Ang):
   XX=             -8.5678   YY=             -8.3461   ZZ=             -8.5204
   XY=             -0.1237   XZ=             -0.0187   YZ=             -0.0034

 Normal termination of Gaussian 16 at Fri Sep 22 17:16:58 2023.
