 Gaussian 16, Revision A.03,
 Gaussian 16:  ES64L-G16RevA.03 25-Dec-2016

 ----------
 # hf/3-21g
 ----------

 ------------------------
 tmpdir/M2_conf_294_9.gjf
 ------------------------
 Symbolic Z-matrix:
 Charge =  0 Multiplicity = 1

                         Standard orientation:
 ---------------------------------------------------------------------
 Center     Atomic      Atomic             Coordinates (Angstroms)
 Number     Number       Type             X           Y           Z
 ---------------------------------------------------------------------
      1          1           0        1.275336   -0.009306    1.066177
      2          6           0        1.203161    0.000048   -0.004953
      3         17           0       -0.688735    0.000071   -0.008755
      4          1           0        1.607205   -0.888605   -0.451315
      5          1           0        1.606986    0.896412   -0.436303
 ---------------------------------------------------------------------

 SCF Done:  E(RHF) =  -496.682976824     A.U. after   11 cycles

 The electronic state is 1-A.
 Alpha  occ. eigenvalues -- -104.08839 -11.24976 -10.48232  -7.94605  -7.94201
 Alpha  occ. eigenvalues --   -7.94199  -1.11451  -0.93291  -0.63517  -0.63184
 Alpha  occ. eigenvalues --   -0.51095  -0.43905  -0.43474
 Alpha virt. eigenvalues --    0.16209   0.27371   0.31382   0.31452   0.73908
 Alpha virt. eigenvalues --    0.80009   0.81057   0.85643   0.92474   0.95141
 Alpha virt. eigenvalues --    1.00237   1.30626   1.31174   1.32364   1.91024

 Mulliken charges:
               1
     1  H    0.277814
     2  C   -0.704393
     3  Cl  -0.107304
     4  H    0.266955
     5  H    0.266929
 Sum of Mulliken charges =  -0.00000

 Dipole moment (field-independent basis, Debye):
    X=              2.8455    Y=             -0.0011    Z=              0.1246  Tot=              2.8482
 Quadrupole moment (field-independent basis, Debye-Ang):
   XX=            -18.5504   YY=            -20.1833   ZZ=            -20.2606
   XY=              0.0024   XZ=             -0.3268   YZ=             -0.0001

 Normal termination of Gaussian 16 at Fri Sep 22 17:21:40 2023.
