 Gaussian 16, Revision A.03,
 Gaussian 16:  ES64L-G16RevA.03 25-Dec-2016

 ----------
 # hf/3-21g
 ----------

 ------------------------
 tmpdir/M2_conf_237_5.gjf
 ------------------------
 Symbolic Z-matrix:
 Charge =  0 Multiplicity = 1

                         Standard orientation:
 ---------------------------------------------------------------------
 Center     Atomic      Atomic             Coordinates (Angstroms)
 Number     Number       Type             X           Y           Z
 ---------------------------------------------------------------------
      1          1           0        1.046208    0.086342   -0.329254
      2          6           0        0.023785   -0.028734   -0.023320
      3          1           0       -0.762778   -0.296320   -0.703268
      4          1           0       -0.081562   -0.686276    0.818790
      5          1           0       -0.344575    1.068656    0.353651
 ---------------------------------------------------------------------

 SCF Done:  E(RHF) =  -39.9623052685     A.U. after    9 cycles

 The electronic state is 1-A.
 Alpha  occ. eigenvalues --  -11.15755  -0.93850  -0.57653  -0.54179  -0.49548
 Alpha virt. eigenvalues --    0.28318   0.31675   0.35026   0.36455   0.90560
 Alpha virt. eigenvalues --    0.94565   0.97325   1.25312   1.31583   1.35691
 Alpha virt. eigenvalues --    1.39080   1.94576

 Mulliken charges:
               1
     1  H    0.211460
     2  C   -0.778332
     3  H    0.211481
     4  H    0.206084
     5  H    0.149307
 Sum of Mulliken charges =  -0.00000

 Dipole moment (field-independent basis, Debye):
    X=             -0.0355    Y=             -0.0659    Z=              0.0194  Tot=              0.0773
 Quadrupole moment (field-independent basis, Debye-Ang):
   XX=             -8.0717   YY=             -8.6458   ZZ=             -8.7449
   XY=              0.1383   XZ=              0.0356   YZ=             -0.1364

 Normal termination of Gaussian 16 at Fri Sep 22 17:20:08 2023.
