 Gaussian 16, Revision A.03,
 Gaussian 16:  ES64L-G16RevA.03 25-Dec-2016

 ----------
 # hf/3-21g
 ----------

 ------------------------
 tmpdir/M2_conf_108_6.gjf
 ------------------------
 Symbolic Z-matrix:
 Charge =  0 Multiplicity = 1

                         Standard orientation:
 ---------------------------------------------------------------------
 Center     Atomic      Atomic             Coordinates (Angstroms)
 Number     Number       Type             X           Y           Z
 ---------------------------------------------------------------------
      1          1           0       -1.711890   -0.002069    0.949962
      2          6           0       -1.203120    0.000011    0.004797
      3         17           0        0.688778   -0.000033    0.008523
      4          1           0       -1.389042    0.893965   -0.559907
      5          1           0       -1.389567   -0.891411   -0.563721
 ---------------------------------------------------------------------

 SCF Done:  E(RHF) =  -496.683754171     A.U. after   11 cycles

 The electronic state is 1-A.
 Alpha  occ. eigenvalues -- -104.08820 -11.24987 -10.48210  -7.94584  -7.94179
 Alpha  occ. eigenvalues --   -7.94179  -1.11414  -0.93295  -0.63352  -0.63335
 Alpha  occ. eigenvalues --   -0.51083  -0.43751  -0.43626
 Alpha virt. eigenvalues --    0.16194   0.27318   0.31364   0.31496   0.73888
 Alpha virt. eigenvalues --    0.79968   0.81371   0.85794   0.92138   0.94711
 Alpha virt. eigenvalues --    1.00659   1.30501   1.31323   1.32591   1.91257

 Mulliken charges:
               1
     1  H    0.263446
     2  C   -0.705957
     3  Cl  -0.106038
     4  H    0.274287
     5  H    0.274262
 Sum of Mulliken charges =  -0.00000

 Dipole moment (field-independent basis, Debye):
    X=             -2.8496    Y=              0.0003    Z=             -0.1077  Tot=              2.8517
 Quadrupole moment (field-independent basis, Debye-Ang):
   XX=            -18.5478   YY=            -20.1753   ZZ=            -20.2613
   XY=              0.0014   XZ=             -0.3209   YZ=             -0.0001

 Normal termination of Gaussian 16 at Fri Sep 22 17:16:49 2023.
