 Gaussian 16, Revision A.03,
 Gaussian 16:  ES64L-G16RevA.03 25-Dec-2016

 ----------
 # hf/3-21g
 ----------

 ------------------------
 tmpdir/M2_conf_263_0.gjf
 ------------------------
 Symbolic Z-matrix:
 Charge =  0 Multiplicity = 1

                         Standard orientation:
 ---------------------------------------------------------------------
 Center     Atomic      Atomic             Coordinates (Angstroms)
 Number     Number       Type             X           Y           Z
 ---------------------------------------------------------------------
      1          6           0       -0.031904    0.000056    0.002544
      2          1           0       -0.285079   -0.009101    1.033060
      3          1           0       -0.351383    0.898347   -0.491046
      4          1           0       -0.356502   -0.886950   -0.507808
      5          1           0        1.184386   -0.002634   -0.049468
 ---------------------------------------------------------------------

 SCF Done:  E(RHF) =  -39.9667289185     A.U. after    9 cycles

 The electronic state is 1-A.
 Alpha  occ. eigenvalues --  -11.15583  -0.93916  -0.55902  -0.55618  -0.50276
 Alpha virt. eigenvalues --    0.28359   0.32305   0.35685   0.35945   0.91366
 Alpha virt. eigenvalues --    0.91953   0.97599   1.25124   1.32874   1.36964
 Alpha virt. eigenvalues --    1.37805   1.94804

 Mulliken charges:
               1
     1  C   -0.772332
     2  H    0.209549
     3  H    0.205974
     4  H    0.205969
     5  H    0.150840
 Sum of Mulliken charges =  -0.00000

 Dipole moment (field-independent basis, Debye):
    X=             -0.0738    Y=              0.0001    Z=              0.0104  Tot=              0.0745
 Quadrupole moment (field-independent basis, Debye-Ang):
   XX=             -8.6450   YY=             -8.3780   ZZ=             -8.3883
   XY=              0.0012   XZ=              0.0126   YZ=             -0.0003

 Normal termination of Gaussian 16 at Fri Sep 22 17:20:48 2023.
