 Gaussian 16, Revision A.03,
 Gaussian 16:  ES64L-G16RevA.03 25-Dec-2016

 ----------
 # hf/3-21g
 ----------

 ------------------------
 tmpdir/M2_conf_255_0.gjf
 ------------------------
 Symbolic Z-matrix:
 Charge =  0 Multiplicity = 1

                         Standard orientation:
 ---------------------------------------------------------------------
 Center     Atomic      Atomic             Coordinates (Angstroms)
 Number     Number       Type             X           Y           Z
 ---------------------------------------------------------------------
      1          6           0       -0.032258    0.000055    0.015263
      2          1           0       -0.139853   -0.001082    0.984006
      3          1           0       -0.414367    0.894372   -0.439504
      4          1           0       -0.419203   -0.891004   -0.441783
      5          1           0        1.166971   -0.002617   -0.194300
 ---------------------------------------------------------------------

 SCF Done:  E(RHF) =  -39.9575758200     A.U. after    9 cycles

 The electronic state is 1-A.
 Alpha  occ. eigenvalues --  -11.14584  -0.95092  -0.57810  -0.55506  -0.50289
 Alpha virt. eigenvalues --    0.28555   0.32633   0.35679   0.37914   0.87431
 Alpha virt. eigenvalues --    0.92164   0.97573   1.25424   1.34260   1.37119
 Alpha virt. eigenvalues --    1.46671   1.96252

 Mulliken charges:
               1
     1  C   -0.781187
     2  H    0.229348
     3  H    0.202440
     4  H    0.202434
     5  H    0.146966
 Sum of Mulliken charges =  -0.00000

 Dipole moment (field-independent basis, Debye):
    X=             -0.0853    Y=              0.0002    Z=              0.0651  Tot=              0.1073
 Quadrupole moment (field-independent basis, Debye-Ang):
   XX=             -8.5505   YY=             -8.2896   ZZ=             -8.3746
   XY=              0.0011   XZ=              0.0469   YZ=             -0.0004

 Normal termination of Gaussian 16 at Fri Sep 22 17:20:36 2023.
