 Gaussian 16, Revision A.03,
 Gaussian 16:  ES64L-G16RevA.03 25-Dec-2016

 ----------
 # hf/3-21g
 ----------

 ------------------------
 tmpdir/M2_conf_150_1.gjf
 ------------------------
 Symbolic Z-matrix:
 Charge =  0 Multiplicity = 1

                         Standard orientation:
 ---------------------------------------------------------------------
 Center     Atomic      Atomic             Coordinates (Angstroms)
 Number     Number       Type             X           Y           Z
 ---------------------------------------------------------------------
      1          6           0       -0.031866   -0.000062    0.002141
      2          1           0       -0.290510   -0.015323    1.033907
      3          1           0       -0.350611   -0.885380   -0.514381
      4          1           0       -0.352352    0.899378   -0.488677
      5          1           0        1.184667    0.001697   -0.043695
 ---------------------------------------------------------------------

 SCF Done:  E(RHF) =  -39.9667925821     A.U. after    9 cycles

 The electronic state is 1-A.
 Alpha  occ. eigenvalues --  -11.15611  -0.93888  -0.55851  -0.55620  -0.50274
 Alpha virt. eigenvalues --    0.28351   0.32292   0.35686   0.35893   0.91486
 Alpha virt. eigenvalues --    0.91935   0.97605   1.25114   1.32801   1.36963
 Alpha virt. eigenvalues --    1.37617   1.94773

 Mulliken charges:
               1
     1  C   -0.772019
     2  H    0.208901
     3  H    0.206116
     4  H    0.206061
     5  H    0.150942
 Sum of Mulliken charges =   0.00000

 Dipole moment (field-independent basis, Debye):
    X=             -0.0732    Y=             -0.0004    Z=              0.0084  Tot=              0.0737
 Quadrupole moment (field-independent basis, Debye-Ang):
   XX=             -8.6474   YY=             -8.3812   ZZ=             -8.3879
   XY=             -0.0005   XZ=              0.0119   YZ=             -0.0001

 Normal termination of Gaussian 16 at Fri Sep 22 17:17:52 2023.
