 Gaussian 16, Revision A.03,
 Gaussian 16:  ES64L-G16RevA.03 25-Dec-2016

 ----------
 # hf/3-21g
 ----------

 ------------------------
 tmpdir/M2_conf_166_2.gjf
 ------------------------
 Symbolic Z-matrix:
 Charge =  0 Multiplicity = 1

                         Standard orientation:
 ---------------------------------------------------------------------
 Center     Atomic      Atomic             Coordinates (Angstroms)
 Number     Number       Type             X           Y           Z
 ---------------------------------------------------------------------
      1          6           0        0.007769   -0.029429   -0.000015
      2          1           0        1.128996    0.341523   -0.002481
      3          1           0       -0.243942   -0.569368    0.892905
      4          1           0       -0.248729   -0.568641   -0.892250
      5          1           0       -0.682936    0.973058    0.001918
 ---------------------------------------------------------------------

 SCF Done:  E(RHF) =  -39.9611903045     A.U. after    9 cycles

 The electronic state is 1-A.
 Alpha  occ. eigenvalues --  -11.16966  -0.92783  -0.55829  -0.53480  -0.50080
 Alpha virt. eigenvalues --    0.27672   0.31080   0.34048   0.35686   0.91694
 Alpha virt. eigenvalues --    0.95362   0.99393   1.23776   1.26578   1.34050
 Alpha virt. eigenvalues --    1.36668   1.93433

 Mulliken charges:
               1
     1  C   -0.752180
     2  H    0.176946
     3  H    0.209899
     4  H    0.209848
     5  H    0.155486
 Sum of Mulliken charges =  -0.00000

 Dipole moment (field-independent basis, Debye):
    X=             -0.0396    Y=             -0.0739    Z=              0.0002  Tot=              0.0839
 Quadrupole moment (field-independent basis, Debye-Ang):
   XX=             -8.5083   YY=             -8.6581   ZZ=             -8.4908
   XY=              0.1510   XZ=              0.0010   YZ=             -0.0007

 Normal termination of Gaussian 16 at Fri Sep 22 17:18:16 2023.
