 Gaussian 16, Revision A.03,
 Gaussian 16:  ES64L-G16RevA.03 25-Dec-2016

 ----------
 # hf/3-21g
 ----------

 ------------------------
 tmpdir/M2_conf_131_3.gjf
 ------------------------
 Symbolic Z-matrix:
 Charge =  0 Multiplicity = 1

                         Standard orientation:
 ---------------------------------------------------------------------
 Center     Atomic      Atomic             Coordinates (Angstroms)
 Number     Number       Type             X           Y           Z
 ---------------------------------------------------------------------
      1          6           0       -1.440880    0.000015    0.000010
      2         17           0        0.815820   -0.000012   -0.000003
      3          1           0       -1.741248   -0.278187    0.992268
      4          1           0       -1.740929    0.998726   -0.255259
      5          1           0       -1.741492   -0.720427   -0.737021
 ---------------------------------------------------------------------

 SCF Done:  E(RHF) =  -496.660967989     A.U. after   10 cycles

 The electronic state is 1-A.
 Alpha  occ. eigenvalues -- -104.07951 -11.28794 -10.46713  -7.93042  -7.92760
 Alpha  occ. eigenvalues --   -7.92760  -1.04764  -0.96491  -0.63952  -0.63947
 Alpha  occ. eigenvalues --   -0.45331  -0.42527  -0.42527
 Alpha virt. eigenvalues --    0.06293   0.25872   0.30567   0.30571   0.73339
 Alpha virt. eigenvalues --    0.79097   0.79102   0.87588   0.93547   0.93557
 Alpha virt. eigenvalues --    1.02472   1.28323   1.29167   1.29177   1.82421

 Mulliken charges:
               1
     1  C   -0.512074
     2  Cl  -0.299915
     3  H    0.270680
     4  H    0.270671
     5  H    0.270638
 Sum of Mulliken charges =  -0.00000

 Dipole moment (field-independent basis, Debye):
    X=             -4.2818    Y=              0.0001    Z=              0.0001  Tot=              4.2818
 Quadrupole moment (field-independent basis, Debye-Ang):
   XX=            -16.1059   YY=            -20.3837   ZZ=            -20.3851
   XY=              0.0005   XZ=             -0.0001   YZ=             -0.0001

 Normal termination of Gaussian 16 at Fri Sep 22 17:17:23 2023.
