 Gaussian 16, Revision A.03,
 Gaussian 16:  ES64L-G16RevA.03 25-Dec-2016

 ----------
 # hf/3-21g
 ----------

 ------------------------
 tmpdir/M2_conf_225_1.gjf
 ------------------------
 Symbolic Z-matrix:
 Charge =  0 Multiplicity = 1

                         Standard orientation:
 ---------------------------------------------------------------------
 Center     Atomic      Atomic             Coordinates (Angstroms)
 Number     Number       Type             X           Y           Z
 ---------------------------------------------------------------------
      1          6           0       -0.031774   -0.000065    0.001180
      2          1           0       -0.308000   -0.030730    1.032902
      3          1           0       -0.342506   -0.877413   -0.533504
      4          1           0       -0.344183    0.906763   -0.481180
      5          1           0        1.185334    0.001768   -0.025296
 ---------------------------------------------------------------------

 SCF Done:  E(RHF) =  -39.9668851060     A.U. after    9 cycles

 The electronic state is 1-A.
 Alpha  occ. eigenvalues --  -11.15666  -0.93834  -0.55750  -0.55627  -0.50272
 Alpha virt. eigenvalues --    0.28336   0.32263   0.35686   0.35794   0.91697
 Alpha virt. eigenvalues --    0.91924   0.97619   1.25092   1.32643   1.36953
 Alpha virt. eigenvalues --    1.37281   1.94714

 Mulliken charges:
               1
     1  C   -0.771387
     2  H    0.207720
     3  H    0.206291
     4  H    0.206235
     5  H    0.151141
 Sum of Mulliken charges =  -0.00000

 Dipole moment (field-independent basis, Debye):
    X=             -0.0721    Y=             -0.0004    Z=              0.0045  Tot=              0.0723
 Quadrupole moment (field-independent basis, Debye-Ang):
   XX=             -8.6522   YY=             -8.3859   ZZ=             -8.3887
   XY=             -0.0005   XZ=              0.0071   YZ=             -0.0002

 Normal termination of Gaussian 16 at Fri Sep 22 17:19:50 2023.
