 Gaussian 16, Revision A.03,
 Gaussian 16:  ES64L-G16RevA.03 25-Dec-2016

 ----------
 # hf/3-21g
 ----------

 ------------------------
 tmpdir/M2_conf_259_9.gjf
 ------------------------
 Symbolic Z-matrix:
 Charge =  0 Multiplicity = 1

                         Standard orientation:
 ---------------------------------------------------------------------
 Center     Atomic      Atomic             Coordinates (Angstroms)
 Number     Number       Type             X           Y           Z
 ---------------------------------------------------------------------
      1          1           0        1.199938   -0.005433    1.066670
      2          6           0        1.203773    0.000038   -0.006909
      3         17           0       -0.688123    0.000054   -0.011356
      4          1           0        1.637849   -0.890385   -0.420334
      5          1           0        1.637675    0.894675   -0.411828
 ---------------------------------------------------------------------

 SCF Done:  E(RHF) =  -496.677788346     A.U. after   11 cycles

 The electronic state is 1-A.
 Alpha  occ. eigenvalues -- -104.08896 -11.24950 -10.48294  -7.94666  -7.94261
 Alpha  occ. eigenvalues --   -7.94257  -1.11597  -0.93255  -0.63688  -0.63167
 Alpha  occ. eigenvalues --   -0.50944  -0.43993  -0.43322
 Alpha virt. eigenvalues --    0.15922   0.27421   0.31401   0.31488   0.73965
 Alpha virt. eigenvalues --    0.79791   0.81034   0.85602   0.92459   0.95589
 Alpha virt. eigenvalues --    1.00642   1.30268   1.31169   1.32336   1.90266

 Mulliken charges:
               1
     1  H    0.280317
     2  C   -0.705321
     3  Cl  -0.107847
     4  H    0.266439
     5  H    0.266412
 Sum of Mulliken charges =  -0.00000

 Dipole moment (field-independent basis, Debye):
    X=              2.8279    Y=             -0.0009    Z=              0.1675  Tot=              2.8329
 Quadrupole moment (field-independent basis, Debye-Ang):
   XX=            -18.5383   YY=            -20.1829   ZZ=            -20.3235
   XY=              0.0018   XZ=             -0.4234   YZ=             -0.0001

 Normal termination of Gaussian 16 at Fri Sep 22 17:20:42 2023.
