 Gaussian 16, Revision A.03,
 Gaussian 16:  ES64L-G16RevA.03 25-Dec-2016

 ----------
 # hf/3-21g
 ----------

 ------------------------
 tmpdir/M2_conf_164_6.gjf
 ------------------------
 Symbolic Z-matrix:
 Charge =  0 Multiplicity = 1

                         Standard orientation:
 ---------------------------------------------------------------------
 Center     Atomic      Atomic             Coordinates (Angstroms)
 Number     Number       Type             X           Y           Z
 ---------------------------------------------------------------------
      1          1           0       -1.067185   -0.001740    1.053410
      2          6           0       -1.205260    0.000032   -0.011070
      3         17           0        0.686632    0.000017   -0.015388
      4          1           0       -1.686827    0.893321   -0.361411
      5          1           0       -1.687170   -0.892057   -0.363985
 ---------------------------------------------------------------------

 SCF Done:  E(RHF) =  -496.664366460     A.U. after   11 cycles

 The electronic state is 1-A.
 Alpha  occ. eigenvalues -- -104.09056 -11.24860 -10.48473  -7.94842  -7.94434
 Alpha  occ. eigenvalues --   -7.94426  -1.12000  -0.93158  -0.64086  -0.63129
 Alpha  occ. eigenvalues --   -0.50656  -0.44207  -0.42924
 Alpha virt. eigenvalues --    0.15257   0.27598   0.31458   0.31564   0.74078
 Alpha virt. eigenvalues --    0.79400   0.80874   0.85284   0.92933   0.96333
 Alpha virt. eigenvalues --    1.01395   1.29470   1.31181   1.32159   1.88481

 Mulliken charges:
               1
     1  H    0.284550
     2  C   -0.707025
     3  Cl  -0.109681
     4  H    0.266084
     5  H    0.266071
 Sum of Mulliken charges =  -0.00000

 Dipole moment (field-independent basis, Debye):
    X=             -2.7788    Y=             -0.0004    Z=              0.2453  Tot=              2.7896
 Quadrupole moment (field-independent basis, Debye-Ang):
   XX=            -18.5187   YY=            -20.1784   ZZ=            -20.4773
   XY=             -0.0006   XZ=              0.5709   YZ=             -0.0001

 Normal termination of Gaussian 16 at Fri Sep 22 17:18:13 2023.
