 Gaussian 16, Revision A.03,
 Gaussian 16:  ES64L-G16RevA.03 25-Dec-2016

 ----------
 # hf/3-21g
 ----------

 -----------------------
 tmpdir/M2_conf_45_4.gjf
 -----------------------
 Symbolic Z-matrix:
 Charge =  0 Multiplicity = 1

                         Standard orientation:
 ---------------------------------------------------------------------
 Center     Atomic      Atomic             Coordinates (Angstroms)
 Number     Number       Type             X           Y           Z
 ---------------------------------------------------------------------
      1          1           0        0.413357   -0.242463    0.961316
      2          6           0        0.024511    0.014787   -0.005539
      3          1           0        0.598268   -0.518443   -0.739758
      4          1           0       -0.040518    1.076258   -0.152698
      5          1           0       -1.118171   -0.404075   -0.035625
 ---------------------------------------------------------------------

 SCF Done:  E(RHF) =  -39.9664861056     A.U. after    9 cycles

 The electronic state is 1-A.
 Alpha  occ. eigenvalues --  -11.15720  -0.93796  -0.56380  -0.54637  -0.50482
 Alpha virt. eigenvalues --    0.28280   0.32319   0.35305   0.35984   0.91079
 Alpha virt. eigenvalues --    0.92682   0.97920   1.24933   1.32684   1.36028
 Alpha virt. eigenvalues --    1.37764   1.94514

 Mulliken charges:
               1
     1  H    0.205274
     2  C   -0.771261
     3  H    0.206159
     4  H    0.207158
     5  H    0.152670
 Sum of Mulliken charges =   0.00000

 Dipole moment (field-independent basis, Debye):
    X=              0.0862    Y=              0.0105    Z=              0.0299  Tot=              0.0919
 Quadrupole moment (field-independent basis, Debye-Ang):
   XX=             -8.5247   YY=             -8.3511   ZZ=             -8.5581
   XY=             -0.1546   XZ=             -0.0195   YZ=             -0.0050

 Normal termination of Gaussian 16 at Fri Sep 22 17:15:14 2023.
