 Gaussian 16, Revision A.03,
 Gaussian 16:  ES64L-G16RevA.03 25-Dec-2016

 ----------
 # hf/3-21g
 ----------

 ------------------------
 tmpdir/M2_conf_100_1.gjf
 ------------------------
 Symbolic Z-matrix:
 Charge =  0 Multiplicity = 1

                         Standard orientation:
 ---------------------------------------------------------------------
 Center     Atomic      Atomic             Coordinates (Angstroms)
 Number     Number       Type             X           Y           Z
 ---------------------------------------------------------------------
      1          6           0       -0.032241   -0.000060    0.012991
      2          1           0       -0.154978   -0.001765    0.998677
      3          1           0       -0.409532   -0.892225   -0.449476
      4          1           0       -0.411768    0.892716   -0.446919
      5          1           0        1.169724    0.001635   -0.180226
 ---------------------------------------------------------------------

 SCF Done:  E(RHF) =  -39.9608469052     A.U. after    9 cycles

 The electronic state is 1-A.
 Alpha  occ. eigenvalues --  -11.14792  -0.94813  -0.57404  -0.55525  -0.50289
 Alpha virt. eigenvalues --    0.28523   0.32587   0.35682   0.37485   0.88270
 Alpha virt. eigenvalues --    0.92105   0.97557   1.25371   1.34088   1.37097
 Alpha virt. eigenvalues --    1.44492   1.95867

 Mulliken charges:
               1
     1  C   -0.779745
     2  H    0.225402
     3  H    0.203291
     4  H    0.203236
     5  H    0.147816
 Sum of Mulliken charges =  -0.00000

 Dipole moment (field-independent basis, Debye):
    X=             -0.0833    Y=             -0.0003    Z=              0.0555  Tot=              0.1001
 Quadrupole moment (field-independent basis, Debye-Ang):
   XX=             -8.5706   YY=             -8.3098   ZZ=             -8.3777
   XY=             -0.0005   XZ=              0.0449   YZ=             -0.0001

 Normal termination of Gaussian 16 at Fri Sep 22 17:16:37 2023.
