 Gaussian 16, Revision A.03,
 Gaussian 16:  ES64L-G16RevA.03 25-Dec-2016

 ----------
 # hf/3-21g
 ----------

 ------------------------
 tmpdir/M2_conf_129_2.gjf
 ------------------------
 Symbolic Z-matrix:
 Charge =  0 Multiplicity = 1

                         Standard orientation:
 ---------------------------------------------------------------------
 Center     Atomic      Atomic             Coordinates (Angstroms)
 Number     Number       Type             X           Y           Z
 ---------------------------------------------------------------------
      1          6           0        0.010325   -0.028583   -0.000015
      2          1           0        1.100001    0.399364   -0.002731
      3          1           0       -0.211311   -0.581346    0.893030
      4          1           0       -0.216472   -0.581148   -0.892124
      5          1           0       -0.734168    0.934631    0.001917
 ---------------------------------------------------------------------

 SCF Done:  E(RHF) =  -39.9622201437     A.U. after    9 cycles

 The electronic state is 1-A.
 Alpha  occ. eigenvalues --  -11.16849  -0.92861  -0.55809  -0.53665  -0.50116
 Alpha virt. eigenvalues --    0.27767   0.31223   0.34148   0.35687   0.91713
 Alpha virt. eigenvalues --    0.95200   0.99065   1.24056   1.27011   1.34166
 Alpha virt. eigenvalues --    1.36697   1.93550

 Mulliken charges:
               1
     1  C   -0.754244
     2  H    0.179938
     3  H    0.209616
     4  H    0.209565
     5  H    0.155125
 Sum of Mulliken charges =   0.00000

 Dipole moment (field-independent basis, Debye):
    X=             -0.0271    Y=             -0.0737    Z=              0.0002  Tot=              0.0785
 Quadrupole moment (field-independent basis, Debye-Ang):
   XX=             -8.5220   YY=             -8.6336   ZZ=             -8.4816
   XY=              0.1557   XZ=              0.0010   YZ=             -0.0007

 Normal termination of Gaussian 16 at Fri Sep 22 17:17:20 2023.
