 Gaussian 16, Revision A.03,
 Gaussian 16:  ES64L-G16RevA.03 25-Dec-2016

 ----------
 # hf/3-21g
 ----------

 ------------------------
 tmpdir/M2_conf_291_0.gjf
 ------------------------
 Symbolic Z-matrix:
 Charge =  0 Multiplicity = 1

                         Standard orientation:
 ---------------------------------------------------------------------
 Center     Atomic      Atomic             Coordinates (Angstroms)
 Number     Number       Type             X           Y           Z
 ---------------------------------------------------------------------
      1          6           0       -0.004522   -0.031412    0.000057
      2          1           0        1.235149    0.156954    0.000718
      3          1           0       -0.346516   -0.518733    0.893467
      4          1           0       -0.344612   -0.522670   -0.891911
      5          1           0       -0.516891    1.072918   -0.002616
 ---------------------------------------------------------------------

 SCF Done:  E(RHF) =  -39.9519290610     A.U. after    9 cycles

 The electronic state is 1-A.
 Alpha  occ. eigenvalues --  -11.17771  -0.92315  -0.55980  -0.52424  -0.49602
 Alpha virt. eigenvalues --    0.26664   0.30133   0.33574   0.35676   0.91576
 Alpha virt. eigenvalues --    0.95839   1.02160   1.20737   1.25270   1.33386
 Alpha virt. eigenvalues --    1.36445   1.92542

 Mulliken charges:
               1
     1  C   -0.736038
     2  H    0.155034
     3  H    0.211588
     4  H    0.211588
     5  H    0.157829
 Sum of Mulliken charges =  -0.00000

 Dipole moment (field-independent basis, Debye):
    X=             -0.1184    Y=             -0.0697    Z=              0.0001  Tot=              0.1374
 Quadrupole moment (field-independent basis, Debye-Ang):
   XX=             -8.4793   YY=             -8.7610   ZZ=             -8.5527
   XY=              0.1270   XZ=             -0.0008   YZ=              0.0010

 Normal termination of Gaussian 16 at Fri Sep 22 17:21:36 2023.
