 Gaussian 16, Revision A.03,
 Gaussian 16:  ES64L-G16RevA.03 25-Dec-2016

 ----------
 # hf/3-21g
 ----------

 ------------------------
 tmpdir/M2_conf_189_7.gjf
 ------------------------
 Symbolic Z-matrix:
 Charge =  0 Multiplicity = 1

                         Standard orientation:
 ---------------------------------------------------------------------
 Center     Atomic      Atomic             Coordinates (Angstroms)
 Number     Number       Type             X           Y           Z
 ---------------------------------------------------------------------
      1          1           0       -1.010494    0.253764   -0.341058
      2          6           0       -0.025195   -0.025419   -0.018787
      3          1           0        0.672952   -0.454482   -0.712413
      4          1           0       -0.040215   -0.652909    0.851962
      5          1           0        0.528926    1.006139    0.314229
 ---------------------------------------------------------------------

 SCF Done:  E(RHF) =  -39.9641160248     A.U. after    9 cycles

 The electronic state is 1-A.
 Alpha  occ. eigenvalues --  -11.15746  -0.93818  -0.57185  -0.54503  -0.49764
 Alpha virt. eigenvalues --    0.28328   0.31863   0.35177   0.36278   0.90826
 Alpha virt. eigenvalues --    0.93829   0.97373   1.25266   1.31808   1.35941
 Alpha virt. eigenvalues --    1.38545   1.94622

 Mulliken charges:
               1
     1  H    0.209832
     2  C   -0.775265
     3  H    0.209620
     4  H    0.206097
     5  H    0.149715
 Sum of Mulliken charges =  -0.00000

 Dipole moment (field-independent basis, Debye):
    X=              0.0109    Y=             -0.0680    Z=              0.0123  Tot=              0.0699
 Quadrupole moment (field-independent basis, Debye-Ang):
   XX=             -8.2121   YY=             -8.5868   ZZ=             -8.6557
   XY=             -0.2028   XZ=             -0.0535   YZ=             -0.1143

 Normal termination of Gaussian 16 at Fri Sep 22 17:18:56 2023.
