 Gaussian 16, Revision A.03,
 Gaussian 16:  ES64L-G16RevA.03 25-Dec-2016

 ----------
 # hf/3-21g
 ----------

 ------------------------
 tmpdir/M2_conf_239_6.gjf
 ------------------------
 Symbolic Z-matrix:
 Charge =  0 Multiplicity = 1

                         Standard orientation:
 ---------------------------------------------------------------------
 Center     Atomic      Atomic             Coordinates (Angstroms)
 Number     Number       Type             X           Y           Z
 ---------------------------------------------------------------------
      1          1           0       -1.157388   -0.002552    1.064251
      2          6           0       -1.204196    0.000034   -0.008125
      3         17           0        0.687703    0.000021   -0.012730
      4          1           0       -1.654009    0.893682   -0.397578
      5          1           0       -1.654386   -0.891694   -0.401518
 ---------------------------------------------------------------------

 SCF Done:  E(RHF) =  -496.674116758     A.U. after   11 cycles

 The electronic state is 1-A.
 Alpha  occ. eigenvalues -- -104.08938 -11.24928 -10.48341  -7.94712  -7.94306
 Alpha  occ. eigenvalues --   -7.94301  -1.11703  -0.93228  -0.63803  -0.63156
 Alpha  occ. eigenvalues --   -0.50851  -0.44053  -0.43216
 Alpha virt. eigenvalues --    0.15730   0.27466   0.31416   0.31508   0.74001
 Alpha virt. eigenvalues --    0.79669   0.80996   0.85530   0.92544   0.95841
 Alpha virt. eigenvalues --    1.00882   1.30028   1.31165   1.32310   1.89753

 Mulliken charges:
               1
     1  H    0.281736
     2  C   -0.705859
     3  Cl  -0.108328
     4  H    0.266233
     5  H    0.266217
 Sum of Mulliken charges =   0.00000

 Dipole moment (field-independent basis, Debye):
    X=             -2.8151    Y=             -0.0004    Z=              0.1922  Tot=              2.8217
 Quadrupole moment (field-independent basis, Debye-Ang):
   XX=            -18.5314   YY=            -20.1814   ZZ=            -20.3673
   XY=             -0.0007   XZ=              0.4738   YZ=             -0.0001

 Normal termination of Gaussian 16 at Fri Sep 22 17:20:11 2023.
