 Gaussian 16, Revision A.03,
 Gaussian 16:  ES64L-G16RevA.03 25-Dec-2016

 ----------
 # hf/3-21g
 ----------

 ------------------------
 tmpdir/M2_conf_101_8.gjf
 ------------------------
 Symbolic Z-matrix:
 Charge =  0 Multiplicity = 1

                         Standard orientation:
 ---------------------------------------------------------------------
 Center     Atomic      Atomic             Coordinates (Angstroms)
 Number     Number       Type             X           Y           Z
 ---------------------------------------------------------------------
      1          1           0       -1.455045   -0.141602    1.032831
      2          6           0       -1.202397    0.000119   -0.000949
      3         17           0        0.689501    0.000265   -0.001898
      4          1           0       -1.525970   -0.816031   -0.618507
      5          1           0       -1.526130    0.952419   -0.376369
 ---------------------------------------------------------------------

 SCF Done:  E(RHF) =  -496.689201073     A.U. after   11 cycles

 The electronic state is 1-A.
 Alpha  occ. eigenvalues -- -104.08775 -11.25000 -10.48164  -7.94539  -7.94135
 Alpha  occ. eigenvalues --   -7.94135  -1.11287  -0.93335  -0.63273  -0.63228
 Alpha  occ. eigenvalues --   -0.51312  -0.43756  -0.43694
 Alpha virt. eigenvalues --    0.16587   0.27332   0.31371   0.31389   0.73829
 Alpha virt. eigenvalues --    0.80536   0.80818   0.85512   0.93338   0.93983
 Alpha virt. eigenvalues --    0.99567   1.31201   1.31215   1.32216   1.91966

 Mulliken charges:
               1
     1  H    0.271552
     2  C   -0.702721
     3  Cl  -0.107049
     4  H    0.269133
     5  H    0.269085
 Sum of Mulliken charges =  -0.00000

 Dipole moment (field-independent basis, Debye):
    X=             -2.8655    Y=             -0.0036    Z=              0.0251  Tot=              2.8656
 Quadrupole moment (field-independent basis, Debye-Ang):
   XX=            -18.5694   YY=            -20.1819   ZZ=            -20.1826
   XY=             -0.0097   XZ=              0.0712   YZ=             -0.0002

 Normal termination of Gaussian 16 at Fri Sep 22 17:16:38 2023.
