 Gaussian 16, Revision A.03,
 Gaussian 16:  ES64L-G16RevA.03 25-Dec-2016

 ----------
 # hf/3-21g
 ----------

 ------------------------
 tmpdir/M2_conf_223_6.gjf
 ------------------------
 Symbolic Z-matrix:
 Charge =  0 Multiplicity = 1

                         Standard orientation:
 ---------------------------------------------------------------------
 Center     Atomic      Atomic             Coordinates (Angstroms)
 Number     Number       Type             X           Y           Z
 ---------------------------------------------------------------------
      1          1           0       -1.089507   -0.001898    1.056877
      2          6           0       -1.204976    0.000032   -0.010293
      3         17           0        0.686921    0.000018   -0.014765
      4          1           0       -1.678973    0.893391   -0.370638
      5          1           0       -1.679324   -0.891987   -0.373478
 ---------------------------------------------------------------------

 SCF Done:  E(RHF) =  -496.667042937     A.U. after   11 cycles

 The electronic state is 1-A.
 Alpha  occ. eigenvalues -- -104.09023 -11.24880 -10.48436  -7.94805  -7.94398
 Alpha  occ. eigenvalues --   -7.94390  -1.11917  -0.93178  -0.64011  -0.63136
 Alpha  occ. eigenvalues --   -0.50703  -0.44165  -0.43006
 Alpha virt. eigenvalues --    0.15382   0.27560   0.31446   0.31549   0.74059
 Alpha virt. eigenvalues --    0.79468   0.80908   0.85354   0.92818   0.96214
 Alpha virt. eigenvalues --    1.01269   1.29619   1.31175   1.32203   1.88817

 Mulliken charges:
               1
     1  H    0.283864
     2  C   -0.706725
     3  Cl  -0.109305
     4  H    0.266090
     5  H    0.266076
 Sum of Mulliken charges =  -0.00000

 Dipole moment (field-independent basis, Debye):
    X=             -2.7891    Y=             -0.0004    Z=              0.2320  Tot=              2.7987
 Quadrupole moment (field-independent basis, Debye-Ang):
   XX=            -18.5214   YY=            -20.1794   ZZ=            -20.4478
   XY=             -0.0006   XZ=              0.5484   YZ=             -0.0001

 Normal termination of Gaussian 16 at Fri Sep 22 17:19:47 2023.
