 Gaussian 16, Revision A.03,
 Gaussian 16:  ES64L-G16RevA.03 25-Dec-2016

 ----------
 # hf/3-21g
 ----------

 ------------------------
 tmpdir/M2_conf_209_6.gjf
 ------------------------
 Symbolic Z-matrix:
 Charge =  0 Multiplicity = 1

                         Standard orientation:
 ---------------------------------------------------------------------
 Center     Atomic      Atomic             Coordinates (Angstroms)
 Number     Number       Type             X           Y           Z
 ---------------------------------------------------------------------
      1          1           0       -1.088775   -0.001893    1.056772
      2          6           0       -1.204985    0.000032   -0.010318
      3         17           0        0.686912    0.000018   -0.014786
      4          1           0       -1.679233    0.893388   -0.370339
      5          1           0       -1.679584   -0.891990   -0.373169
 ---------------------------------------------------------------------

 SCF Done:  E(RHF) =  -496.666958039     A.U. after   11 cycles

 The electronic state is 1-A.
 Alpha  occ. eigenvalues -- -104.09024 -11.24880 -10.48437  -7.94806  -7.94399
 Alpha  occ. eigenvalues --   -7.94392  -1.11919  -0.93177  -0.64013  -0.63136
 Alpha  occ. eigenvalues --   -0.50702  -0.44166  -0.43004
 Alpha virt. eigenvalues --    0.15378   0.27561   0.31447   0.31549   0.74060
 Alpha virt. eigenvalues --    0.79466   0.80907   0.85352   0.92822   0.96218
 Alpha virt. eigenvalues --    1.01273   1.29614   1.31175   1.32201   1.88806

 Mulliken charges:
               1
     1  H    0.283886
     2  C   -0.706735
     3  Cl  -0.109316
     4  H    0.266089
     5  H    0.266076
 Sum of Mulliken charges =  -0.00000

 Dipole moment (field-independent basis, Debye):
    X=             -2.7888    Y=             -0.0004    Z=              0.2324  Tot=              2.7984
 Quadrupole moment (field-independent basis, Debye-Ang):
   XX=            -18.5213   YY=            -20.1794   ZZ=            -20.4487
   XY=             -0.0006   XZ=              0.5492   YZ=             -0.0001

 Normal termination of Gaussian 16 at Fri Sep 22 17:19:26 2023.
