 Gaussian 16, Revision A.03,
 Gaussian 16:  ES64L-G16RevA.03 25-Dec-2016

 ----------
 # hf/3-21g
 ----------

 ------------------------
 tmpdir/M2_conf_193_5.gjf
 ------------------------
 Symbolic Z-matrix:
 Charge =  0 Multiplicity = 1

                         Standard orientation:
 ---------------------------------------------------------------------
 Center     Atomic      Atomic             Coordinates (Angstroms)
 Number     Number       Type             X           Y           Z
 ---------------------------------------------------------------------
      1          1           0       -0.419556   -0.236568    0.959516
      2          6           0       -0.023815    0.015657   -0.005864
      3          1           0       -0.614401   -0.500643   -0.738843
      4          1           0        0.069212    1.075786   -0.147571
      5          1           0        1.107633   -0.432516   -0.037918
 ---------------------------------------------------------------------

 SCF Done:  E(RHF) =  -39.9663980458     A.U. after    9 cycles

 The electronic state is 1-A.
 Alpha  occ. eigenvalues --  -11.15720  -0.93798  -0.56429  -0.54572  -0.50492
 Alpha virt. eigenvalues --    0.28277   0.32322   0.35280   0.36002   0.91035
 Alpha virt. eigenvalues --    0.92731   0.97942   1.24925   1.32691   1.35972
 Alpha virt. eigenvalues --    1.37823   1.94498

 Mulliken charges:
               1
     1  H    0.205217
     2  C   -0.771369
     3  H    0.206171
     4  H    0.207221
     5  H    0.152760
 Sum of Mulliken charges =   0.00000

 Dipole moment (field-independent basis, Debye):
    X=             -0.0871    Y=              0.0119    Z=              0.0318  Tot=              0.0935
 Quadrupole moment (field-independent basis, Debye-Ang):
   XX=             -8.5093   YY=             -8.3556   ZZ=             -8.5689
   XY=              0.1639   XZ=              0.0205   YZ=             -0.0057

 Normal termination of Gaussian 16 at Fri Sep 22 17:19:02 2023.
