 Gaussian 16, Revision A.03,
 Gaussian 16:  ES64L-G16RevA.03 25-Dec-2016

 ----------
 # hf/3-21g
 ----------

 ------------------------
 tmpdir/M2_conf_161_3.gjf
 ------------------------
 Symbolic Z-matrix:
 Charge =  0 Multiplicity = 1

                         Standard orientation:
 ---------------------------------------------------------------------
 Center     Atomic      Atomic             Coordinates (Angstroms)
 Number     Number       Type             X           Y           Z
 ---------------------------------------------------------------------
      1          6           0       -1.546999    0.000014    0.000009
      2         17           0        0.872001   -0.000011   -0.000002
      3          1           0       -1.847367   -0.278189    0.992267
      4          1           0       -1.847050    0.998724   -0.255260
      5          1           0       -1.847610   -0.720429   -0.737022
 ---------------------------------------------------------------------

 SCF Done:  E(RHF) =  -496.639704286     A.U. after   10 cycles

 The electronic state is 1-A.
 Alpha  occ. eigenvalues -- -104.07110 -11.30344 -10.45770  -7.92090  -7.91837
 Alpha  occ. eigenvalues --   -7.91837  -1.03142  -0.97459  -0.64819  -0.64815
 Alpha  occ. eigenvalues --   -0.42981  -0.41644  -0.41644
 Alpha virt. eigenvalues --    0.02998   0.25156   0.29949   0.29952   0.73236
 Alpha virt. eigenvalues --    0.78745   0.78751   0.89339   0.93160   0.93168
 Alpha virt. eigenvalues --    0.99924   1.26680   1.28098   1.28107   1.79736

 Mulliken charges:
               1
     1  C   -0.456573
     2  Cl  -0.362651
     3  H    0.273088
     4  H    0.273085
     5  H    0.273051
 Sum of Mulliken charges =   0.00000

 Dipole moment (field-independent basis, Debye):
    X=             -4.9987    Y=              0.0001    Z=              0.0001  Tot=              4.9987
 Quadrupole moment (field-independent basis, Debye-Ang):
   XX=            -14.9424   YY=            -20.4149   ZZ=            -20.4163
   XY=              0.0004   XZ=             -0.0001   YZ=             -0.0001

 Normal termination of Gaussian 16 at Fri Sep 22 17:18:08 2023.
