 Gaussian 16, Revision A.03,
 Gaussian 16:  ES64L-G16RevA.03 25-Dec-2016

 ----------
 # hf/3-21g
 ----------

 ------------------------
 tmpdir/M2_conf_247_6.gjf
 ------------------------
 Symbolic Z-matrix:
 Charge =  0 Multiplicity = 1

                         Standard orientation:
 ---------------------------------------------------------------------
 Center     Atomic      Atomic             Coordinates (Angstroms)
 Number     Number       Type             X           Y           Z
 ---------------------------------------------------------------------
      1          1           0       -0.995542   -0.001349    1.038690
      2          6           0       -1.206290    0.000030   -0.013817
      3         17           0        0.685606    0.000015   -0.017213
      4          1           0       -1.710852    0.893150   -0.330622
      5          1           0       -1.711164   -0.892229   -0.332542
 ---------------------------------------------------------------------

 SCF Done:  E(RHF) =  -496.654485301     A.U. after   11 cycles

 The electronic state is 1-A.
 Alpha  occ. eigenvalues -- -104.09183 -11.24775 -10.48619  -7.94985  -7.94575
 Alpha  occ. eigenvalues --   -7.94563  -1.12318  -0.93086  -0.64350  -0.63098
 Alpha  occ. eigenvalues --   -0.50523  -0.44366  -0.42610
 Alpha virt. eigenvalues --    0.14822   0.27755   0.31506   0.31619   0.74133
 Alpha virt. eigenvalues --    0.79176   0.80750   0.85042   0.93345   0.96700
 Alpha virt. eigenvalues --    1.01788   1.28934   1.31211   1.31991   1.87327

 Mulliken charges:
               1
     1  H    0.286721
     2  C   -0.708080
     3  Cl  -0.111033
     4  H    0.266202
     5  H    0.266191
 Sum of Mulliken charges =  -0.00000

 Dipole moment (field-independent basis, Debye):
    X=             -2.7391    Y=             -0.0003    Z=              0.2888  Tot=              2.7543
 Quadrupole moment (field-independent basis, Debye-Ang):
   XX=            -18.5133   YY=            -20.1741   ZZ=            -20.5819
   XY=             -0.0005   XZ=              0.6355   YZ=             -0.0001

 Normal termination of Gaussian 16 at Fri Sep 22 17:20:24 2023.
