 Gaussian 16, Revision A.03,
 Gaussian 16:  ES64L-G16RevA.03 25-Dec-2016

 ----------
 # hf/3-21g
 ----------

 -----------------------
 tmpdir/M2_conf_63_1.gjf
 -----------------------
 Symbolic Z-matrix:
 Charge =  0 Multiplicity = 1

                         Standard orientation:
 ---------------------------------------------------------------------
 Center     Atomic      Atomic             Coordinates (Angstroms)
 Number     Number       Type             X           Y           Z
 ---------------------------------------------------------------------
      1          6           0       -0.032136   -0.000060    0.006719
      2          1           0       -0.219999   -0.004035    1.027366
      3          1           0       -0.382106   -0.891090   -0.478841
      4          1           0       -0.384106    0.893841   -0.472513
      5          1           0        1.179026    0.001645   -0.116324
 ---------------------------------------------------------------------

 SCF Done:  E(RHF) =  -39.9656531510     A.U. after    9 cycles

 The electronic state is 1-A.
 Alpha  occ. eigenvalues --  -11.15307  -0.94204  -0.56420  -0.55582  -0.50283
 Alpha virt. eigenvalues --    0.28426   0.32426   0.35685   0.36463   0.90303
 Alpha virt. eigenvalues --    0.91996   0.97559   1.25221   1.33455   1.37017
 Alpha virt. eigenvalues --    1.39816   1.95126

 Mulliken charges:
               1
     1  C   -0.775256
     2  H    0.215258
     3  H    0.205118
     4  H    0.205063
     5  H    0.149817
 Sum of Mulliken charges =  -0.00000

 Dipole moment (field-independent basis, Debye):
    X=             -0.0779    Y=             -0.0003    Z=              0.0280  Tot=              0.0828
 Quadrupole moment (field-independent basis, Debye-Ang):
   XX=             -8.6197   YY=             -8.3553   ZZ=             -8.3844
   XY=             -0.0005   XZ=              0.0302   YZ=             -0.0001

 Normal termination of Gaussian 16 at Fri Sep 22 17:15:42 2023.
