 Gaussian 16, Revision A.03,
 Gaussian 16:  ES64L-G16RevA.03 25-Dec-2016

 ----------
 # hf/3-21g
 ----------

 ------------------------
 tmpdir/M2_conf_133_6.gjf
 ------------------------
 Symbolic Z-matrix:
 Charge =  0 Multiplicity = 1

                         Standard orientation:
 ---------------------------------------------------------------------
 Center     Atomic      Atomic             Coordinates (Angstroms)
 Number     Number       Type             X           Y           Z
 ---------------------------------------------------------------------
      1          1           0       -1.366378   -0.012169    1.057920
      2          6           0       -1.202655    0.000051   -0.002850
      3         17           0        0.689248    0.000050   -0.005382
      4          1           0       -1.567236    0.898135   -0.464517
      5          1           0       -1.567683   -0.887129   -0.484798
 ---------------------------------------------------------------------

 SCF Done:  E(RHF) =  -496.687166762     A.U. after   11 cycles

 The electronic state is 1-A.
 Alpha  occ. eigenvalues -- -104.08795 -11.24993 -10.48185  -7.94559  -7.94155
 Alpha  occ. eigenvalues --   -7.94155  -1.11339  -0.93321  -0.63363  -0.63204
 Alpha  occ. eigenvalues --   -0.51236  -0.43820  -0.43607
 Alpha virt. eigenvalues --    0.16458   0.27342   0.31370   0.31415   0.73856
 Alpha virt. eigenvalues --    0.80275   0.80991   0.85586   0.92785   0.94579
 Alpha virt. eigenvalues --    0.99824   1.30973   1.31184   1.32327   1.91657

 Mulliken charges:
               1
     1  H    0.274720
     2  C   -0.703382
     3  Cl  -0.107058
     4  H    0.267871
     5  H    0.267851
 Sum of Mulliken charges =  -0.00000

 Dipole moment (field-independent basis, Debye):
    X=             -2.8591    Y=             -0.0008    Z=              0.0740  Tot=              2.8601
 Quadrupole moment (field-independent basis, Debye-Ang):
   XX=            -18.5624   YY=            -20.1821   ZZ=            -20.2089
   XY=             -0.0018   XZ=              0.2007   YZ=             -0.0002

 Normal termination of Gaussian 16 at Fri Sep 22 17:17:26 2023.
