 Gaussian 16, Revision A.03,
 Gaussian 16:  ES64L-G16RevA.03 25-Dec-2016

 ----------
 # hf/3-21g
 ----------

 -----------------------
 tmpdir/M2_conf_48_5.gjf
 -----------------------
 Symbolic Z-matrix:
 Charge =  0 Multiplicity = 1

                         Standard orientation:
 ---------------------------------------------------------------------
 Center     Atomic      Atomic             Coordinates (Angstroms)
 Number     Number       Type             X           Y           Z
 ---------------------------------------------------------------------
      1          1           0        1.082392    0.006979   -0.268236
      2          6           0        0.034459   -0.029639   -0.038708
      3          1           0       -0.843252   -0.145263   -0.646057
      4          1           0       -0.193373   -0.745507    0.728257
      5          1           0       -0.252519    1.061628    0.418283
 ---------------------------------------------------------------------

 SCF Done:  E(RHF) =  -39.9508370985     A.U. after    9 cycles

 The electronic state is 1-A.
 Alpha  occ. eigenvalues --  -11.15801  -0.94061  -0.59372  -0.53175  -0.48343
 Alpha virt. eigenvalues --    0.28212   0.30535   0.34602   0.37074   0.89898
 Alpha virt. eigenvalues --    0.97191   0.98271   1.25258   1.30714   1.35071
 Alpha virt. eigenvalues --    1.41349   1.94319

 Mulliken charges:
               1
     1  H    0.220659
     2  C   -0.798506
     3  H    0.223184
     4  H    0.206621
     5  H    0.148042
 Sum of Mulliken charges =  -0.00000

 Dipole moment (field-independent basis, Debye):
    X=             -0.0948    Y=             -0.0646    Z=              0.0545  Tot=              0.1270
 Quadrupole moment (field-independent basis, Debye-Ang):
   XX=             -7.7212   YY=             -8.6858   ZZ=             -9.0963
   XY=              0.0993   XZ=              0.0241   YZ=             -0.1642

 Normal termination of Gaussian 16 at Fri Sep 22 17:15:19 2023.
