 Gaussian 16, Revision A.03,
 Gaussian 16:  ES64L-G16RevA.03 25-Dec-2016

 ----------
 # hf/3-21g
 ----------

 -----------------------
 tmpdir/M2_conf_36_8.gjf
 -----------------------
 Symbolic Z-matrix:
 Charge =  0 Multiplicity = 1

                         Standard orientation:
 ---------------------------------------------------------------------
 Center     Atomic      Atomic             Coordinates (Angstroms)
 Number     Number       Type             X           Y           Z
 ---------------------------------------------------------------------
      1          1           0       -1.464965   -0.275383    1.003129
      2          6           0       -1.202388    0.000189   -0.000728
      3         17           0        0.689517    0.000406   -0.001464
      4          1           0       -1.521174   -0.727005   -0.723045
      5          1           0       -1.521331    0.994346   -0.250820
 ---------------------------------------------------------------------

 SCF Done:  E(RHF) =  -496.689306422     A.U. after   11 cycles

 The electronic state is 1-A.
 Alpha  occ. eigenvalues -- -104.08774 -11.25001 -10.48163  -7.94538  -7.94134
 Alpha  occ. eigenvalues --   -7.94134  -1.11284  -0.93336  -0.63266  -0.63231
 Alpha  occ. eigenvalues --   -0.51316  -0.43749  -0.43702
 Alpha virt. eigenvalues --    0.16594   0.27332   0.31372   0.31387   0.73827
 Alpha virt. eigenvalues --    0.80566   0.80792   0.85507   0.93406   0.93915
 Alpha virt. eigenvalues --    0.99552   1.31210   1.31222   1.32208   1.91982

 Mulliken charges:
               1
     1  H    0.271202
     2  C   -0.702677
     3  Cl  -0.107057
     4  H    0.269290
     5  H    0.269242
 Sum of Mulliken charges =   0.00000

 Dipole moment (field-independent basis, Debye):
    X=             -2.8658    Y=             -0.0054    Z=              0.0193  Tot=              2.8659
 Quadrupole moment (field-independent basis, Debye-Ang):
   XX=            -18.5697   YY=            -20.1816   ZZ=            -20.1815
   XY=             -0.0151   XZ=              0.0550   YZ=             -0.0004

 Normal termination of Gaussian 16 at Fri Sep 22 17:15:01 2023.
