 Gaussian 16, Revision A.03,
 Gaussian 16:  ES64L-G16RevA.03 25-Dec-2016

 ----------
 # hf/3-21g
 ----------

 ------------------------
 tmpdir/M2_conf_201_8.gjf
 ------------------------
 Symbolic Z-matrix:
 Charge =  0 Multiplicity = 1

                         Standard orientation:
 ---------------------------------------------------------------------
 Center     Atomic      Atomic             Coordinates (Angstroms)
 Number     Number       Type             X           Y           Z
 ---------------------------------------------------------------------
      1          1           0       -0.712715   -0.000174    0.920899
      2          6           0       -1.212051   -0.000014   -0.029512
      3         17           0        0.679828    0.000013   -0.021154
      4          1           0       -1.785865   -0.892454   -0.192199
      5          1           0       -1.786193    0.892496   -0.192008
 ---------------------------------------------------------------------

 SCF Done:  E(RHF) =  -496.590163935     A.U. after   12 cycles

 The electronic state is 1-A.
 Alpha  occ. eigenvalues -- -104.10161 -11.23888 -10.49799  -7.96153  -7.95719
 Alpha  occ. eigenvalues --   -7.95678  -1.14835  -0.92546  -0.65798  -0.62762
 Alpha  occ. eigenvalues --   -0.50689  -0.45512  -0.40184
 Alpha virt. eigenvalues --    0.12691   0.29108   0.31994   0.32030   0.74105
 Alpha virt. eigenvalues --    0.78071   0.80241   0.84489   0.94081   0.97932
 Alpha virt. eigenvalues --    1.03087   1.24886   1.31152   1.31640   1.82527

 Mulliken charges:
               1
     1  H    0.294434
     2  C   -0.719978
     3  Cl  -0.111325
     4  H    0.268455
     5  H    0.268414
 Sum of Mulliken charges =  -0.00000

 Dipole moment (field-independent basis, Debye):
    X=             -2.3984    Y=             -0.0002    Z=              0.4880  Tot=              2.4475
 Quadrupole moment (field-independent basis, Debye-Ang):
   XX=            -18.6104   YY=            -20.1211   ZZ=            -21.1351
   XY=             -0.0003   XZ=              0.7136   YZ=              0.0000

 Normal termination of Gaussian 16 at Fri Sep 22 17:19:14 2023.
