 Gaussian 16, Revision A.03,
 Gaussian 16:  ES64L-G16RevA.03 25-Dec-2016

 ----------
 # hf/3-21g
 ----------

 ------------------------
 tmpdir/M2_conf_204_4.gjf
 ------------------------
 Symbolic Z-matrix:
 Charge =  0 Multiplicity = 1

                         Standard orientation:
 ---------------------------------------------------------------------
 Center     Atomic      Atomic             Coordinates (Angstroms)
 Number     Number       Type             X           Y           Z
 ---------------------------------------------------------------------
      1          1           0        0.347005   -0.308365    0.975601
      2          6           0        0.030422    0.003977   -0.001335
      3          1           0        0.404923   -0.656444   -0.760417
      4          1           0        0.248274    1.037715   -0.192463
      5          1           0       -1.182733   -0.096767   -0.014710
 ---------------------------------------------------------------------

 SCF Done:  E(RHF) =  -39.9669885152     A.U. after    9 cycles

 The electronic state is 1-A.
 Alpha  occ. eigenvalues --  -11.15723  -0.93778  -0.55833  -0.55374  -0.50332
 Alpha virt. eigenvalues --    0.28311   0.32263   0.35587   0.35769   0.91667
 Alpha virt. eigenvalues --    0.92123   0.97702   1.25032   1.32531   1.36693
 Alpha virt. eigenvalues --    1.37143   1.94628

 Mulliken charges:
               1
     1  H    0.206106
     2  C   -0.770614
     3  H    0.206246
     4  H    0.206578
     5  H    0.151684
 Sum of Mulliken charges =  -0.00000

 Dipole moment (field-independent basis, Debye):
    X=              0.0747    Y=              0.0011    Z=              0.0082  Tot=              0.0751
 Quadrupole moment (field-independent basis, Debye-Ang):
   XX=             -8.6385   YY=             -8.3629   ZZ=             -8.4349
   XY=             -0.0395   XZ=             -0.0077   YZ=             -0.0002

 Normal termination of Gaussian 16 at Fri Sep 22 17:19:18 2023.
