 Gaussian 16, Revision A.03,
 Gaussian 16:  ES64L-G16RevA.03 25-Dec-2016

 ----------
 # hf/3-21g
 ----------

 ----------------------
 tmpdir/M2_conf_1_2.gjf
 ----------------------
 Symbolic Z-matrix:
 Charge =  0 Multiplicity = 1

                         Standard orientation:
 ---------------------------------------------------------------------
 Center     Atomic      Atomic             Coordinates (Angstroms)
 Number     Number       Type             X           Y           Z
 ---------------------------------------------------------------------
      1          6           0        0.031216   -0.002875   -0.000013
      2          1           0        0.394102    1.019399   -0.022270
      3          1           0        0.304082   -0.515698    0.902625
      4          1           0        0.298705   -0.553273   -0.882132
      5          1           0       -1.184184    0.066821    0.001854
 ---------------------------------------------------------------------

 SCF Done:  E(RHF) =  -39.9669591497     A.U. after    9 cycles

 The electronic state is 1-A.
 Alpha  occ. eigenvalues --  -11.15859  -0.93651  -0.55657  -0.55390  -0.50262
 Alpha virt. eigenvalues --    0.28276   0.32151   0.35454   0.35688   0.91891
 Alpha virt. eigenvalues --    0.92419   0.97687   1.25010   1.31957   1.36277
 Alpha virt. eigenvalues --    1.36918   1.94512

 Mulliken charges:
               1
     1  C   -0.769052
     2  H    0.203495
     3  H    0.206887
     4  H    0.206839
     5  H    0.151831
 Sum of Mulliken charges =   0.00000

 Dipole moment (field-independent basis, Debye):
    X=              0.0671    Y=             -0.0109    Z=              0.0001  Tot=              0.0680
 Quadrupole moment (field-independent basis, Debye-Ang):
   XX=             -8.6664   YY=             -8.3943   ZZ=             -8.4015
   XY=              0.0180   XZ=              0.0011   YZ=              0.0003

 Normal termination of Gaussian 16 at Fri Sep 22 17:14:09 2023.
