 Gaussian 16, Revision A.03,
 Gaussian 16:  ES64L-G16RevA.03 25-Dec-2016

 ----------
 # hf/3-21g
 ----------

 ------------------------
 tmpdir/M2_conf_232_9.gjf
 ------------------------
 Symbolic Z-matrix:
 Charge =  0 Multiplicity = 1

                         Standard orientation:
 ---------------------------------------------------------------------
 Center     Atomic      Atomic             Coordinates (Angstroms)
 Number     Number       Type             X           Y           Z
 ---------------------------------------------------------------------
      1          1           0        1.179096   -0.004793    1.065805
      2          6           0        1.203969    0.000036   -0.007496
      3         17           0       -0.687923    0.000050   -0.012039
      4          1           0        1.645975   -0.890672   -0.411804
      5          1           0        1.645813    0.894392   -0.404366
 ---------------------------------------------------------------------

 SCF Done:  E(RHF) =  -496.676059666     A.U. after   11 cycles

 The electronic state is 1-A.
 Alpha  occ. eigenvalues -- -104.08916 -11.24940 -10.48316  -7.94687  -7.94282
 Alpha  occ. eigenvalues --   -7.94278  -1.11646  -0.93242  -0.63743  -0.63162
 Alpha  occ. eigenvalues --   -0.50899  -0.44022  -0.43272
 Alpha virt. eigenvalues --    0.15830   0.27441   0.31408   0.31498   0.73982
 Alpha virt. eigenvalues --    0.79731   0.81018   0.85571   0.92496   0.95709
 Alpha virt. eigenvalues --    1.00759   1.30159   1.31170   1.32316   1.90022

 Mulliken charges:
               1
     1  H    0.280991
     2  C   -0.705584
     3  Cl  -0.108057
     4  H    0.266339
     5  H    0.266311
 Sum of Mulliken charges =  -0.00000

 Dipole moment (field-independent basis, Debye):
    X=              2.8219    Y=             -0.0009    Z=              0.1795  Tot=              2.8276
 Quadrupole moment (field-independent basis, Debye-Ang):
   XX=            -18.5349   YY=            -20.1825   ZZ=            -20.3440
   XY=              0.0017   XZ=             -0.4487   YZ=             -0.0001

 Normal termination of Gaussian 16 at Fri Sep 22 17:20:01 2023.
