 Gaussian 16, Revision A.03,
 Gaussian 16:  ES64L-G16RevA.03 25-Dec-2016

 ----------
 # hf/3-21g
 ----------

 -----------------------
 tmpdir/M2_conf_99_1.gjf
 -----------------------
 Symbolic Z-matrix:
 Charge =  0 Multiplicity = 1

                         Standard orientation:
 ---------------------------------------------------------------------
 Center     Atomic      Atomic             Coordinates (Angstroms)
 Number     Number       Type             X           Y           Z
 ---------------------------------------------------------------------
      1          6           0       -0.032008   -0.000061    0.004047
      2          1           0       -0.258568   -0.007359    1.033076
      3          1           0       -0.365110   -0.889419   -0.496217
      4          1           0       -0.366969    0.895483   -0.484223
      5          1           0        1.182693    0.001661   -0.076919
 ---------------------------------------------------------------------

 SCF Done:  E(RHF) =  -39.9664798458     A.U. after    9 cycles

 The electronic state is 1-A.
 Alpha  occ. eigenvalues --  -11.15493  -0.94008  -0.56072  -0.55605  -0.50279
 Alpha virt. eigenvalues --    0.28382   0.32348   0.35686   0.36111   0.91029
 Alpha virt. eigenvalues --    0.91958   0.97581   1.25157   1.33096   1.36985
 Alpha virt. eigenvalues --    1.38408   1.94905

 Mulliken charges:
               1
     1  C   -0.773330
     2  H    0.211406
     3  H    0.205735
     4  H    0.205680
     5  H    0.150509
 Sum of Mulliken charges =  -0.00000

 Dipole moment (field-independent basis, Debye):
    X=             -0.0752    Y=             -0.0003    Z=              0.0164  Tot=              0.0770
 Quadrupole moment (field-independent basis, Debye-Ang):
   XX=             -8.6369   YY=             -8.3712   ZZ=             -8.3864
   XY=             -0.0005   XZ=              0.0204   YZ=             -0.0001

 Normal termination of Gaussian 16 at Fri Sep 22 17:16:35 2023.
