 Gaussian 16, Revision A.03,
 Gaussian 16:  ES64L-G16RevA.03 25-Dec-2016

 ----------
 # hf/3-21g
 ----------

 ------------------------
 tmpdir/M2_conf_163_4.gjf
 ------------------------
 Symbolic Z-matrix:
 Charge =  0 Multiplicity = 1

                         Standard orientation:
 ---------------------------------------------------------------------
 Center     Atomic      Atomic             Coordinates (Angstroms)
 Number     Number       Type             X           Y           Z
 ---------------------------------------------------------------------
      1          1           0       -1.039604    0.123018   -0.334137
      2          6           0       -0.023766   -0.028033   -0.021977
      3          1           0        0.745090   -0.333463   -0.706218
      4          1           0        0.051963   -0.679859    0.827725
      5          1           0        0.385148    1.058503    0.344493
 ---------------------------------------------------------------------

 SCF Done:  E(RHF) =  -39.9629233378     A.U. after    9 cycles

 The electronic state is 1-A.
 Alpha  occ. eigenvalues --  -11.15752  -0.93839  -0.57507  -0.54280  -0.49619
 Alpha virt. eigenvalues --    0.28321   0.31738   0.35071   0.36401   0.90642
 Alpha virt. eigenvalues --    0.94322   0.97341   1.25298   1.31656   1.35764
 Alpha virt. eigenvalues --    1.38909   1.94589

 Mulliken charges:
               1
     1  H    0.210928
     2  C   -0.777265
     3  H    0.210851
     4  H    0.206056
     5  H    0.149430
 Sum of Mulliken charges =   0.00000

 Dipole moment (field-independent basis, Debye):
    X=              0.0288    Y=             -0.0667    Z=              0.0168  Tot=              0.0746
 Quadrupole moment (field-independent basis, Debye-Ang):
   XX=             -8.1084   YY=             -8.6340   ZZ=             -8.7175
   XY=             -0.1539   XZ=             -0.0401   YZ=             -0.1316

 Normal termination of Gaussian 16 at Fri Sep 22 17:18:11 2023.
