 Gaussian 16, Revision A.03,
 Gaussian 16:  ES64L-G16RevA.03 25-Dec-2016

 ----------
 # hf/3-21g
 ----------

 -----------------------
 tmpdir/M2_conf_47_1.gjf
 -----------------------
 Symbolic Z-matrix:
 Charge =  0 Multiplicity = 1

                         Standard orientation:
 ---------------------------------------------------------------------
 Center     Atomic      Atomic             Coordinates (Angstroms)
 Number     Number       Type             X           Y           Z
 ---------------------------------------------------------------------
      1          6           0       -0.006615   -0.029753    0.000059
      2          1           0       -1.140621    0.316188   -0.001317
      3          1           0        0.259584   -0.561369    0.893761
      4          1           0        0.260821   -0.565273   -0.891178
      5          1           0        0.659903    0.988975   -0.001620
 ---------------------------------------------------------------------

 SCF Done:  E(RHF) =  -39.9607051202     A.U. after    9 cycles

 The electronic state is 1-A.
 Alpha  occ. eigenvalues --  -11.17017  -0.92750  -0.55835  -0.53406  -0.50059
 Alpha virt. eigenvalues --    0.27626   0.31013   0.34010   0.35684   0.91681
 Alpha virt. eigenvalues --    0.95431   0.99544   1.23632   1.26410   1.34007
 Alpha virt. eigenvalues --    1.36652   1.93381

 Mulliken charges:
               1
     1  C   -0.751241
     2  H    0.175604
     3  H    0.210022
     4  H    0.209967
     5  H    0.155649
 Sum of Mulliken charges =   0.00000

 Dipole moment (field-independent basis, Debye):
    X=              0.0452    Y=             -0.0736    Z=              0.0003  Tot=              0.0864
 Quadrupole moment (field-independent basis, Debye-Ang):
   XX=             -8.5032   YY=             -8.6674   ZZ=             -8.4955
   XY=             -0.1491   XZ=              0.0001   YZ=              0.0005

 Normal termination of Gaussian 16 at Fri Sep 22 17:15:18 2023.
