 Gaussian 16, Revision A.03,
 Gaussian 16:  ES64L-G16RevA.03 25-Dec-2016

 ----------
 # hf/3-21g
 ----------

 ------------------------
 tmpdir/M2_conf_259_8.gjf
 ------------------------
 Symbolic Z-matrix:
 Charge =  0 Multiplicity = 1

                         Standard orientation:
 ---------------------------------------------------------------------
 Center     Atomic      Atomic             Coordinates (Angstroms)
 Number     Number       Type             X           Y           Z
 ---------------------------------------------------------------------
      1          1           0        0.390140    0.000005    0.614203
      2          6           0        1.223143    0.000021   -0.063087
      3         17           0       -0.668153   -0.000009   -0.015425
      4          1           0        1.814622    0.892490    0.013269
      5          1           0        1.814976   -0.892460    0.013267
 ---------------------------------------------------------------------

 SCF Done:  E(RHF) =  -496.422492078     A.U. after   12 cycles

 The electronic state is 1-A.
 Alpha  occ. eigenvalues -- -104.14171 -11.19852 -10.54466  -8.00881  -8.00235
 Alpha  occ. eigenvalues --   -8.00173  -1.25068  -0.90751  -0.68974  -0.61156
 Alpha  occ. eigenvalues --   -0.53843  -0.48966  -0.33791
 Alpha virt. eigenvalues --    0.10321   0.32580   0.33786   0.36805   0.71214
 Alpha virt. eigenvalues --    0.73828   0.75484   0.79463   0.92272   0.99285
 Alpha virt. eigenvalues --    1.05387   1.21571   1.33964   1.34716   1.82165

 Mulliken charges:
               1
     1  H    0.257826
     2  C   -0.808450
     3  Cl   0.009138
     4  H    0.270759
     5  H    0.270727
 Sum of Mulliken charges =  -0.00000

 Dipole moment (field-independent basis, Debye):
    X=              0.8348    Y=              0.0000    Z=              1.0059  Tot=              1.3072
 Quadrupole moment (field-independent basis, Debye-Ang):
   XX=            -19.2341   YY=            -19.7750   ZZ=            -22.0724
   XY=             -0.0003   XZ=              0.2894   YZ=              0.0000

 Normal termination of Gaussian 16 at Fri Sep 22 17:20:42 2023.
