 Gaussian 16, Revision A.03,
 Gaussian 16:  ES64L-G16RevA.03 25-Dec-2016

 ----------
 # hf/3-21g
 ----------

 ------------------------
 tmpdir/M2_conf_126_8.gjf
 ------------------------
 Symbolic Z-matrix:
 Charge =  0 Multiplicity = 1

                         Standard orientation:
 ---------------------------------------------------------------------
 Center     Atomic      Atomic             Coordinates (Angstroms)
 Number     Number       Type             X           Y           Z
 ---------------------------------------------------------------------
      1          1           0       -1.354287   -0.010773    1.059703
      2          6           0       -1.202709    0.000019   -0.003088
      3         17           0        0.689192    0.000065   -0.005845
      4          1           0       -1.572764   -0.887650   -0.479828
      5          1           0       -1.572953    0.897211   -0.461983
 ---------------------------------------------------------------------

 SCF Done:  E(RHF) =  -496.686736037     A.U. after   11 cycles

 The electronic state is 1-A.
 Alpha  occ. eigenvalues -- -104.08799 -11.24992 -10.48190  -7.94564  -7.94160
 Alpha  occ. eigenvalues --   -7.94159  -1.11350  -0.93317  -0.63383  -0.63200
 Alpha  occ. eigenvalues --   -0.51220  -0.43830  -0.43592
 Alpha virt. eigenvalues --    0.16431   0.27343   0.31371   0.31420   0.73862
 Alpha virt. eigenvalues --    0.80238   0.81008   0.85597   0.92737   0.94645
 Alpha virt. eigenvalues --    0.99872   1.30943   1.31185   1.32322   1.91590

 Mulliken charges:
               1
     1  H    0.275103
     2  C   -0.703493
     3  Cl  -0.107075
     4  H    0.267757
     5  H    0.267709
 Sum of Mulliken charges =   0.00000

 Dipole moment (field-independent basis, Debye):
    X=             -2.8578    Y=             -0.0009    Z=              0.0804  Tot=              2.8589
 Quadrupole moment (field-independent basis, Debye-Ang):
   XX=            -18.5612   YY=            -20.1834   ZZ=            -20.2132
   XY=             -0.0022   XZ=              0.2185   YZ=              0.0000

 Normal termination of Gaussian 16 at Fri Sep 22 17:17:15 2023.
