 Gaussian 16, Revision A.03,
 Gaussian 16:  ES64L-G16RevA.03 25-Dec-2016

 ----------
 # hf/3-21g
 ----------

 ----------------------
 tmpdir/M2_conf_1_8.gjf
 ----------------------
 Symbolic Z-matrix:
 Charge =  0 Multiplicity = 1

                         Standard orientation:
 ---------------------------------------------------------------------
 Center     Atomic      Atomic             Coordinates (Angstroms)
 Number     Number       Type             X           Y           Z
 ---------------------------------------------------------------------
      1          1           0       -1.307824   -0.006085    1.064309
      2          6           0       -1.202952    0.000011   -0.004139
      3         17           0        0.688942    0.000049   -0.007580
      4          1           0       -1.593140   -0.889865   -0.460265
      5          1           0       -1.593342    0.895057   -0.450352
 ---------------------------------------------------------------------

 SCF Done:  E(RHF) =  -496.684726342     A.U. after   11 cycles

 The electronic state is 1-A.
 Alpha  occ. eigenvalues -- -104.08820 -11.24984 -10.48212  -7.94585  -7.94181
 Alpha  occ. eigenvalues --   -7.94180  -1.11404  -0.93303  -0.63458  -0.63189
 Alpha  occ. eigenvalues --   -0.51151  -0.43872  -0.43527
 Alpha virt. eigenvalues --    0.16311   0.27356   0.31377   0.31438   0.73887
 Alpha virt. eigenvalues --    0.80103   0.81048   0.85633   0.92554   0.94937
 Alpha virt. eigenvalues --    1.00078   1.30767   1.31176   1.32354   1.91285

 Mulliken charges:
               1
     1  H    0.276713
     2  C   -0.704002
     3  Cl  -0.107181
     4  H    0.267259
     5  H    0.267211
 Sum of Mulliken charges =   0.00000

 Dipole moment (field-independent basis, Debye):
    X=             -2.8513    Y=             -0.0007    Z=              0.1063  Tot=              2.8532
 Quadrupole moment (field-independent basis, Debye-Ang):
   XX=            -18.5553   YY=            -20.1837   ZZ=            -20.2383
   XY=             -0.0016   XZ=              0.2832   YZ=              0.0000

 Normal termination of Gaussian 16 at Fri Sep 22 17:14:08 2023.
