 Gaussian 16, Revision A.03,
 Gaussian 16:  ES64L-G16RevA.03 25-Dec-2016

 ----------
 # hf/3-21g
 ----------

 ------------------------
 tmpdir/M2_conf_282_9.gjf
 ------------------------
 Symbolic Z-matrix:
 Charge =  0 Multiplicity = 1

                         Standard orientation:
 ---------------------------------------------------------------------
 Center     Atomic      Atomic             Coordinates (Angstroms)
 Number     Number       Type             X           Y           Z
 ---------------------------------------------------------------------
      1          1           0        1.326706   -0.015095    1.062579
      2          6           0        1.202841    0.000060   -0.003744
      3         17           0       -0.689055    0.000092   -0.006880
      4          1           0        1.585215   -0.885864   -0.473983
      5          1           0        1.584966    0.899044   -0.449180
 ---------------------------------------------------------------------

 SCF Done:  E(RHF) =  -496.685608410     A.U. after   11 cycles

 The electronic state is 1-A.
 Alpha  occ. eigenvalues -- -104.08811 -11.24987 -10.48202  -7.94576  -7.94172
 Alpha  occ. eigenvalues --   -7.94171  -1.11380  -0.93310  -0.63422  -0.63195
 Alpha  occ. eigenvalues --   -0.51181  -0.43855  -0.43555
 Alpha virt. eigenvalues --    0.16363   0.27351   0.31373   0.31432   0.73876
 Alpha virt. eigenvalues --    0.80157   0.81034   0.85620   0.92618   0.94823
 Alpha virt. eigenvalues --    0.99990   1.30838   1.31182   1.32346   1.91420

 Mulliken charges:
               1
     1  H    0.276056
     2  C   -0.703797
     3  Cl  -0.107114
     4  H    0.267440
     5  H    0.267416
 Sum of Mulliken charges =  -0.00000

 Dipole moment (field-independent basis, Debye):
    X=              2.8541    Y=             -0.0014    Z=              0.0959  Tot=              2.8557
 Quadrupole moment (field-independent basis, Debye-Ang):
   XX=            -18.5576   YY=            -20.1831   ZZ=            -20.2279
   XY=              0.0032   XZ=             -0.2569   YZ=             -0.0001

 Normal termination of Gaussian 16 at Fri Sep 22 17:21:17 2023.
