 Gaussian 16, Revision A.03,
 Gaussian 16:  ES64L-G16RevA.03 25-Dec-2016

 ----------
 # hf/3-21g
 ----------

 ------------------------
 tmpdir/M2_conf_162_3.gjf
 ------------------------
 Symbolic Z-matrix:
 Charge =  0 Multiplicity = 1

                         Standard orientation:
 ---------------------------------------------------------------------
 Center     Atomic      Atomic             Coordinates (Angstroms)
 Number     Number       Type             X           Y           Z
 ---------------------------------------------------------------------
      1          6           0       -1.552883    0.000014    0.000009
      2         17           0        0.875117   -0.000011   -0.000002
      3          1           0       -1.853251   -0.278189    0.992267
      4          1           0       -1.852934    0.998724   -0.255260
      5          1           0       -1.853495   -0.720429   -0.737022
 ---------------------------------------------------------------------

 SCF Done:  E(RHF) =  -496.638486138     A.U. after   10 cycles

 The electronic state is 1-A.
 Alpha  occ. eigenvalues -- -104.07058 -11.30427 -10.45715  -7.92034  -7.91782
 Alpha  occ. eigenvalues --   -7.91782  -1.03074  -0.97501  -0.64872  -0.64867
 Alpha  occ. eigenvalues --   -0.42857  -0.41593  -0.41593
 Alpha virt. eigenvalues --    0.02833   0.25115   0.29911   0.29915   0.73231
 Alpha virt. eigenvalues --    0.78734   0.78740   0.89423   0.93130   0.93138
 Alpha virt. eigenvalues --    0.99767   1.26584   1.28038   1.28047   1.79597

 Mulliken charges:
               1
     1  C   -0.453974
     2  Cl  -0.365799
     3  H    0.273271
     4  H    0.273268
     5  H    0.273234
 Sum of Mulliken charges =  -0.00000

 Dipole moment (field-independent basis, Debye):
    X=             -5.0396    Y=              0.0001    Z=              0.0001  Tot=              5.0396
 Quadrupole moment (field-independent basis, Debye-Ang):
   XX=            -14.8773   YY=            -20.4159   ZZ=            -20.4174
   XY=              0.0004   XZ=             -0.0001   YZ=             -0.0001

 Normal termination of Gaussian 16 at Fri Sep 22 17:18:10 2023.
