 Gaussian 16, Revision A.03,
 Gaussian 16:  ES64L-G16RevA.03 25-Dec-2016

 ----------
 # hf/3-21g
 ----------

 ------------------------
 tmpdir/M2_conf_290_6.gjf
 ------------------------
 Symbolic Z-matrix:
 Charge =  0 Multiplicity = 1

                         Standard orientation:
 ---------------------------------------------------------------------
 Center     Atomic      Atomic             Coordinates (Angstroms)
 Number     Number       Type             X           Y           Z
 ---------------------------------------------------------------------
      1          1           0       -1.221923   -0.003593    1.066932
      2          6           0       -1.203575    0.000037   -0.006305
      3         17           0        0.688316    0.000026   -0.010616
      4          1           0       -1.628796    0.894152   -0.421463
      5          1           0       -1.629197   -0.891219   -0.427158
 ---------------------------------------------------------------------

 SCF Done:  E(RHF) =  -496.679472308     A.U. after   11 cycles

 The electronic state is 1-A.
 Alpha  occ. eigenvalues -- -104.08877 -11.24959 -10.48273  -7.94646  -7.94241
 Alpha  occ. eigenvalues --   -7.94238  -1.11549  -0.93266  -0.63635  -0.63171
 Alpha  occ. eigenvalues --   -0.50990  -0.43965  -0.43372
 Alpha virt. eigenvalues --    0.16013   0.27405   0.31395   0.31474   0.73948
 Alpha virt. eigenvalues --    0.79857   0.81046   0.85625   0.92430   0.95469
 Alpha virt. eigenvalues --    1.00520   1.30368   1.31164   1.32369   1.90509

 Mulliken charges:
               1
     1  H    0.279646
     2  C   -0.705058
     3  Cl  -0.107663
     4  H    0.266546
     5  H    0.266529
 Sum of Mulliken charges =  -0.00000

 Dipole moment (field-independent basis, Debye):
    X=             -2.8338    Y=             -0.0005    Z=              0.1551  Tot=              2.8380
 Quadrupole moment (field-independent basis, Debye-Ang):
   XX=            -18.5420   YY=            -20.1824   ZZ=            -20.3039
   XY=             -0.0009   XZ=              0.3956   YZ=             -0.0001

 Normal termination of Gaussian 16 at Fri Sep 22 17:21:34 2023.
