 Gaussian 16, Revision A.03,
 Gaussian 16:  ES64L-G16RevA.03 25-Dec-2016

 ----------
 # hf/3-21g
 ----------

 ------------------------
 tmpdir/M2_conf_230_0.gjf
 ------------------------
 Symbolic Z-matrix:
 Charge =  0 Multiplicity = 1

                         Standard orientation:
 ---------------------------------------------------------------------
 Center     Atomic      Atomic             Coordinates (Angstroms)
 Number     Number       Type             X           Y           Z
 ---------------------------------------------------------------------
      1          6           0        0.024315   -0.018512    0.000056
      2          1           0        0.802240    0.799009    0.002193
      3          1           0        0.051999   -0.614323    0.892729
      4          1           0        0.057078   -0.614005   -0.892647
      5          1           0       -1.057208    0.540391   -0.002612
 ---------------------------------------------------------------------

 SCF Done:  E(RHF) =  -39.9655046840     A.U. after    9 cycles

 The electronic state is 1-A.
 Alpha  occ. eigenvalues --  -11.16368  -0.93215  -0.55729  -0.54479  -0.50214
 Alpha virt. eigenvalues --    0.28069   0.31751   0.34684   0.35686   0.91805
 Alpha virt. eigenvalues --    0.94120   0.98103   1.24704   1.29413   1.34802
 Alpha virt. eigenvalues --    1.36803   1.94014

 Mulliken charges:
               1
     1  C   -0.762052
     2  H    0.191860
     3  H    0.208310
     4  H    0.208308
     5  H    0.153574
 Sum of Mulliken charges =   0.00000

 Dipole moment (field-independent basis, Debye):
    X=              0.0325    Y=             -0.0566    Z=              0.0001  Tot=              0.0653
 Quadrupole moment (field-independent basis, Debye-Ang):
   XX=             -8.6360   YY=             -8.4745   ZZ=             -8.4428
   XY=              0.1282   XZ=             -0.0012   YZ=              0.0003

 Normal termination of Gaussian 16 at Fri Sep 22 17:19:58 2023.
