 Gaussian 16, Revision A.03,
 Gaussian 16:  ES64L-G16RevA.03 25-Dec-2016

 ----------
 # hf/3-21g
 ----------

 ------------------------
 tmpdir/M2_conf_272_0.gjf
 ------------------------
 Symbolic Z-matrix:
 Charge =  0 Multiplicity = 1

                         Standard orientation:
 ---------------------------------------------------------------------
 Center     Atomic      Atomic             Coordinates (Angstroms)
 Number     Number       Type             X           Y           Z
 ---------------------------------------------------------------------
      1          6           0        0.016294   -0.025659    0.000056
      2          1           0        1.009442    0.556506    0.001573
      3          1           0       -0.121397   -0.605525    0.893040
      4          1           0       -0.117163   -0.607404   -0.892337
      5          1           0       -0.868643    0.810375   -0.002613
 ---------------------------------------------------------------------

 SCF Done:  E(RHF) =  -39.9639384050     A.U. after    9 cycles

 The electronic state is 1-A.
 Alpha  occ. eigenvalues --  -11.16629  -0.93016  -0.55770  -0.54030  -0.50170
 Alpha virt. eigenvalues --    0.27922   0.31481   0.34369   0.35685   0.91759
 Alpha virt. eigenvalues --    0.94789   0.98538   1.24431   1.28028   1.34410
 Alpha virt. eigenvalues --    1.36743   1.93764

 Mulliken charges:
               1
     1  C   -0.757962
     2  H    0.185517
     3  H    0.209009
     4  H    0.209007
     5  H    0.154430
 Sum of Mulliken charges =   0.00000

 Dipole moment (field-independent basis, Debye):
    X=             -0.0006    Y=             -0.0704    Z=              0.0001  Tot=              0.0704
 Quadrupole moment (field-independent basis, Debye-Ang):
   XX=             -8.5651   YY=             -8.5702   ZZ=             -8.4638
   XY=              0.1589   XZ=             -0.0011   YZ=              0.0006

 Normal termination of Gaussian 16 at Fri Sep 22 17:21:02 2023.
