 Gaussian 16, Revision A.03,
 Gaussian 16:  ES64L-G16RevA.03 25-Dec-2016

 ----------
 # hf/3-21g
 ----------

 ------------------------
 tmpdir/M2_conf_113_7.gjf
 ------------------------
 Symbolic Z-matrix:
 Charge =  0 Multiplicity = 1

                         Standard orientation:
 ---------------------------------------------------------------------
 Center     Atomic      Atomic             Coordinates (Angstroms)
 Number     Number       Type             X           Y           Z
 ---------------------------------------------------------------------
      1          1           0        0.438332   -0.212544    0.954506
      2          6           0        0.021180    0.018351   -0.007413
      3          1           0        0.660980   -0.450283   -0.731054
      4          1           0       -0.154505    1.069257   -0.137431
      5          1           0       -1.071886   -0.516535   -0.041544
 ---------------------------------------------------------------------

 SCF Done:  E(RHF) =  -39.9660073316     A.U. after    9 cycles

 The electronic state is 1-A.
 Alpha  occ. eigenvalues --  -11.15720  -0.93809  -0.56617  -0.54317  -0.50536
 Alpha virt. eigenvalues --    0.28263   0.32332   0.35181   0.36071   0.90878
 Alpha virt. eigenvalues --    0.92906   0.98034   1.24891   1.32723   1.35751
 Alpha virt. eigenvalues --    1.38056   1.94438

 Mulliken charges:
               1
     1  H    0.204925
     2  C   -0.771854
     3  H    0.206272
     4  H    0.207526
     5  H    0.153130
 Sum of Mulliken charges =   0.00000

 Dipole moment (field-independent basis, Debye):
    X=              0.0915    Y=              0.0154    Z=              0.0393  Tot=              0.1007
 Quadrupole moment (field-independent basis, Debye-Ang):
   XX=             -8.4549   YY=             -8.3682   ZZ=             -8.6107
   XY=             -0.1888   XZ=             -0.0228   YZ=             -0.0078

 Normal termination of Gaussian 16 at Fri Sep 22 17:16:56 2023.
