 Gaussian 16, Revision A.03,
 Gaussian 16:  ES64L-G16RevA.03 25-Dec-2016

 ----------
 # hf/3-21g
 ----------

 ------------------------
 tmpdir/M2_conf_231_9.gjf
 ------------------------
 Symbolic Z-matrix:
 Charge =  0 Multiplicity = 1

                         Standard orientation:
 ---------------------------------------------------------------------
 Center     Atomic      Atomic             Coordinates (Angstroms)
 Number     Number       Type             X           Y           Z
 ---------------------------------------------------------------------
      1          1           0        1.245262   -0.007368    1.067053
      2          6           0        1.203387    0.000044   -0.005704
      3         17           0       -0.688513    0.000063   -0.009816
      4          1           0        1.619664   -0.889503   -0.438851
      5          1           0        1.619463    0.895538   -0.427102
 ---------------------------------------------------------------------

 SCF Done:  E(RHF) =  -496.681101869     A.U. after   11 cycles

 The electronic state is 1-A.
 Alpha  occ. eigenvalues -- -104.08859 -11.24967 -10.48254  -7.94627  -7.94222
 Alpha  occ. eigenvalues --   -7.94219  -1.11503  -0.93278  -0.63580  -0.63177
 Alpha  occ. eigenvalues --   -0.51037  -0.43938  -0.43419
 Alpha virt. eigenvalues --    0.16103   0.27388   0.31388   0.31466   0.73930
 Alpha virt. eigenvalues --    0.79922   0.81055   0.85639   0.92439   0.95322
 Alpha virt. eigenvalues --    1.00394   1.30490   1.31171   1.32361   1.90746

 Mulliken charges:
               1
     1  H    0.278824
     2  C   -0.704757
     3  Cl  -0.107483
     4  H    0.266721
     5  H    0.266695
 Sum of Mulliken charges =  -0.00000

 Dipole moment (field-independent basis, Debye):
    X=              2.8392    Y=             -0.0010    Z=              0.1416  Tot=              2.8428
 Quadrupole moment (field-independent basis, Debye-Ang):
   XX=            -18.5456   YY=            -20.1833   ZZ=            -20.2836
   XY=              0.0021   XZ=             -0.3662   YZ=             -0.0001

 Normal termination of Gaussian 16 at Fri Sep 22 17:19:59 2023.
