 Gaussian 16, Revision A.03,
 Gaussian 16:  ES64L-G16RevA.03 25-Dec-2016

 ----------
 # hf/3-21g
 ----------

 -----------------------
 tmpdir/M2_conf_23_5.gjf
 -----------------------
 Symbolic Z-matrix:
 Charge =  0 Multiplicity = 1

                         Standard orientation:
 ---------------------------------------------------------------------
 Center     Atomic      Atomic             Coordinates (Angstroms)
 Number     Number       Type             X           Y           Z
 ---------------------------------------------------------------------
      1          1           0        1.026641    0.188280   -0.338183
      2          6           0        0.024292   -0.026789   -0.020018
      3          1           0       -0.708881   -0.398410   -0.710656
      4          1           0       -0.004868   -0.664915    0.842858
      5          1           0       -0.458645    1.035777    0.326086
 ---------------------------------------------------------------------

 SCF Done:  E(RHF) =  -39.9636963265     A.U. after    9 cycles

 The electronic state is 1-A.
 Alpha  occ. eigenvalues --  -11.15748  -0.93825  -0.57308  -0.54416  -0.49712
 Alpha virt. eigenvalues --    0.28326   0.31820   0.35134   0.36326   0.90760
 Alpha virt. eigenvalues --    0.94003   0.97359   1.25280   1.31756   1.35864
 Alpha virt. eigenvalues --    1.38685   1.94614

 Mulliken charges:
               1
     1  H    0.210260
     2  C   -0.775970
     3  H    0.210060
     4  H    0.206045
     5  H    0.149605
 Sum of Mulliken charges =   0.00000

 Dipole moment (field-independent basis, Debye):
    X=             -0.0188    Y=             -0.0675    Z=              0.0140  Tot=              0.0715
 Quadrupole moment (field-independent basis, Debye-Ang):
   XX=             -8.1660   YY=             -8.6124   ZZ=             -8.6782
   XY=              0.1804   XZ=              0.0469   YZ=             -0.1218

 Normal termination of Gaussian 16 at Fri Sep 22 17:14:42 2023.
