 Gaussian 16, Revision A.03,
 Gaussian 16:  ES64L-G16RevA.03 25-Dec-2016

 ----------
 # hf/3-21g
 ----------

 ------------------------
 tmpdir/M2_conf_251_9.gjf
 ------------------------
 Symbolic Z-matrix:
 Charge =  0 Multiplicity = 1

                         Standard orientation:
 ---------------------------------------------------------------------
 Center     Atomic      Atomic             Coordinates (Angstroms)
 Number     Number       Type             X           Y           Z
 ---------------------------------------------------------------------
      1          1           0        1.322786   -0.014478    1.062949
      2          6           0        1.202863    0.000059   -0.003833
      3         17           0       -0.689033    0.000090   -0.007025
      4          1           0        1.586926   -0.886160   -0.472137
      5          1           0        1.586679    0.898762   -0.448381
 ---------------------------------------------------------------------

 SCF Done:  E(RHF) =  -496.685432336     A.U. after   11 cycles

 The electronic state is 1-A.
 Alpha  occ. eigenvalues -- -104.08813 -11.24987 -10.48204  -7.94578  -7.94174
 Alpha  occ. eigenvalues --   -7.94172  -1.11385  -0.93308  -0.63429  -0.63195
 Alpha  occ. eigenvalues --   -0.51175  -0.43858  -0.43549
 Alpha virt. eigenvalues --    0.16353   0.27352   0.31373   0.31433   0.73878
 Alpha virt. eigenvalues --    0.80146   0.81037   0.85623   0.92603   0.94848
 Alpha virt. eigenvalues --    1.00008   1.30822   1.31181   1.32349   1.91393

 Mulliken charges:
               1
     1  H    0.276191
     2  C   -0.703840
     3  Cl  -0.107125
     4  H    0.267399
     5  H    0.267375
 Sum of Mulliken charges =   0.00000

 Dipole moment (field-independent basis, Debye):
    X=              2.8535    Y=             -0.0014    Z=              0.0981  Tot=              2.8552
 Quadrupole moment (field-independent basis, Debye-Ang):
   XX=            -18.5571   YY=            -20.1832   ZZ=            -20.2301
   XY=              0.0031   XZ=             -0.2623   YZ=             -0.0001

 Normal termination of Gaussian 16 at Fri Sep 22 17:20:30 2023.
