 Gaussian 16, Revision A.03,
 Gaussian 16:  ES64L-G16RevA.03 25-Dec-2016

 ----------
 # hf/3-21g
 ----------

 ------------------------
 tmpdir/M2_conf_172_7.gjf
 ------------------------
 Symbolic Z-matrix:
 Charge =  0 Multiplicity = 1

                         Standard orientation:
 ---------------------------------------------------------------------
 Center     Atomic      Atomic             Coordinates (Angstroms)
 Number     Number       Type             X           Y           Z
 ---------------------------------------------------------------------
      1          1           0       -0.344668    0.970457   -0.348770
      2          6           0       -0.033177    0.001488   -0.007172
      3          1           0       -0.180937   -0.797581   -0.708796
      4          1           0       -0.447592   -0.249155    0.950749
      5          1           0        1.172256    0.067349    0.149850
 ---------------------------------------------------------------------

 SCF Done:  E(RHF) =  -39.9665162866     A.U. after    9 cycles

 The electronic state is 1-A.
 Alpha  occ. eigenvalues --  -11.15731  -0.93780  -0.56152  -0.55254  -0.50131
 Alpha virt. eigenvalues --    0.28328   0.32146   0.35520   0.35884   0.91529
 Alpha virt. eigenvalues --    0.92468   0.97528   1.25138   1.32269   1.36573
 Alpha virt. eigenvalues --    1.37448   1.94668

 Mulliken charges:
               1
     1  H    0.207299
     2  C   -0.771357
     3  H    0.207045
     4  H    0.206255
     5  H    0.150759
 Sum of Mulliken charges =   0.00000

 Dipole moment (field-independent basis, Debye):
    X=             -0.0634    Y=             -0.0173    Z=              0.0012  Tot=              0.0658
 Quadrupole moment (field-independent basis, Debye-Ang):
   XX=             -8.6690   YY=             -8.3058   ZZ=             -8.4671
   XY=             -0.0321   XZ=             -0.0613   YZ=             -0.0051

 Normal termination of Gaussian 16 at Fri Sep 22 17:18:25 2023.
