 Gaussian 16, Revision A.03,
 Gaussian 16:  ES64L-G16RevA.03 25-Dec-2016

 ----------
 # hf/3-21g
 ----------

 ------------------------
 tmpdir/M2_conf_146_0.gjf
 ------------------------
 Symbolic Z-matrix:
 Charge =  0 Multiplicity = 1

                         Standard orientation:
 ---------------------------------------------------------------------
 Center     Atomic      Atomic             Coordinates (Angstroms)
 Number     Number       Type             X           Y           Z
 ---------------------------------------------------------------------
      1          6           0        0.002993   -0.030524    0.000057
      2          1           0        1.173895    0.251554    0.000963
      3          1           0       -0.296264   -0.545407    0.893345
      4          1           0       -0.293667   -0.548957   -0.892033
      5          1           0       -0.601922    1.025953   -0.002615
 ---------------------------------------------------------------------

 SCF Done:  E(RHF) =  -39.9585698994     A.U. after    9 cycles

 The electronic state is 1-A.
 Alpha  occ. eigenvalues --  -11.17230  -0.92615  -0.55875  -0.53086  -0.49973
 Alpha virt. eigenvalues --    0.27414   0.30753   0.33854   0.35682   0.91659
 Alpha virt. eigenvalues --    0.95618   1.00230   1.22920   1.25894   1.33805
 Alpha virt. eigenvalues --    1.36593   1.93159

 Mulliken charges:
               1
     1  C   -0.747253
     2  H    0.170039
     3  H    0.210463
     4  H    0.210462
     5  H    0.156288
 Sum of Mulliken charges =  -0.00000

 Dipole moment (field-independent basis, Debye):
    X=             -0.0659    Y=             -0.0730    Z=              0.0001  Tot=              0.0983
 Quadrupole moment (field-independent basis, Debye-Ang):
   XX=             -8.4909   YY=             -8.7002   ZZ=             -8.5112
   XY=              0.1408   XZ=             -0.0009   YZ=              0.0009

 Normal termination of Gaussian 16 at Fri Sep 22 17:17:46 2023.
