 Gaussian 16, Revision A.03,
 Gaussian 16:  ES64L-G16RevA.03 25-Dec-2016

 ----------
 # hf/3-21g
 ----------

 ------------------------
 tmpdir/M2_conf_228_8.gjf
 ------------------------
 Symbolic Z-matrix:
 Charge =  0 Multiplicity = 1

                         Standard orientation:
 ---------------------------------------------------------------------
 Center     Atomic      Atomic             Coordinates (Angstroms)
 Number     Number       Type             X           Y           Z
 ---------------------------------------------------------------------
      1          1           0       -0.644763   -0.000119    0.875490
      2          6           0       -1.213903   -0.000015   -0.034838
      3         17           0        0.677946    0.000012   -0.021090
      4          1           0       -1.798281   -0.892469   -0.154028
      5          1           0       -1.798618    0.892481   -0.153908
 ---------------------------------------------------------------------

 SCF Done:  E(RHF) =  -496.566312420     A.U. after   12 cycles

 The electronic state is 1-A.
 Alpha  occ. eigenvalues -- -104.10596 -11.23425 -10.50334  -7.96687  -7.96237
 Alpha  occ. eigenvalues --   -7.96186  -1.15971  -0.92310  -0.66273  -0.62574
 Alpha  occ. eigenvalues --   -0.51020  -0.45989  -0.39198
 Alpha virt. eigenvalues --    0.12117   0.29707   0.32222   0.32296   0.73973
 Alpha virt. eigenvalues --    0.77708   0.80075   0.84513   0.93485   0.98191
 Alpha virt. eigenvalues --    1.03402   1.23125   1.31132   1.31884   1.81671

 Mulliken charges:
               1
     1  H    0.295200
     2  C   -0.727974
     3  Cl  -0.105745
     4  H    0.269279
     5  H    0.269240
 Sum of Mulliken charges =  -0.00000

 Dipole moment (field-independent basis, Debye):
    X=             -2.2323    Y=             -0.0002    Z=              0.5517  Tot=              2.2995
 Quadrupole moment (field-independent basis, Debye-Ang):
   XX=            -18.6874   YY=            -20.0889   ZZ=            -21.2994
   XY=             -0.0003   XZ=              0.6585   YZ=              0.0000

 Normal termination of Gaussian 16 at Fri Sep 22 17:19:55 2023.
