 Gaussian 16, Revision A.03,
 Gaussian 16:  ES64L-G16RevA.03 25-Dec-2016

 ----------
 # hf/3-21g
 ----------

 -----------------------
 tmpdir/M2_conf_86_1.gjf
 -----------------------
 Symbolic Z-matrix:
 Charge =  0 Multiplicity = 1

                         Standard orientation:
 ---------------------------------------------------------------------
 Center     Atomic      Atomic             Coordinates (Angstroms)
 Number     Number       Type             X           Y           Z
 ---------------------------------------------------------------------
      1          6           0       -0.003851   -0.030373    0.000059
      2          1           0       -1.166437    0.264095   -0.001178
      3          1           0        0.287666   -0.548658    0.893692
      4          1           0        0.288881   -0.552376   -0.891247
      5          1           0        0.612993    1.019178   -0.001620
 ---------------------------------------------------------------------

 SCF Done:  E(RHF) =  -39.9591705646     A.U. after    9 cycles

 The electronic state is 1-A.
 Alpha  occ. eigenvalues --  -11.17171  -0.92652  -0.55863  -0.53176  -0.49997
 Alpha virt. eigenvalues --    0.27477   0.30822   0.33898   0.35683   0.91656
 Alpha virt. eigenvalues --    0.95579   1.00036   1.23131   1.26009   1.33870
 Alpha virt. eigenvalues --    1.36613   1.93223

 Mulliken charges:
               1
     1  C   -0.748377
     2  H    0.171562
     3  H    0.210378
     4  H    0.210323
     5  H    0.156113
 Sum of Mulliken charges =   0.00000

 Dipole moment (field-independent basis, Debye):
    X=              0.0606    Y=             -0.0731    Z=              0.0003  Tot=              0.0949
 Quadrupole moment (field-independent basis, Debye-Ang):
   XX=             -8.4928   YY=             -8.6920   ZZ=             -8.5075
   XY=             -0.1431   XZ=              0.0001   YZ=              0.0005

 Normal termination of Gaussian 16 at Fri Sep 22 17:16:16 2023.
