 Gaussian 16, Revision A.03,
 Gaussian 16:  ES64L-G16RevA.03 25-Dec-2016

 ----------
 # hf/3-21g
 ----------

 ------------------------
 tmpdir/M2_conf_144_5.gjf
 ------------------------
 Symbolic Z-matrix:
 Charge =  0 Multiplicity = 1

                         Standard orientation:
 ---------------------------------------------------------------------
 Center     Atomic      Atomic             Coordinates (Angstroms)
 Number     Number       Type             X           Y           Z
 ---------------------------------------------------------------------
      1          1           0       -0.442516   -0.206122    0.953450
      2          6           0       -0.020733    0.018733   -0.007657
      3          1           0       -0.668036   -0.442091   -0.729631
      4          1           0        0.170174    1.067219   -0.137432
      5          1           0        1.064778   -0.531405   -0.040447
 ---------------------------------------------------------------------

 SCF Done:  E(RHF) =  -39.9659314216     A.U. after    9 cycles

 The electronic state is 1-A.
 Alpha  occ. eigenvalues --  -11.15720  -0.93812  -0.56644  -0.54280  -0.50541
 Alpha virt. eigenvalues --    0.28261   0.32332   0.35169   0.36079   0.90845
 Alpha virt. eigenvalues --    0.92946   0.98049   1.24886   1.32717   1.35730
 Alpha virt. eigenvalues --    1.38089   1.94426

 Mulliken charges:
               1
     1  H    0.204951
     2  C   -0.771945
     3  H    0.206294
     4  H    0.207517
     5  H    0.153184
 Sum of Mulliken charges =  -0.00000

 Dipole moment (field-independent basis, Debye):
    X=             -0.0922    Y=              0.0161    Z=              0.0404  Tot=              0.1019
 Quadrupole moment (field-independent basis, Debye-Ang):
   XX=             -8.4448   YY=             -8.3716   ZZ=             -8.6175
   XY=              0.1929   XZ=              0.0222   YZ=             -0.0080

 Normal termination of Gaussian 16 at Fri Sep 22 17:17:42 2023.
