 Gaussian 16, Revision A.03,
 Gaussian 16:  ES64L-G16RevA.03 25-Dec-2016

 ----------
 # hf/3-21g
 ----------

 -----------------------
 tmpdir/M2_conf_34_5.gjf
 -----------------------
 Symbolic Z-matrix:
 Charge =  0 Multiplicity = 1

                         Standard orientation:
 ---------------------------------------------------------------------
 Center     Atomic      Atomic             Coordinates (Angstroms)
 Number     Number       Type             X           Y           Z
 ---------------------------------------------------------------------
      1          1           0       -0.522270   -0.102452    0.912721
      2          6           0       -0.004512    0.026706   -0.018640
      3          1           0       -0.813767   -0.228155   -0.676493
      4          1           0        0.483521    0.980404   -0.088587
      5          1           0        0.879589   -0.810033   -0.035804
 ---------------------------------------------------------------------

 SCF Done:  E(RHF) =  -39.9605152570     A.U. after    9 cycles

 The electronic state is 1-A.
 Alpha  occ. eigenvalues --  -11.15728  -0.93955  -0.57910  -0.52520  -0.50765
 Alpha virt. eigenvalues --    0.28118   0.32305   0.34523   0.36431   0.90093
 Alpha virt. eigenvalues --    0.94070   0.98922   1.24653   1.32366   1.34639
 Alpha virt. eigenvalues --    1.39836   1.93666

 Mulliken charges:
               1
     1  H    0.203453
     2  C   -0.777510
     3  H    0.208005
     4  H    0.209973
     5  H    0.156080
 Sum of Mulliken charges =   0.00000

 Dipole moment (field-independent basis, Debye):
    X=             -0.1323    Y=              0.0300    Z=              0.0953  Tot=              0.1658
 Quadrupole moment (field-independent basis, Debye-Ang):
   XX=             -8.0934   YY=             -8.4423   ZZ=             -8.9087
   XY=              0.2379   XZ=              0.0239   YZ=             -0.0145

 Normal termination of Gaussian 16 at Fri Sep 22 17:14:58 2023.
