 Gaussian 16, Revision A.03,
 Gaussian 16:  ES64L-G16RevA.03 25-Dec-2016

 ----------
 # hf/3-21g
 ----------

 ----------------------
 tmpdir/M2_conf_0_3.gjf
 ----------------------
 Symbolic Z-matrix:
 Charge =  0 Multiplicity = 1

                         Standard orientation:
 ---------------------------------------------------------------------
 Center     Atomic      Atomic             Coordinates (Angstroms)
 Number     Number       Type             X           Y           Z
 ---------------------------------------------------------------------
      1          6           0       -1.360587    0.000017    0.000010
      2         17           0        0.773313   -0.000013   -0.000003
      3          1           0       -1.660955   -0.278186    0.992268
      4          1           0       -1.660635    0.998728   -0.255258
      5          1           0       -1.661202   -0.720425   -0.737021
 ---------------------------------------------------------------------

 SCF Done:  E(RHF) =  -496.675029661     A.U. after   10 cycles

 The electronic state is 1-A.
 Alpha  occ. eigenvalues -- -104.08423 -11.27562 -10.47324  -7.93663  -7.93351
 Alpha  occ. eigenvalues --   -7.93351  -1.06465  -0.95560  -0.63460  -0.63455
 Alpha  occ. eigenvalues --   -0.47251  -0.43103  -0.43103
 Alpha virt. eigenvalues --    0.09258   0.26381   0.30944   0.30948   0.73439
 Alpha virt. eigenvalues --    0.79548   0.79553   0.86382   0.93652   0.93662
 Alpha virt. eigenvalues --    1.03231   1.29530   1.29944   1.29954   1.84988

 Mulliken charges:
               1
     1  C   -0.565938
     2  Cl  -0.243878
     3  H    0.269958
     4  H    0.269945
     5  H    0.269913
 Sum of Mulliken charges =  -0.00000

 Dipole moment (field-independent basis, Debye):
    X=             -3.7709    Y=              0.0001    Z=              0.0001  Tot=              3.7709
 Quadrupole moment (field-independent basis, Debye-Ang):
   XX=            -16.9679   YY=            -20.3397   ZZ=            -20.3411
   XY=              0.0006   XZ=             -0.0001   YZ=             -0.0001

 Normal termination of Gaussian 16 at Fri Sep 22 17:14:07 2023.
