 Gaussian 16, Revision A.03,
 Gaussian 16:  ES64L-G16RevA.03 25-Dec-2016

 ----------
 # hf/3-21g
 ----------

 ----------------------
 tmpdir/M2_conf_9_8.gjf
 ----------------------
 Symbolic Z-matrix:
 Charge =  0 Multiplicity = 1

                         Standard orientation:
 ---------------------------------------------------------------------
 Center     Atomic      Atomic             Coordinates (Angstroms)
 Number     Number       Type             X           Y           Z
 ---------------------------------------------------------------------
      1          1           0       -1.512402    0.970355   -0.339653
      2          6           0       -1.202362    0.000215   -0.000065
      3         17           0        0.689536    0.000370   -0.000134
      4          1           0       -1.497698   -0.193968    1.013467
      5          1           0       -1.497840   -0.783975   -0.671151
 ---------------------------------------------------------------------

 SCF Done:  E(RHF) =  -496.689471757     A.U. after   10 cycles

 The electronic state is 1-A.
 Alpha  occ. eigenvalues -- -104.08772 -11.25001 -10.48162  -7.94536  -7.94132
 Alpha  occ. eigenvalues --   -7.94132  -1.11280  -0.93337  -0.63247  -0.63244
 Alpha  occ. eigenvalues --   -0.51323  -0.43732  -0.43721
 Alpha virt. eigenvalues --    0.16605   0.27332   0.31376   0.31381   0.73825
 Alpha virt. eigenvalues --    0.80653   0.80712   0.85498   0.93589   0.93735
 Alpha virt. eigenvalues --    0.99527   1.31221   1.31233   1.32197   1.92007

 Mulliken charges:
               1
     1  H    0.269543
     2  C   -0.702618
     3  Cl  -0.107061
     4  H    0.270092
     5  H    0.270044
 Sum of Mulliken charges =  -0.00000

 Dipole moment (field-independent basis, Debye):
    X=             -2.8663    Y=             -0.0050    Z=              0.0019  Tot=              2.8663
 Quadrupole moment (field-independent basis, Debye-Ang):
   XX=            -18.5704   YY=            -20.1800   ZZ=            -20.1809
   XY=             -0.0137   XZ=              0.0047   YZ=              0.0000

 Normal termination of Gaussian 16 at Fri Sep 22 17:14:21 2023.
