 Gaussian 16, Revision A.03,
 Gaussian 16:  ES64L-G16RevA.03 25-Dec-2016

 ----------
 # hf/3-21g
 ----------

 ------------------------
 tmpdir/M2_conf_125_5.gjf
 ------------------------
 Symbolic Z-matrix:
 Charge =  0 Multiplicity = 1

                         Standard orientation:
 ---------------------------------------------------------------------
 Center     Atomic      Atomic             Coordinates (Angstroms)
 Number     Number       Type             X           Y           Z
 ---------------------------------------------------------------------
      1          1           0       -0.417552   -0.239063    0.959991
      2          6           0       -0.024053    0.015381   -0.005723
      3          1           0       -0.609580   -0.505436   -0.739570
      4          1           0        0.060555    1.076080   -0.148441
      5          1           0        1.110895   -0.423863   -0.037643
 ---------------------------------------------------------------------

 SCF Done:  E(RHF) =  -39.9664295411     A.U. after    9 cycles

 The electronic state is 1-A.
 Alpha  occ. eigenvalues --  -11.15720  -0.93798  -0.56412  -0.54596  -0.50488
 Alpha virt. eigenvalues --    0.28278   0.32321   0.35289   0.35996   0.91051
 Alpha virt. eigenvalues --    0.92713   0.97934   1.24928   1.32688   1.35992
 Alpha virt. eigenvalues --    1.37802   1.94503

 Mulliken charges:
               1
     1  H    0.205239
     2  C   -0.771329
     3  H    0.206163
     4  H    0.207200
     5  H    0.152727
 Sum of Mulliken charges =   0.00000

 Dipole moment (field-independent basis, Debye):
    X=             -0.0868    Y=              0.0115    Z=              0.0311  Tot=              0.0929
 Quadrupole moment (field-independent basis, Debye-Ang):
   XX=             -8.5142   YY=             -8.3546   ZZ=             -8.5650
   XY=              0.1611   XZ=              0.0204   YZ=             -0.0055

 Normal termination of Gaussian 16 at Fri Sep 22 17:17:14 2023.
