 Gaussian 16, Revision A.03,
 Gaussian 16:  ES64L-G16RevA.03 25-Dec-2016

 ----------
 # hf/3-21g
 ----------

 ------------------------
 tmpdir/M2_conf_164_2.gjf
 ------------------------
 Symbolic Z-matrix:
 Charge =  0 Multiplicity = 1

                         Standard orientation:
 ---------------------------------------------------------------------
 Center     Atomic      Atomic             Coordinates (Angstroms)
 Number     Number       Type             X           Y           Z
 ---------------------------------------------------------------------
      1          6           0        0.032248    0.000014    0.010164
      2          1           0        0.182895   -0.004123    1.012801
      3          1           0        0.401060   -0.889582   -0.463962
      4          1           0        0.396685    0.895558   -0.456536
      5          1           0       -1.174127   -0.001936   -0.153284
 ---------------------------------------------------------------------

 SCF Done:  E(RHF) =  -39.9635638885     A.U. after    9 cycles

 The electronic state is 1-A.
 Alpha  occ. eigenvalues --  -11.15029  -0.94520  -0.56945  -0.55554  -0.50287
 Alpha virt. eigenvalues --    0.28483   0.32520   0.35685   0.37007   0.89205
 Alpha virt. eigenvalues --    0.92058   0.97548   1.25305   1.33837   1.37065
 Alpha virt. eigenvalues --    1.42216   1.95497

 Mulliken charges:
               1
     1  C   -0.777832
     2  H    0.220818
     3  H    0.204151
     4  H    0.204105
     5  H    0.148757
 Sum of Mulliken charges =  -0.00000

 Dipole moment (field-independent basis, Debye):
    X=              0.0812    Y=             -0.0001    Z=              0.0432  Tot=              0.0919
 Quadrupole moment (field-independent basis, Debye-Ang):
   XX=             -8.5940   YY=             -8.3305   ZZ=             -8.3811
   XY=             -0.0011   XZ=             -0.0378   YZ=             -0.0005

 Normal termination of Gaussian 16 at Fri Sep 22 17:18:13 2023.
