 Gaussian 16, Revision A.03,
 Gaussian 16:  ES64L-G16RevA.03 25-Dec-2016

 ----------
 # hf/3-21g
 ----------

 ------------------------
 tmpdir/M2_conf_166_7.gjf
 ------------------------
 Symbolic Z-matrix:
 Charge =  0 Multiplicity = 1

                         Standard orientation:
 ---------------------------------------------------------------------
 Center     Atomic      Atomic             Coordinates (Angstroms)
 Number     Number       Type             X           Y           Z
 ---------------------------------------------------------------------
      1          1           0       -1.065864    0.018511   -0.301558
      2          6           0       -0.028006   -0.029760   -0.031116
      3          1           0        0.813923   -0.190788   -0.677518
      4          1           0        0.156261   -0.721160    0.769001
      5          1           0        0.263717    1.071998    0.396770
 ---------------------------------------------------------------------

 SCF Done:  E(RHF) =  -39.9575571029     A.U. after    9 cycles

 The electronic state is 1-A.
 Alpha  occ. eigenvalues --  -11.15776  -0.93936  -0.58512  -0.53636  -0.49033
 Alpha virt. eigenvalues --    0.28280   0.31191   0.34792   0.36769   0.90144
 Alpha virt. eigenvalues --    0.96208   0.97280   1.25344   1.31124   1.35344
 Alpha virt. eigenvalues --    1.40141   1.94452

 Mulliken charges:
               1
     1  H    0.215287
     2  C   -0.786591
     3  H    0.216298
     4  H    0.206368
     5  H    0.148638
 Sum of Mulliken charges =  -0.00000

 Dipole moment (field-independent basis, Debye):
    X=              0.0657    Y=             -0.0641    Z=              0.0353  Tot=              0.0983
 Quadrupole moment (field-independent basis, Debye-Ang):
   XX=             -7.8932   YY=             -8.6699   ZZ=             -8.9171
   XY=             -0.1044   XZ=             -0.0262   YZ=             -0.1554

 Normal termination of Gaussian 16 at Fri Sep 22 17:18:16 2023.
