 Gaussian 16, Revision A.03,
 Gaussian 16:  ES64L-G16RevA.03 25-Dec-2016

 ----------
 # hf/3-21g
 ----------

 ----------------------
 tmpdir/M2_conf_7_1.gjf
 ----------------------
 Symbolic Z-matrix:
 Charge =  0 Multiplicity = 1

                         Standard orientation:
 ---------------------------------------------------------------------
 Center     Atomic      Atomic             Coordinates (Angstroms)
 Number     Number       Type             X           Y           Z
 ---------------------------------------------------------------------
      1          6           0       -0.009842   -0.028768    0.000059
      2          1           0       -1.105687    0.387094   -0.001492
      3          1           0        0.220261   -0.576833    0.893848
      4          1           0        0.221477   -0.580991   -0.891090
      5          1           0        0.723002    0.943338   -0.001619
 ---------------------------------------------------------------------

 SCF Done:  E(RHF) =  -39.9620853108     A.U. after    9 cycles

 The electronic state is 1-A.
 Alpha  occ. eigenvalues --  -11.16865  -0.92851  -0.55808  -0.53645  -0.50109
 Alpha virt. eigenvalues --    0.27755   0.31201   0.34138   0.35685   0.91706
 Alpha virt. eigenvalues --    0.95232   0.99103   1.24023   1.26946   1.34155
 Alpha virt. eigenvalues --    1.36690   1.93534

 Mulliken charges:
               1
     1  C   -0.753969
     2  H    0.179537
     3  H    0.209655
     4  H    0.209599
     5  H    0.155178
 Sum of Mulliken charges =  -0.00000

 Dipole moment (field-independent basis, Debye):
    X=              0.0291    Y=             -0.0736    Z=              0.0003  Tot=              0.0791
 Quadrupole moment (field-independent basis, Debye-Ang):
   XX=             -8.5196   YY=             -8.6368   ZZ=             -8.4835
   XY=             -0.1553   XZ=              0.0002   YZ=              0.0005

 Normal termination of Gaussian 16 at Fri Sep 22 17:14:18 2023.
