 Gaussian 16, Revision A.03,
 Gaussian 16:  ES64L-G16RevA.03 25-Dec-2016

 ----------
 # hf/3-21g
 ----------

 -----------------------
 tmpdir/M2_conf_87_8.gjf
 -----------------------
 Symbolic Z-matrix:
 Charge =  0 Multiplicity = 1

                         Standard orientation:
 ---------------------------------------------------------------------
 Center     Atomic      Atomic             Coordinates (Angstroms)
 Number     Number       Type             X           Y           Z
 ---------------------------------------------------------------------
      1          1           0       -1.591648   -0.031459    1.001998
      2          6           0       -1.202493   -0.000068    0.001903
      3         17           0        0.689404   -0.000111    0.003629
      4          1           0       -1.456577   -0.875165   -0.565394
      5          1           0       -1.456693    0.908917   -0.509709
 ---------------------------------------------------------------------

 SCF Done:  E(RHF) =  -496.688481245     A.U. after   11 cycles

 The electronic state is 1-A.
 Alpha  occ. eigenvalues -- -104.08781 -11.24999 -10.48170  -7.94545  -7.94141
 Alpha  occ. eigenvalues --   -7.94141  -1.11304  -0.93329  -0.63280  -0.63245
 Alpha  occ. eigenvalues --   -0.51282  -0.43762  -0.43679
 Alpha virt. eigenvalues --    0.16536   0.27331   0.31364   0.31408   0.73838
 Alpha virt. eigenvalues --    0.80381   0.80963   0.85553   0.93025   0.94240
 Alpha virt. eigenvalues --    0.99709   1.31036   1.31265   1.32295   1.91868

 Mulliken charges:
               1
     1  H    0.266879
     2  C   -0.703115
     3  Cl  -0.106946
     4  H    0.271615
     5  H    0.271567
 Sum of Mulliken charges =  -0.00000

 Dipole moment (field-independent basis, Debye):
    X=             -2.8634    Y=              0.0014    Z=             -0.0469  Tot=              2.8638
 Quadrupole moment (field-independent basis, Debye-Ang):
   XX=            -18.5666   YY=            -20.1791   ZZ=            -20.1950
   XY=              0.0043   XZ=             -0.1357   YZ=              0.0002

 Normal termination of Gaussian 16 at Fri Sep 22 17:16:17 2023.
