 Gaussian 16, Revision A.03,
 Gaussian 16:  ES64L-G16RevA.03 25-Dec-2016

 ----------
 # hf/3-21g
 ----------

 ------------------------
 tmpdir/M2_conf_187_8.gjf
 ------------------------
 Symbolic Z-matrix:
 Charge =  0 Multiplicity = 1

                         Standard orientation:
 ---------------------------------------------------------------------
 Center     Atomic      Atomic             Coordinates (Angstroms)
 Number     Number       Type             X           Y           Z
 ---------------------------------------------------------------------
      1          1           0       -0.904234   -0.000450    1.011874
      2          6           0       -1.207841   -0.000010   -0.017902
      3         17           0        0.684061    0.000016   -0.019119
      4          1           0       -1.738732   -0.892359   -0.290013
      5          1           0       -1.739028    0.892591   -0.289423
 ---------------------------------------------------------------------

 SCF Done:  E(RHF) =  -496.638682943     A.U. after   11 cycles

 The electronic state is 1-A.
 Alpha  occ. eigenvalues -- -104.09400 -11.24610 -10.48873  -7.95235  -7.94821
 Alpha  occ. eigenvalues --   -7.94803  -1.12865  -0.92966  -0.64743  -0.63038
 Alpha  occ. eigenvalues --   -0.50420  -0.44627  -0.42068
 Alpha virt. eigenvalues --    0.14199   0.28038   0.31595   0.31710   0.74181
 Alpha virt. eigenvalues --    0.78865   0.80583   0.84753   0.93867   0.97124
 Alpha virt. eigenvalues --    1.02252   1.28074   1.31286   1.31713   1.85739

 Mulliken charges:
               1
     1  H    0.289392
     2  C   -0.709939
     3  Cl  -0.112729
     4  H    0.266660
     5  H    0.266616
 Sum of Mulliken charges =  -0.00000

 Dipole moment (field-independent basis, Debye):
    X=             -2.6689    Y=             -0.0003    Z=              0.3464  Tot=              2.6913
 Quadrupole moment (field-independent basis, Debye-Ang):
   XX=            -18.5177   YY=            -20.1662   ZZ=            -20.7359
   XY=             -0.0005   XZ=              0.6983   YZ=              0.0000

 Normal termination of Gaussian 16 at Fri Sep 22 17:18:53 2023.
