 Gaussian 16, Revision A.03,
 Gaussian 16:  ES64L-G16RevA.03 25-Dec-2016

 ----------
 # hf/3-21g
 ----------

 ------------------------
 tmpdir/M2_conf_219_3.gjf
 ------------------------
 Symbolic Z-matrix:
 Charge =  0 Multiplicity = 1

                         Standard orientation:
 ---------------------------------------------------------------------
 Center     Atomic      Atomic             Coordinates (Angstroms)
 Number     Number       Type             X           Y           Z
 ---------------------------------------------------------------------
      1          6           0       -2.032349    0.000009    0.000008
      2         17           0        1.128951   -0.000009   -0.000002
      3          1           0       -2.332717   -0.278194    0.992266
      4          1           0       -2.332404    0.998718   -0.255262
      5          1           0       -2.332955   -0.720436   -0.737023
 ---------------------------------------------------------------------

 SCF Done:  E(RHF) =  -496.549340248     A.U. after   10 cycles

 The electronic state is 1-A.
 Alpha  occ. eigenvalues -- -104.02340 -11.35979 -10.41018  -7.87336  -7.87133
 Alpha  occ. eigenvalues --   -7.87133  -1.04234  -0.95654  -0.69347  -0.69342
 Alpha  occ. eigenvalues --   -0.37523  -0.37523  -0.35097
 Alpha virt. eigenvalues --   -0.06717   0.21831   0.26581   0.26584   0.72316
 Alpha virt. eigenvalues --    0.79369   0.79379   0.84675   0.89865   0.89868
 Alpha virt. eigenvalues --    0.98348   1.16820   1.23664   1.23673   1.67710

 Mulliken charges:
               1
     1  C   -0.352373
     2  Cl  -0.538746
     3  H    0.297045
     4  H    0.297052
     5  H    0.297022
 Sum of Mulliken charges =  -0.00000

 Dipole moment (field-independent basis, Debye):
    X=             -8.5300    Y=              0.0001    Z=              0.0001  Tot=              8.5300
 Quadrupole moment (field-independent basis, Debye-Ang):
   XX=             -9.5363   YY=            -20.4052   ZZ=            -20.4068
   XY=              0.0002   XZ=             -0.0000   YZ=             -0.0001

 Normal termination of Gaussian 16 at Fri Sep 22 17:19:41 2023.
