 Gaussian 16, Revision A.03,
 Gaussian 16:  ES64L-G16RevA.03 25-Dec-2016

 ----------
 # hf/3-21g
 ----------

 ------------------------
 tmpdir/M2_conf_120_5.gjf
 ------------------------
 Symbolic Z-matrix:
 Charge =  0 Multiplicity = 1

                         Standard orientation:
 ---------------------------------------------------------------------
 Center     Atomic      Atomic             Coordinates (Angstroms)
 Number     Number       Type             X           Y           Z
 ---------------------------------------------------------------------
      1          1           0       -0.405099   -0.254291    0.962733
      2          6           0       -0.025449    0.013621   -0.004882
      3          1           0       -0.578734   -0.534214   -0.744054
      4          1           0        0.006872    1.076359   -0.153717
      5          1           0        1.129657   -0.369580   -0.035672
 ---------------------------------------------------------------------

 SCF Done:  E(RHF) =  -39.9666008503     A.U. after    9 cycles

 The electronic state is 1-A.
 Alpha  occ. eigenvalues --  -11.15720  -0.93792  -0.56308  -0.54735  -0.50462
 Alpha virt. eigenvalues --    0.28285   0.32314   0.35342   0.35958   0.91150
 Alpha virt. eigenvalues --    0.92609   0.97888   1.24946   1.32668   1.36112
 Alpha virt. eigenvalues --    1.37678   1.94532

 Mulliken charges:
               1
     1  H    0.205376
     2  C   -0.771111
     3  H    0.206133
     4  H    0.207072
     5  H    0.152531
 Sum of Mulliken charges =  -0.00000

 Dipole moment (field-independent basis, Debye):
    X=             -0.0845    Y=              0.0094    Z=              0.0270  Tot=              0.0892
 Quadrupole moment (field-independent basis, Debye-Ang):
   XX=             -8.5429   YY=             -8.3493   ZZ=             -8.5418
   XY=              0.1431   XZ=              0.0192   YZ=             -0.0044

 Normal termination of Gaussian 16 at Fri Sep 22 17:17:06 2023.
