 Gaussian 16, Revision A.03,
 Gaussian 16:  ES64L-G16RevA.03 25-Dec-2016

 ----------
 # hf/3-21g
 ----------

 ------------------------
 tmpdir/M2_conf_236_1.gjf
 ------------------------
 Symbolic Z-matrix:
 Charge =  0 Multiplicity = 1

                         Standard orientation:
 ---------------------------------------------------------------------
 Center     Atomic      Atomic             Coordinates (Angstroms)
 Number     Number       Type             X           Y           Z
 ---------------------------------------------------------------------
      1          6           0       -0.024285   -0.018569    0.000059
      2          1           0       -0.803585    0.797916   -0.002631
      3          1           0       -0.053559   -0.611406    0.894413
      4          1           0       -0.053342   -0.617426   -0.890521
      5          1           0        1.056199    0.542329   -0.001614
 ---------------------------------------------------------------------

 SCF Done:  E(RHF) =  -39.9654908454     A.U. after    9 cycles

 The electronic state is 1-A.
 Alpha  occ. eigenvalues --  -11.16367  -0.93216  -0.55727  -0.54482  -0.50213
 Alpha virt. eigenvalues --    0.28069   0.31749   0.34686   0.35687   0.91793
 Alpha virt. eigenvalues --    0.94132   0.98103   1.24704   1.29400   1.34813
 Alpha virt. eigenvalues --    1.36807   1.94015

 Mulliken charges:
               1
     1  C   -0.762050
     2  H    0.191809
     3  H    0.208361
     4  H    0.208305
     5  H    0.153574
 Sum of Mulliken charges =  -0.00000

 Dipole moment (field-independent basis, Debye):
    X=             -0.0323    Y=             -0.0569    Z=              0.0003  Tot=              0.0654
 Quadrupole moment (field-independent basis, Debye-Ang):
   XX=             -8.6361   YY=             -8.4735   ZZ=             -8.4437
   XY=             -0.1285   XZ=              0.0003   YZ=              0.0003

 Normal termination of Gaussian 16 at Fri Sep 22 17:20:07 2023.
