 Gaussian 16, Revision A.03,
 Gaussian 16:  ES64L-G16RevA.03 25-Dec-2016

 ----------
 # hf/3-21g
 ----------

 -----------------------
 tmpdir/M2_conf_78_7.gjf
 -----------------------
 Symbolic Z-matrix:
 Charge =  0 Multiplicity = 1

                         Standard orientation:
 ---------------------------------------------------------------------
 Center     Atomic      Atomic             Coordinates (Angstroms)
 Number     Number       Type             X           Y           Z
 ---------------------------------------------------------------------
      1          1           0       -0.426830    0.939756   -0.350392
      2          6           0       -0.033949    0.000032   -0.011011
      3          1           0       -0.046230   -0.810053   -0.715453
      4          1           0       -0.470831   -0.316815    0.916845
      5          1           0        1.147585    0.186921    0.215063
 ---------------------------------------------------------------------

 SCF Done:  E(RHF) =  -39.9660159120     A.U. after    9 cycles

 The electronic state is 1-A.
 Alpha  occ. eigenvalues --  -11.15735  -0.93787  -0.56463  -0.55024  -0.50034
 Alpha virt. eigenvalues --    0.28331   0.32078   0.35416   0.36003   0.91305
 Alpha virt. eigenvalues --    0.92838   0.97473   1.25179   1.32141   1.36367
 Alpha virt. eigenvalues --    1.37769   1.94665

 Mulliken charges:
               1
     1  H    0.207940
     2  C   -0.772150
     3  H    0.207620
     4  H    0.206167
     5  H    0.150423
 Sum of Mulliken charges =   0.00000

 Dipole moment (field-independent basis, Debye):
    X=             -0.0568    Y=             -0.0315    Z=              0.0036  Tot=              0.0650
 Quadrupole moment (field-independent basis, Debye-Ang):
   XX=             -8.6564   YY=             -8.2673   ZZ=             -8.5214
   XY=             -0.0850   XZ=             -0.0860   YZ=             -0.0168

 Normal termination of Gaussian 16 at Fri Sep 22 17:16:04 2023.
