 Gaussian 16, Revision A.03,
 Gaussian 16:  ES64L-G16RevA.03 25-Dec-2016

 ----------
 # hf/3-21g
 ----------

 -----------------------
 tmpdir/M2_conf_60_1.gjf
 -----------------------
 Symbolic Z-matrix:
 Charge =  0 Multiplicity = 1

                         Standard orientation:
 ---------------------------------------------------------------------
 Center     Atomic      Atomic             Coordinates (Angstroms)
 Number     Number       Type             X           Y           Z
 ---------------------------------------------------------------------
      1          6           0       -0.032213   -0.000060    0.009867
      2          1           0       -0.183312   -0.002508    1.015172
      3          1           0       -0.397766   -0.891854   -0.462633
      4          1           0       -0.399900    0.893085   -0.458860
      5          1           0        1.174256    0.001638   -0.152878
 ---------------------------------------------------------------------

 SCF Done:  E(RHF) =  -39.9638542253     A.U. after    9 cycles

 The electronic state is 1-A.
 Alpha  occ. eigenvalues --  -11.15060  -0.94483  -0.56888  -0.55554  -0.50287
 Alpha virt. eigenvalues --    0.28477   0.32511   0.35684   0.36946   0.89331
 Alpha virt. eigenvalues --    0.92047   0.97549   1.25296   1.33803   1.37058
 Alpha virt. eigenvalues --    1.41932   1.95452

 Mulliken charges:
               1
     1  C   -0.777563
     2  H    0.220211
     3  H    0.204266
     4  H    0.204211
     5  H    0.148875
 Sum of Mulliken charges =  -0.00000

 Dipole moment (field-independent basis, Debye):
    X=             -0.0807    Y=             -0.0003    Z=              0.0419  Tot=              0.0909
 Quadrupole moment (field-independent basis, Debye-Ang):
   XX=             -8.5964   YY=             -8.3338   ZZ=             -8.3815
   XY=             -0.0005   XZ=              0.0389   YZ=             -0.0001

 Normal termination of Gaussian 16 at Fri Sep 22 17:15:37 2023.
