 Gaussian 16, Revision A.03,
 Gaussian 16:  ES64L-G16RevA.03 25-Dec-2016

 ----------
 # hf/3-21g
 ----------

 ------------------------
 tmpdir/M2_conf_175_8.gjf
 ------------------------
 Symbolic Z-matrix:
 Charge =  0 Multiplicity = 1

                         Standard orientation:
 ---------------------------------------------------------------------
 Center     Atomic      Atomic             Coordinates (Angstroms)
 Number     Number       Type             X           Y           Z
 ---------------------------------------------------------------------
      1          1           0       -1.057287   -0.000980    1.051950
      2          6           0       -1.205396   -0.000005   -0.011384
      3         17           0        0.686503    0.000022   -0.015663
      4          1           0       -1.690309   -0.892152   -0.359396
      5          1           0       -1.690573    0.892797   -0.357975
 ---------------------------------------------------------------------

 SCF Done:  E(RHF) =  -496.663129456     A.U. after   11 cycles

 The electronic state is 1-A.
 Alpha  occ. eigenvalues -- -104.09072 -11.24850 -10.48491  -7.94859  -7.94451
 Alpha  occ. eigenvalues --   -7.94442  -1.12038  -0.93150  -0.64122  -0.63124
 Alpha  occ. eigenvalues --   -0.50636  -0.44227  -0.42886
 Alpha virt. eigenvalues --    0.15200   0.27614   0.31465   0.31572   0.74085
 Alpha virt. eigenvalues --    0.79368   0.80860   0.85254   0.92992   0.96372
 Alpha virt. eigenvalues --    1.01454   1.29414   1.31189   1.32120   1.88325

 Mulliken charges:
               1
     1  H    0.284809
     2  C   -0.707134
     3  Cl  -0.109852
     4  H    0.266112
     5  H    0.266066
 Sum of Mulliken charges =  -0.00000

 Dipole moment (field-independent basis, Debye):
    X=             -2.7740    Y=             -0.0003    Z=              0.2509  Tot=              2.7853
 Quadrupole moment (field-independent basis, Debye-Ang):
   XX=            -18.5175   YY=            -20.1791   ZZ=            -20.4899
   XY=             -0.0006   XZ=              0.5815   YZ=              0.0000

 Normal termination of Gaussian 16 at Fri Sep 22 17:18:30 2023.
