 Gaussian 16, Revision A.03,
 Gaussian 16:  ES64L-G16RevA.03 25-Dec-2016

 ----------
 # hf/3-21g
 ----------

 ------------------------
 tmpdir/M2_conf_185_4.gjf
 ------------------------
 Symbolic Z-matrix:
 Charge =  0 Multiplicity = 1

                         Standard orientation:
 ---------------------------------------------------------------------
 Center     Atomic      Atomic             Coordinates (Angstroms)
 Number     Number       Type             X           Y           Z
 ---------------------------------------------------------------------
      1          1           0       -0.806578    0.650933   -0.348126
      2          6           0       -0.032079   -0.013750   -0.015655
      3          1           0        0.385276   -0.712585   -0.715697
      4          1           0       -0.302600   -0.545400    0.876965
      5          1           0        0.916375    0.689549    0.280787
 ---------------------------------------------------------------------

 SCF Done:  E(RHF) =  -39.9650737220     A.U. after    9 cycles

 The electronic state is 1-A.
 Alpha  occ. eigenvalues --  -11.15741  -0.93802  -0.56874  -0.54725  -0.49890
 Alpha virt. eigenvalues --    0.28331   0.31968   0.35276   0.36162   0.91035
 Alpha virt. eigenvalues --    0.93364   0.97414   1.25230   1.31964   1.36105
 Alpha virt. eigenvalues --    1.38207   1.94646

 Mulliken charges:
               1
     1  H    0.208980
     2  C   -0.773671
     3  H    0.208639
     4  H    0.206042
     5  H    0.150009
 Sum of Mulliken charges =  -0.00000

 Dipole moment (field-independent basis, Debye):
    X=             -0.0263    Y=             -0.0607    Z=              0.0077  Tot=              0.0666
 Quadrupole moment (field-independent basis, Debye-Ang):
   XX=             -8.4647   YY=             -8.3887   ZZ=             -8.5968
   XY=             -0.2448   XZ=             -0.0877   YZ=             -0.0716

 Normal termination of Gaussian 16 at Fri Sep 22 17:18:50 2023.
