 Gaussian 16, Revision A.03,
 Gaussian 16:  ES64L-G16RevA.03 25-Dec-2016

 ----------
 # hf/3-21g
 ----------

 -----------------------
 tmpdir/M2_conf_93_7.gjf
 -----------------------
 Symbolic Z-matrix:
 Charge =  0 Multiplicity = 1

                         Standard orientation:
 ---------------------------------------------------------------------
 Center     Atomic      Atomic             Coordinates (Angstroms)
 Number     Number       Type             X           Y           Z
 ---------------------------------------------------------------------
      1          1           0        0.406357   -0.253340    0.962301
      2          6           0        0.025148    0.014027   -0.005072
      3          1           0        0.585685   -0.527695   -0.743286
      4          1           0       -0.016601    1.076662   -0.150801
      5          1           0       -1.126329   -0.379789   -0.037782
 ---------------------------------------------------------------------

 SCF Done:  E(RHF) =  -39.9665673355     A.U. after    9 cycles

 The electronic state is 1-A.
 Alpha  occ. eigenvalues --  -11.15720  -0.93793  -0.56334  -0.54700  -0.50469
 Alpha virt. eigenvalues --    0.28283   0.32317   0.35327   0.35969   0.91135
 Alpha virt. eigenvalues --    0.92622   0.97899   1.24942   1.32680   1.36073
 Alpha virt. eigenvalues --    1.37712   1.94527

 Mulliken charges:
               1
     1  H    0.205284
     2  C   -0.771155
     3  H    0.206138
     4  H    0.207153
     5  H    0.152580
 Sum of Mulliken charges =  -0.00000

 Dipole moment (field-independent basis, Debye):
    X=              0.0850    Y=              0.0097    Z=              0.0281  Tot=              0.0900
 Quadrupole moment (field-independent basis, Debye-Ang):
   XX=             -8.5373   YY=             -8.3496   ZZ=             -8.5470
   XY=             -0.1465   XZ=             -0.0203   YZ=             -0.0047

 Normal termination of Gaussian 16 at Fri Sep 22 17:16:26 2023.
