 Gaussian 16, Revision A.03,
 Gaussian 16:  ES64L-G16RevA.03 25-Dec-2016

 ----------
 # hf/3-21g
 ----------

 ------------------------
 tmpdir/M2_conf_286_8.gjf
 ------------------------
 Symbolic Z-matrix:
 Charge =  0 Multiplicity = 1

                         Standard orientation:
 ---------------------------------------------------------------------
 Center     Atomic      Atomic             Coordinates (Angstroms)
 Number     Number       Type             X           Y           Z
 ---------------------------------------------------------------------
      1          1           0        0.346140   -0.000005    0.546339
      2          6           0        1.225290    0.000022   -0.069869
      3         17           0       -0.665757   -0.000009   -0.013178
      4          1           0        1.809823    0.892489    0.048458
      5          1           0        1.810177   -0.892461    0.048449
 ---------------------------------------------------------------------

 SCF Done:  E(RHF) =  -496.380496329     A.U. after   12 cycles

 The electronic state is 1-A.
 Alpha  occ. eigenvalues -- -104.15280 -11.18927 -10.55700  -8.02152  -8.01421
 Alpha  occ. eigenvalues --   -8.01371  -1.28070  -0.90442  -0.69676  -0.60881
 Alpha  occ. eigenvalues --   -0.54630  -0.49637  -0.32690
 Alpha virt. eigenvalues --    0.10243   0.33036   0.34236   0.38509   0.67435
 Alpha virt. eigenvalues --    0.72544   0.74879   0.78645   0.93460   0.99541
 Alpha virt. eigenvalues --    1.05951   1.23678   1.34541   1.36817   1.83157

 Mulliken charges:
               1
     1  H    0.232900
     2  C   -0.831626
     3  Cl   0.059808
     4  H    0.269474
     5  H    0.269444
 Sum of Mulliken charges =   0.00000

 Dipole moment (field-independent basis, Debye):
    X=              0.4097    Y=              0.0000    Z=              1.1707  Tot=              1.2403
 Quadrupole moment (field-independent basis, Debye-Ang):
   XX=            -19.3147   YY=            -19.6755   ZZ=            -22.2639
   XY=             -0.0003   XZ=              0.6973   YZ=              0.0001

 Normal termination of Gaussian 16 at Fri Sep 22 17:21:28 2023.
