 Gaussian 16, Revision A.03,
 Gaussian 16:  ES64L-G16RevA.03 25-Dec-2016

 ----------
 # hf/3-21g
 ----------

 -----------------------
 tmpdir/M2_conf_30_5.gjf
 -----------------------
 Symbolic Z-matrix:
 Charge =  0 Multiplicity = 1

                         Standard orientation:
 ---------------------------------------------------------------------
 Center     Atomic      Atomic             Coordinates (Angstroms)
 Number     Number       Type             X           Y           Z
 ---------------------------------------------------------------------
      1          1           0        1.028708    0.178688   -0.337684
      2          6           0        0.024167   -0.026986   -0.020218
      3          1           0       -0.713892   -0.389868   -0.710289
      4          1           0       -0.011619   -0.666556    0.841338
      5          1           0       -0.448202    1.039650    0.327943
 ---------------------------------------------------------------------

 SCF Done:  E(RHF) =  -39.9636212465     A.U. after    9 cycles

 The electronic state is 1-A.
 Alpha  occ. eigenvalues --  -11.15749  -0.93827  -0.57329  -0.54402  -0.49703
 Alpha virt. eigenvalues --    0.28326   0.31812   0.35128   0.36334   0.90748
 Alpha virt. eigenvalues --    0.94035   0.97357   1.25282   1.31747   1.35853
 Alpha virt. eigenvalues --    1.38709   1.94612

 Mulliken charges:
               1
     1  H    0.210326
     2  C   -0.776097
     3  H    0.210139
     4  H    0.206046
     5  H    0.149586
 Sum of Mulliken charges =   0.00000

 Dipole moment (field-independent basis, Debye):
    X=             -0.0200    Y=             -0.0674    Z=              0.0143  Tot=              0.0718
 Quadrupole moment (field-independent basis, Debye-Ang):
   XX=             -8.1590   YY=             -8.6158   ZZ=             -8.6821
   XY=              0.1768   XZ=              0.0459   YZ=             -0.1229

 Normal termination of Gaussian 16 at Fri Sep 22 17:14:52 2023.
