 Gaussian 16, Revision A.03,
 Gaussian 16:  ES64L-G16RevA.03 25-Dec-2016

 ----------
 # hf/3-21g
 ----------

 ------------------------
 tmpdir/M2_conf_247_7.gjf
 ------------------------
 Symbolic Z-matrix:
 Charge =  0 Multiplicity = 1

                         Standard orientation:
 ---------------------------------------------------------------------
 Center     Atomic      Atomic             Coordinates (Angstroms)
 Number     Number       Type             X           Y           Z
 ---------------------------------------------------------------------
      1          1           0       -0.612956    0.833917   -0.348788
      2          6           0       -0.034030   -0.005881   -0.013825
      3          1           0        0.164242   -0.792835   -0.716682
      4          1           0       -0.417928   -0.434173    0.892466
      5          1           0        1.070822    0.428379    0.255955
 ---------------------------------------------------------------------

 SCF Done:  E(RHF) =  -39.9654842453     A.U. after    9 cycles

 The electronic state is 1-A.
 Alpha  occ. eigenvalues --  -11.15738  -0.93796  -0.56711  -0.54843  -0.49950
 Alpha virt. eigenvalues --    0.28332   0.32014   0.35333   0.36098   0.91134
 Alpha virt. eigenvalues --    0.93156   0.97435   1.25211   1.32032   1.36212
 Alpha virt. eigenvalues --    1.38029   1.94656

 Mulliken charges:
               1
     1  H    0.208520
     2  C   -0.773008
     3  H    0.208197
     4  H    0.206123
     5  H    0.150169
 Sum of Mulliken charges =   0.00000

 Dipole moment (field-independent basis, Debye):
    X=             -0.0441    Y=             -0.0483    Z=              0.0061  Tot=              0.0657
 Quadrupole moment (field-independent basis, Debye-Ang):
   XX=             -8.5916   YY=             -8.2899   ZZ=             -8.5665
   XY=             -0.1789   XZ=             -0.0949   YZ=             -0.0420

 Normal termination of Gaussian 16 at Fri Sep 22 17:20:24 2023.
