 Gaussian 16, Revision A.03,
 Gaussian 16:  ES64L-G16RevA.03 25-Dec-2016

 ----------
 # hf/3-21g
 ----------

 ------------------------
 tmpdir/M2_conf_142_8.gjf
 ------------------------
 Symbolic Z-matrix:
 Charge =  0 Multiplicity = 1

                         Standard orientation:
 ---------------------------------------------------------------------
 Center     Atomic      Atomic             Coordinates (Angstroms)
 Number     Number       Type             X           Y           Z
 ---------------------------------------------------------------------
      1          1           0       -1.315671   -0.006634    1.063684
      2          6           0       -1.202906    0.000012   -0.003957
      3         17           0        0.688989    0.000051   -0.007291
      4          1           0       -1.589751   -0.889609   -0.463417
      5          1           0       -1.589951    0.895308   -0.452578
 ---------------------------------------------------------------------

 SCF Done:  E(RHF) =  -496.685105546     A.U. after   11 cycles

 The electronic state is 1-A.
 Alpha  occ. eigenvalues -- -104.08816 -11.24985 -10.48208  -7.94581  -7.94177
 Alpha  occ. eigenvalues --   -7.94176  -1.11394  -0.93306  -0.63444  -0.63191
 Alpha  occ. eigenvalues --   -0.51163  -0.43864  -0.43539
 Alpha virt. eigenvalues --    0.16333   0.27354   0.31376   0.31435   0.73882
 Alpha virt. eigenvalues --    0.80126   0.81043   0.85628   0.92580   0.94888
 Alpha virt. eigenvalues --    1.00041   1.30799   1.31178   1.32350   1.91342

 Mulliken charges:
               1
     1  H    0.276443
     2  C   -0.703912
     3  Cl  -0.107157
     4  H    0.267337
     5  H    0.267289
 Sum of Mulliken charges =  -0.00000

 Dipole moment (field-independent basis, Debye):
    X=             -2.8525    Y=             -0.0008    Z=              0.1019  Tot=              2.8543
 Quadrupole moment (field-independent basis, Debye-Ang):
   XX=            -18.5564   YY=            -20.1836   ZZ=            -20.2336
   XY=             -0.0017   XZ=              0.2724   YZ=              0.0000

 Normal termination of Gaussian 16 at Fri Sep 22 17:17:40 2023.
