 Gaussian 16, Revision A.03,
 Gaussian 16:  ES64L-G16RevA.03 25-Dec-2016

 ----------
 # hf/3-21g
 ----------

 ----------------------
 tmpdir/M2_conf_5_6.gjf
 ----------------------
 Symbolic Z-matrix:
 Charge =  0 Multiplicity = 1

                         Standard orientation:
 ---------------------------------------------------------------------
 Center     Atomic      Atomic             Coordinates (Angstroms)
 Number     Number       Type             X           Y           Z
 ---------------------------------------------------------------------
      1          1           0       -1.589272   -0.017724    1.002971
      2          6           0       -1.202482   -0.000012    0.001839
      3         17           0        0.689415   -0.000076    0.003531
      4          1           0       -1.457696    0.902092   -0.521312
      5          1           0       -1.458199   -0.883012   -0.552713
 ---------------------------------------------------------------------

 SCF Done:  E(RHF) =  -496.688533844     A.U. after   11 cycles

 The electronic state is 1-A.
 Alpha  occ. eigenvalues -- -104.08781 -11.24999 -10.48170  -7.94545  -7.94141
 Alpha  occ. eigenvalues --   -7.94141  -1.11303  -0.93330  -0.63280  -0.63243
 Alpha  occ. eigenvalues --   -0.51284  -0.43761  -0.43680
 Alpha virt. eigenvalues --    0.16540   0.27331   0.31363   0.31409   0.73837
 Alpha virt. eigenvalues --    0.80388   0.80957   0.85549   0.93054   0.94216
 Alpha virt. eigenvalues --    0.99699   1.31059   1.31260   1.32279   1.91874

 Mulliken charges:
               1
     1  H    0.266988
     2  C   -0.703080
     3  Cl  -0.106944
     4  H    0.271530
     5  H    0.271506
 Sum of Mulliken charges =  -0.00000

 Dipole moment (field-independent basis, Debye):
    X=             -2.8635    Y=              0.0009    Z=             -0.0454  Tot=              2.8638
 Quadrupole moment (field-independent basis, Debye-Ang):
   XX=            -18.5666   YY=            -20.1781   ZZ=            -20.1955
   XY=              0.0029   XZ=             -0.1325   YZ=             -0.0001

 Normal termination of Gaussian 16 at Fri Sep 22 17:14:14 2023.
