 Gaussian 16, Revision A.03,
 Gaussian 16:  ES64L-G16RevA.03 25-Dec-2016

 ----------
 # hf/3-21g
 ----------

 ------------------------
 tmpdir/M2_conf_254_6.gjf
 ------------------------
 Symbolic Z-matrix:
 Charge =  0 Multiplicity = 1

                         Standard orientation:
 ---------------------------------------------------------------------
 Center     Atomic      Atomic             Coordinates (Angstroms)
 Number     Number       Type             X           Y           Z
 ---------------------------------------------------------------------
      1          1           0       -1.154236   -0.002514    1.064012
      2          6           0       -1.204228    0.000034   -0.008220
      3         17           0        0.687670    0.000021   -0.012828
      4          1           0       -1.655203    0.893665   -0.396367
      5          1           0       -1.655579   -0.891711   -0.400242
 ---------------------------------------------------------------------

 SCF Done:  E(RHF) =  -496.673822115     A.U. after   11 cycles

 The electronic state is 1-A.
 Alpha  occ. eigenvalues -- -104.08942 -11.24926 -10.48345  -7.94715  -7.94309
 Alpha  occ. eigenvalues --   -7.94305  -1.11712  -0.93226  -0.63812  -0.63155
 Alpha  occ. eigenvalues --   -0.50845  -0.44057  -0.43208
 Alpha virt. eigenvalues --    0.15715   0.27469   0.31417   0.31510   0.74004
 Alpha virt. eigenvalues --    0.79660   0.80992   0.85523   0.92554   0.95858
 Alpha virt. eigenvalues --    1.00900   1.30011   1.31165   1.32306   1.89712

 Mulliken charges:
               1
     1  H    0.281837
     2  C   -0.705898
     3  Cl  -0.108366
     4  H    0.266222
     5  H    0.266207
 Sum of Mulliken charges =   0.00000

 Dipole moment (field-independent basis, Debye):
    X=             -2.8140    Y=             -0.0004    Z=              0.1940  Tot=              2.8207
 Quadrupole moment (field-independent basis, Debye-Ang):
   XX=            -18.5309   YY=            -20.1814   ZZ=            -20.3708
   XY=             -0.0007   XZ=              0.4775   YZ=             -0.0001

 Normal termination of Gaussian 16 at Fri Sep 22 17:20:35 2023.
