 Gaussian 16, Revision A.03,
 Gaussian 16:  ES64L-G16RevA.03 25-Dec-2016

 ----------
 # hf/3-21g
 ----------

 ------------------------
 tmpdir/M2_conf_128_0.gjf
 ------------------------
 Symbolic Z-matrix:
 Charge =  0 Multiplicity = 1

                         Standard orientation:
 ---------------------------------------------------------------------
 Center     Atomic      Atomic             Coordinates (Angstroms)
 Number     Number       Type             X           Y           Z
 ---------------------------------------------------------------------
      1          6           0        0.002204   -0.030657    0.000057
      2          1           0        1.180654    0.238960    0.000933
      3          1           0       -0.302924   -0.542057    0.893360
      4          1           0       -0.300412   -0.545661   -0.892018
      5          1           0       -0.590540    1.032697   -0.002615
 ---------------------------------------------------------------------

 SCF Done:  E(RHF) =  -39.9580237213     A.U. after    9 cycles

 The electronic state is 1-A.
 Alpha  occ. eigenvalues --  -11.17280  -0.92585  -0.55884  -0.53016  -0.49948
 Alpha virt. eigenvalues --    0.27358   0.30692   0.33823   0.35681   0.91651
 Alpha virt. eigenvalues --    0.95653   1.00402   1.22730   1.25803   1.33763
 Alpha virt. eigenvalues --    1.36580   1.93106

 Mulliken charges:
               1
     1  C   -0.746280
     2  H    0.168696
     3  H    0.210574
     4  H    0.210574
     5  H    0.156436
 Sum of Mulliken charges =   0.00000

 Dipole moment (field-independent basis, Debye):
    X=             -0.0707    Y=             -0.0727    Z=              0.0001  Tot=              0.1014
 Quadrupole moment (field-independent basis, Debye-Ang):
   XX=             -8.4888   YY=             -8.7069   ZZ=             -8.5151
   XY=              0.1391   XZ=             -0.0008   YZ=              0.0009

 Normal termination of Gaussian 16 at Fri Sep 22 17:17:18 2023.
