 Gaussian 16, Revision A.03,
 Gaussian 16:  ES64L-G16RevA.03 25-Dec-2016

 ----------
 # hf/3-21g
 ----------

 ------------------------
 tmpdir/M2_conf_141_4.gjf
 ------------------------
 Symbolic Z-matrix:
 Charge =  0 Multiplicity = 1

                         Standard orientation:
 ---------------------------------------------------------------------
 Center     Atomic      Atomic             Coordinates (Angstroms)
 Number     Number       Type             X           Y           Z
 ---------------------------------------------------------------------
      1          1           0       -1.045519    0.091208   -0.330061
      2          6           0       -0.023870   -0.028605   -0.023360
      3          1           0        0.762304   -0.298501   -0.702841
      4          1           0        0.077565   -0.687851    0.817894
      5          1           0        0.348870    1.066773    0.355170
 ---------------------------------------------------------------------

 SCF Done:  E(RHF) =  -39.9622982262     A.U. after    9 cycles

 The electronic state is 1-A.
 Alpha  occ. eigenvalues --  -11.15755  -0.93850  -0.57653  -0.54181  -0.49546
 Alpha virt. eigenvalues --    0.28318   0.31674   0.35026   0.36456   0.90560
 Alpha virt. eigenvalues --    0.94567   0.97327   1.25311   1.31582   1.35693
 Alpha virt. eigenvalues --    1.39079   1.94572

 Mulliken charges:
               1
     1  H    0.211460
     2  C   -0.778330
     3  H    0.211488
     4  H    0.206076
     5  H    0.149306
 Sum of Mulliken charges =  -0.00000

 Dipole moment (field-independent basis, Debye):
    X=              0.0352    Y=             -0.0660    Z=              0.0192  Tot=              0.0773
 Quadrupole moment (field-independent basis, Debye-Ang):
   XX=             -8.0726   YY=             -8.6439   ZZ=             -8.7459
   XY=             -0.1399   XZ=             -0.0363   YZ=             -0.1368

 Normal termination of Gaussian 16 at Fri Sep 22 17:17:38 2023.
