 Gaussian 16, Revision A.03,
 Gaussian 16:  ES64L-G16RevA.03 25-Dec-2016

 ----------
 # hf/3-21g
 ----------

 ------------------------
 tmpdir/M2_conf_153_7.gjf
 ------------------------
 Symbolic Z-matrix:
 Charge =  0 Multiplicity = 1

                         Standard orientation:
 ---------------------------------------------------------------------
 Center     Atomic      Atomic             Coordinates (Angstroms)
 Number     Number       Type             X           Y           Z
 ---------------------------------------------------------------------
      1          1           0        0.335155   -0.328757    0.974647
      2          6           0        0.031139    0.001853   -0.000488
      3          1           0        0.368562   -0.663680   -0.772391
      4          1           0        0.294797    1.025339   -0.187933
      5          1           0       -1.185347   -0.044020   -0.011397
 ---------------------------------------------------------------------

 SCF Done:  E(RHF) =  -39.9669824276     A.U. after    9 cycles

 The electronic state is 1-A.
 Alpha  occ. eigenvalues --  -11.15724  -0.93777  -0.55727  -0.55516  -0.50299
 Alpha virt. eigenvalues --    0.28315   0.32246   0.35639   0.35726   0.91809
 Alpha virt. eigenvalues --    0.92003   0.97665   1.25052   1.32490   1.36821
 Alpha virt. eigenvalues --    1.37037   1.94641

 Mulliken charges:
               1
     1  H    0.206251
     2  C   -0.770629
     3  H    0.206326
     4  H    0.206547
     5  H    0.151505
 Sum of Mulliken charges =   0.00000

 Dipole moment (field-independent basis, Debye):
    X=              0.0725    Y=              0.0006    Z=              0.0039  Tot=              0.0726
 Quadrupole moment (field-independent basis, Debye-Ang):
   XX=             -8.6497   YY=             -8.3771   ZZ=             -8.4102
   XY=             -0.0179   XZ=             -0.0056   YZ=             -0.0000

 Normal termination of Gaussian 16 at Fri Sep 22 17:17:56 2023.
