 Gaussian 16, Revision A.03,
 Gaussian 16:  ES64L-G16RevA.03 25-Dec-2016

 ----------
 # hf/3-21g
 ----------

 ------------------------
 tmpdir/M2_conf_170_4.gjf
 ------------------------
 Symbolic Z-matrix:
 Charge =  0 Multiplicity = 1

                         Standard orientation:
 ---------------------------------------------------------------------
 Center     Atomic      Atomic             Coordinates (Angstroms)
 Number     Number       Type             X           Y           Z
 ---------------------------------------------------------------------
      1          1           0       -0.429776    0.937225   -0.352780
      2          6           0       -0.033898   -0.000142   -0.011003
      3          1           0       -0.042424   -0.811105   -0.714488
      4          1           0       -0.471129   -0.316473    0.917096
      5          1           0        1.146714    0.191205    0.216187
 ---------------------------------------------------------------------

 SCF Done:  E(RHF) =  -39.9660345947     A.U. after    9 cycles

 The electronic state is 1-A.
 Alpha  occ. eigenvalues --  -11.15735  -0.93787  -0.56456  -0.55029  -0.50037
 Alpha virt. eigenvalues --    0.28331   0.32081   0.35416   0.36003   0.91321
 Alpha virt. eigenvalues --    0.92816   0.97476   1.25177   1.32149   1.36362
 Alpha virt. eigenvalues --    1.37765   1.94665

 Mulliken charges:
               1
     1  H    0.207967
     2  C   -0.772114
     3  H    0.207608
     4  H    0.206108
     5  H    0.150432
 Sum of Mulliken charges =  -0.00000

 Dipole moment (field-independent basis, Debye):
    X=             -0.0568    Y=             -0.0313    Z=              0.0031  Tot=              0.0649
 Quadrupole moment (field-independent basis, Debye-Ang):
   XX=             -8.6548   YY=             -8.2703   ZZ=             -8.5199
   XY=             -0.0870   XZ=             -0.0862   YZ=             -0.0172

 Normal termination of Gaussian 16 at Fri Sep 22 17:18:22 2023.
