 Gaussian 16, Revision A.03,
 Gaussian 16:  ES64L-G16RevA.03 25-Dec-2016

 ----------
 # hf/3-21g
 ----------

 ------------------------
 tmpdir/M2_conf_140_6.gjf
 ------------------------
 Symbolic Z-matrix:
 Charge =  0 Multiplicity = 1

                         Standard orientation:
 ---------------------------------------------------------------------
 Center     Atomic      Atomic             Coordinates (Angstroms)
 Number     Number       Type             X           Y           Z
 ---------------------------------------------------------------------
      1          1           0       -1.292319   -0.005819    1.065131
      2          6           0       -1.203047    0.000042   -0.004534
      3         17           0        0.688847    0.000034   -0.008143
      4          1           0       -1.599687    0.895175   -0.445017
      5          1           0       -1.600111   -0.890180   -0.454484
 ---------------------------------------------------------------------

 SCF Done:  E(RHF) =  -496.683927285     A.U. after   11 cycles

 The electronic state is 1-A.
 Alpha  occ. eigenvalues -- -104.08828 -11.24980 -10.48221  -7.94594  -7.94190
 Alpha  occ. eigenvalues --   -7.94188  -1.11426  -0.93297  -0.63484  -0.63187
 Alpha  occ. eigenvalues --   -0.51125  -0.43887  -0.43503
 Alpha virt. eigenvalues --    0.16264   0.27364   0.31379   0.31443   0.73897
 Alpha virt. eigenvalues --    0.80060   0.81052   0.85640   0.92501   0.95045
 Alpha virt. eigenvalues --    1.00152   1.30690   1.31170   1.32378   1.91167

 Mulliken charges:
               1
     1  H    0.277285
     2  C   -0.704198
     3  Cl  -0.107237
     4  H    0.267084
     5  H    0.267066
 Sum of Mulliken charges =   0.00000

 Dipole moment (field-independent basis, Debye):
    X=             -2.8487    Y=             -0.0006    Z=              0.1152  Tot=              2.8510
 Quadrupole moment (field-independent basis, Debye-Ang):
   XX=            -18.5530   YY=            -20.1826   ZZ=            -20.2494
   XY=             -0.0012   XZ=              0.3036   YZ=             -0.0001

 Normal termination of Gaussian 16 at Fri Sep 22 17:17:37 2023.
