 Gaussian 16, Revision A.03,
 Gaussian 16:  ES64L-G16RevA.03 25-Dec-2016

 ----------
 # hf/3-21g
 ----------

 ------------------------
 tmpdir/M2_conf_252_9.gjf
 ------------------------
 Symbolic Z-matrix:
 Charge =  0 Multiplicity = 1

                         Standard orientation:
 ---------------------------------------------------------------------
 Center     Atomic      Atomic             Coordinates (Angstroms)
 Number     Number       Type             X           Y           Z
 ---------------------------------------------------------------------
      1          1           0        1.353746   -0.020739    1.059581
      2          6           0        1.202707    0.000069   -0.003138
      3         17           0       -0.689193    0.000108   -0.005863
      4          1           0        1.573279   -0.883131   -0.487731
      5          1           0        1.573015    0.901618   -0.453345
 ---------------------------------------------------------------------

 SCF Done:  E(RHF) =  -496.686713499     A.U. after   11 cycles

 The electronic state is 1-A.
 Alpha  occ. eigenvalues -- -104.08800 -11.24992 -10.48190  -7.94564  -7.94160
 Alpha  occ. eigenvalues --   -7.94159  -1.11351  -0.93318  -0.63380  -0.63202
 Alpha  occ. eigenvalues --   -0.51220  -0.43831  -0.43591
 Alpha virt. eigenvalues --    0.16430   0.27344   0.31370   0.31422   0.73862
 Alpha virt. eigenvalues --    0.80236   0.81008   0.85597   0.92733   0.94652
 Alpha virt. eigenvalues --    0.99874   1.30937   1.31187   1.32325   1.91588

 Mulliken charges:
               1
     1  H    0.275115
     2  C   -0.703506
     3  Cl  -0.107063
     4  H    0.267739
     5  H    0.267715
 Sum of Mulliken charges =   0.00000

 Dipole moment (field-independent basis, Debye):
    X=              2.8576    Y=             -0.0016    Z=              0.0809  Tot=              2.8588
 Quadrupole moment (field-independent basis, Debye-Ang):
   XX=            -18.5609   YY=            -20.1829   ZZ=            -20.2140
   XY=              0.0038   XZ=             -0.2190   YZ=             -0.0002

 Normal termination of Gaussian 16 at Fri Sep 22 17:20:31 2023.
