 Gaussian 16, Revision A.03,
 Gaussian 16:  ES64L-G16RevA.03 25-Dec-2016

 ----------
 # hf/3-21g
 ----------

 -----------------------
 tmpdir/M2_conf_20_0.gjf
 -----------------------
 Symbolic Z-matrix:
 Charge =  0 Multiplicity = 1

                         Standard orientation:
 ---------------------------------------------------------------------
 Center     Atomic      Atomic             Coordinates (Angstroms)
 Number     Number       Type             X           Y           Z
 ---------------------------------------------------------------------
      1          6           0       -0.025954   -0.016257   -0.000056
      2          1           0       -0.738459    0.851764   -0.002430
      3          1           0       -0.097098   -0.608632   -0.892611
      4          1           0       -0.102299   -0.607566    0.892765
      5          1           0        1.093580    0.461978    0.002611
 ---------------------------------------------------------------------

 SCF Done:  E(RHF) =  -39.9658073314     A.U. after    9 cycles

 The electronic state is 1-A.
 Alpha  occ. eigenvalues --  -11.16304  -0.93266  -0.55719  -0.54591  -0.50223
 Alpha virt. eigenvalues --    0.28100   0.31811   0.34770   0.35686   0.91816
 Alpha virt. eigenvalues --    0.93931   0.98024   1.24753   1.29760   1.34922
 Alpha virt. eigenvalues --    1.36817   1.94075

 Mulliken charges:
               1
     1  C   -0.762998
     2  H    0.193371
     3  H    0.208134
     4  H    0.208131
     5  H    0.153362
 Sum of Mulliken charges =  -0.00000

 Dipole moment (field-independent basis, Debye):
    X=             -0.0396    Y=             -0.0513    Z=             -0.0001  Tot=              0.0648
 Quadrupole moment (field-independent basis, Debye-Ang):
   XX=             -8.6502   YY=             -8.4542   ZZ=             -8.4377
   XY=             -0.1132   XZ=             -0.0012   YZ=             -0.0002

 Normal termination of Gaussian 16 at Fri Sep 22 17:14:37 2023.
