 Gaussian 16, Revision A.03,
 Gaussian 16:  ES64L-G16RevA.03 25-Dec-2016

 ----------
 # hf/3-21g
 ----------

 -----------------------
 tmpdir/M2_conf_68_2.gjf
 -----------------------
 Symbolic Z-matrix:
 Charge =  0 Multiplicity = 1

                         Standard orientation:
 ---------------------------------------------------------------------
 Center     Atomic      Atomic             Coordinates (Angstroms)
 Number     Number       Type             X           Y           Z
 ---------------------------------------------------------------------
      1          6           0        0.032261    0.000014    0.011302
      2          1           0        0.171901   -0.003603    1.007153
      3          1           0        0.405648   -0.889844   -0.458735
      4          1           0        0.401332    0.895300   -0.452242
      5          1           0       -1.172449   -0.001934   -0.163987
 ---------------------------------------------------------------------

 SCF Done:  E(RHF) =  -39.9625775861     A.U. after    9 cycles

 The electronic state is 1-A.
 Alpha  occ. eigenvalues --  -11.14934  -0.94636  -0.57129  -0.55544  -0.50288
 Alpha virt. eigenvalues --    0.28500   0.32548   0.35685   0.37199   0.88826
 Alpha virt. eigenvalues --    0.92079   0.97549   1.25333   1.33944   1.37080
 Alpha virt. eigenvalues --    1.43112   1.95640

 Mulliken charges:
               1
     1  C   -0.778636
     2  H    0.222687
     3  H    0.203806
     4  H    0.203761
     5  H    0.148382
 Sum of Mulliken charges =   0.00000

 Dipole moment (field-independent basis, Debye):
    X=              0.0821    Y=             -0.0001    Z=              0.0482  Tot=              0.0952
 Quadrupole moment (field-independent basis, Debye-Ang):
   XX=             -8.5848   YY=             -8.3220   ZZ=             -8.3798
   XY=             -0.0011   XZ=             -0.0403   YZ=             -0.0005

 Normal termination of Gaussian 16 at Fri Sep 22 17:15:49 2023.
