 Gaussian 16, Revision A.03,
 Gaussian 16:  ES64L-G16RevA.03 25-Dec-2016

 ----------
 # hf/3-21g
 ----------

 ------------------------
 tmpdir/M2_conf_227_2.gjf
 ------------------------
 Symbolic Z-matrix:
 Charge =  0 Multiplicity = 1

                         Standard orientation:
 ---------------------------------------------------------------------
 Center     Atomic      Atomic             Coordinates (Angstroms)
 Number     Number       Type             X           Y           Z
 ---------------------------------------------------------------------
      1          6           0        0.000952   -0.031086    0.000016
      2          1           0       -1.206945    0.195141    0.001750
      3          1           0        0.323285   -0.532726   -0.892541
      4          1           0        0.326811   -0.530790    0.892615
      5          1           0        0.551139    1.054892   -0.001921
 ---------------------------------------------------------------------

 SCF Done:  E(RHF) =  -39.9554459938     A.U. after    9 cycles

 The electronic state is 1-A.
 Alpha  occ. eigenvalues --  -11.17498  -0.92461  -0.55928  -0.52728  -0.49818
 Alpha virt. eigenvalues --    0.27080   0.30429   0.33701   0.35682   0.91610
 Alpha virt. eigenvalues --    0.95761   1.01185   1.21841   1.25504   1.33600
 Alpha virt. eigenvalues --    1.36529   1.92865

 Mulliken charges:
               1
     1  C   -0.741871
     2  H    0.162677
     3  H    0.211092
     4  H    0.211039
     5  H    0.157063
 Sum of Mulliken charges =   0.00000

 Dipole moment (field-independent basis, Debye):
    X=              0.0921    Y=             -0.0716    Z=             -0.0002  Tot=              0.1166
 Quadrupole moment (field-independent basis, Debye-Ang):
   XX=             -8.4819   YY=             -8.7333   ZZ=             -8.5322
   XY=             -0.1329   XZ=              0.0009   YZ=              0.0008

 Normal termination of Gaussian 16 at Fri Sep 22 17:19:53 2023.
