 Gaussian 16, Revision A.03,
 Gaussian 16:  ES64L-G16RevA.03 25-Dec-2016

 ----------
 # hf/3-21g
 ----------

 ------------------------
 tmpdir/M2_conf_107_7.gjf
 ------------------------
 Symbolic Z-matrix:
 Charge =  0 Multiplicity = 1

                         Standard orientation:
 ---------------------------------------------------------------------
 Center     Atomic      Atomic             Coordinates (Angstroms)
 Number     Number       Type             X           Y           Z
 ---------------------------------------------------------------------
      1          1           0        0.412673   -0.245716    0.960930
      2          6           0        0.024452    0.014909   -0.005494
      3          1           0        0.601097   -0.513383   -0.741027
      4          1           0       -0.043450    1.076602   -0.148224
      5          1           0       -1.117032   -0.406958   -0.038714
 ---------------------------------------------------------------------

 SCF Done:  E(RHF) =  -39.9664821183     A.U. after    9 cycles

 The electronic state is 1-A.
 Alpha  occ. eigenvalues --  -11.15720  -0.93796  -0.56386  -0.54630  -0.50482
 Alpha virt. eigenvalues --    0.28280   0.32320   0.35300   0.35988   0.91085
 Alpha virt. eigenvalues --    0.92674   0.97922   1.24932   1.32690   1.36013
 Alpha virt. eigenvalues --    1.37773   1.94512

 Mulliken charges:
               1
     1  H    0.205215
     2  C   -0.771264
     3  H    0.206153
     4  H    0.207217
     5  H    0.152678
 Sum of Mulliken charges =   0.00000

 Dipole moment (field-independent basis, Debye):
    X=              0.0862    Y=              0.0108    Z=              0.0301  Tot=              0.0919
 Quadrupole moment (field-independent basis, Debye-Ang):
   XX=             -8.5230   YY=             -8.3522   ZZ=             -8.5587
   XY=             -0.1556   XZ=             -0.0209   YZ=             -0.0053

 Normal termination of Gaussian 16 at Fri Sep 22 17:16:47 2023.
