 Gaussian 16, Revision A.03,
 Gaussian 16:  ES64L-G16RevA.03 25-Dec-2016

 ----------
 # hf/3-21g
 ----------

 ------------------------
 tmpdir/M2_conf_288_7.gjf
 ------------------------
 Symbolic Z-matrix:
 Charge =  0 Multiplicity = 1

                         Standard orientation:
 ---------------------------------------------------------------------
 Center     Atomic      Atomic             Coordinates (Angstroms)
 Number     Number       Type             X           Y           Z
 ---------------------------------------------------------------------
      1          1           0       -0.403670    0.949380   -0.350369
      2          6           0       -0.033812    0.000590   -0.010341
      3          1           0       -0.076904   -0.808434   -0.714778
      4          1           0       -0.470948   -0.300231    0.922715
      5          1           0        1.154396    0.155745    0.204479
 ---------------------------------------------------------------------

 SCF Done:  E(RHF) =  -39.9661203923     A.U. after    9 cycles

 The electronic state is 1-A.
 Alpha  occ. eigenvalues --  -11.15734  -0.93786  -0.56407  -0.55066  -0.50053
 Alpha virt. eigenvalues --    0.28331   0.32092   0.35435   0.35982   0.91345
 Alpha virt. eigenvalues --    0.92768   0.97483   1.25172   1.32165   1.36403
 Alpha virt. eigenvalues --    1.37710   1.94667

 Mulliken charges:
               1
     1  H    0.207816
     2  C   -0.771984
     3  H    0.207506
     4  H    0.206180
     5  H    0.150482
 Sum of Mulliken charges =   0.00000

 Dipole moment (field-independent basis, Debye):
    X=             -0.0584    Y=             -0.0285    Z=              0.0030  Tot=              0.0650
 Quadrupole moment (field-independent basis, Debye-Ang):
   XX=             -8.6612   YY=             -8.2720   ZZ=             -8.5113
   XY=             -0.0716   XZ=             -0.0823   YZ=             -0.0136

 Normal termination of Gaussian 16 at Fri Sep 22 17:21:31 2023.
