 Gaussian 16, Revision A.03,
 Gaussian 16:  ES64L-G16RevA.03 25-Dec-2016

 ----------
 # hf/3-21g
 ----------

 -----------------------
 tmpdir/M2_conf_61_9.gjf
 -----------------------
 Symbolic Z-matrix:
 Charge =  0 Multiplicity = 1

                         Standard orientation:
 ---------------------------------------------------------------------
 Center     Atomic      Atomic             Coordinates (Angstroms)
 Number     Number       Type             X           Y           Z
 ---------------------------------------------------------------------
      1          1           0        1.621218   -0.024829    0.990846
      2          6           0        1.202594   -0.000049    0.002536
      3         17           0       -0.689309   -0.000132    0.004838
      4          1           0        1.440936   -0.878582   -0.566296
      5          1           0        1.440526    0.905949   -0.522021
 ---------------------------------------------------------------------

 SCF Done:  E(RHF) =  -496.687695255     A.U. after   11 cycles

 The electronic state is 1-A.
 Alpha  occ. eigenvalues -- -104.08788 -11.24997 -10.48178  -7.94552  -7.94148
 Alpha  occ. eigenvalues --   -7.94148  -1.11323  -0.93324  -0.63297  -0.63254
 Alpha  occ. eigenvalues --   -0.51249  -0.43766  -0.43665
 Alpha virt. eigenvalues --    0.16480   0.27331   0.31363   0.31422   0.73847
 Alpha virt. eigenvalues --    0.80275   0.81060   0.85595   0.92813   0.94391
 Alpha virt. eigenvalues --    0.99866   1.30918   1.31281   1.32358   1.91760

 Mulliken charges:
               1
     1  H    0.265939
     2  C   -0.703539
     3  Cl  -0.106819
     4  H    0.272219
     5  H    0.272200
 Sum of Mulliken charges =   0.00000

 Dipole moment (field-independent basis, Debye):
    X=              2.8610    Y=              0.0015    Z=             -0.0620  Tot=              2.8617
 Quadrupole moment (field-independent basis, Debye-Ang):
   XX=            -18.5631   YY=            -20.1780   ZZ=            -20.2068
   XY=             -0.0052   XZ=              0.1813   YZ=              0.0001

 Normal termination of Gaussian 16 at Fri Sep 22 17:15:39 2023.
