 Gaussian 16, Revision A.03,
 Gaussian 16:  ES64L-G16RevA.03 25-Dec-2016

 ----------
 # hf/3-21g
 ----------

 -----------------------
 tmpdir/M2_conf_27_7.gjf
 -----------------------
 Symbolic Z-matrix:
 Charge =  0 Multiplicity = 1

                         Standard orientation:
 ---------------------------------------------------------------------
 Center     Atomic      Atomic             Coordinates (Angstroms)
 Number     Number       Type             X           Y           Z
 ---------------------------------------------------------------------
      1          1           0        0.393948   -0.267817    0.964793
      2          6           0        0.026413    0.012244   -0.004279
      3          1           0        0.554405   -0.554490   -0.747679
      4          1           0        0.035799    1.074844   -0.155826
      5          1           0       -1.142633   -0.326001   -0.035615
 ---------------------------------------------------------------------

 SCF Done:  E(RHF) =  -39.9667080731     A.U. after    9 cycles

 The electronic state is 1-A.
 Alpha  occ. eigenvalues --  -11.15721  -0.93789  -0.56236  -0.54833  -0.50444
 Alpha virt. eigenvalues --    0.28290   0.32309   0.35377   0.35932   0.91232
 Alpha virt. eigenvalues --    0.92522   0.97856   1.24959   1.32658   1.36189
 Alpha virt. eigenvalues --    1.37597   1.94552

 Mulliken charges:
               1
     1  H    0.205419
     2  C   -0.770976
     3  H    0.206123
     4  H    0.207037
     5  H    0.152397
 Sum of Mulliken charges =  -0.00000

 Dipole moment (field-independent basis, Debye):
    X=              0.0829    Y=              0.0078    Z=              0.0242  Tot=              0.0867
 Quadrupole moment (field-independent basis, Debye-Ang):
   XX=             -8.5628   YY=             -8.3464   ZZ=             -8.5249
   XY=             -0.1277   XZ=             -0.0190   YZ=             -0.0036

 Normal termination of Gaussian 16 at Fri Sep 22 17:14:48 2023.
