 Gaussian 16, Revision A.03,
 Gaussian 16:  ES64L-G16RevA.03 25-Dec-2016

 ----------
 # hf/3-21g
 ----------

 -----------------------
 tmpdir/M2_conf_95_2.gjf
 -----------------------
 Symbolic Z-matrix:
 Charge =  0 Multiplicity = 1

                         Standard orientation:
 ---------------------------------------------------------------------
 Center     Atomic      Atomic             Coordinates (Angstroms)
 Number     Number       Type             X           Y           Z
 ---------------------------------------------------------------------
      1          6           0        0.032039    0.000015    0.004176
      2          1           0        0.259482   -0.011805    1.031535
      3          1           0        0.367881   -0.885678   -0.500758
      4          1           0        0.363111    0.899354   -0.479770
      5          1           0       -1.182710   -0.001961   -0.076064
 ---------------------------------------------------------------------

 SCF Done:  E(RHF) =  -39.9664240661     A.U. after    9 cycles

 The electronic state is 1-A.
 Alpha  occ. eigenvalues --  -11.15476  -0.94024  -0.56099  -0.55607  -0.50279
 Alpha virt. eigenvalues --    0.28386   0.32355   0.35687   0.36140   0.90962
 Alpha virt. eigenvalues --    0.91966   0.97578   1.25163   1.33130   1.36991
 Alpha virt. eigenvalues --    1.38521   1.94924

 Mulliken charges:
               1
     1  C   -0.773503
     2  H    0.211743
     3  H    0.205679
     4  H    0.205632
     5  H    0.150451
 Sum of Mulliken charges =  -0.00000

 Dipole moment (field-independent basis, Debye):
    X=              0.0756    Y=             -0.0001    Z=              0.0171  Tot=              0.0775
 Quadrupole moment (field-independent basis, Debye-Ang):
   XX=             -8.6357   YY=             -8.3693   ZZ=             -8.3865
   XY=             -0.0011   XZ=             -0.0191   YZ=             -0.0005

 Normal termination of Gaussian 16 at Fri Sep 22 17:16:29 2023.
