 Gaussian 16, Revision A.03,
 Gaussian 16:  ES64L-G16RevA.03 25-Dec-2016

 ----------
 # hf/3-21g
 ----------

 ------------------------
 tmpdir/M2_conf_224_1.gjf
 ------------------------
 Symbolic Z-matrix:
 Charge =  0 Multiplicity = 1

                         Standard orientation:
 ---------------------------------------------------------------------
 Center     Atomic      Atomic             Coordinates (Angstroms)
 Number     Number       Type             X           Y           Z
 ---------------------------------------------------------------------
      1          6           0       -0.032205   -0.000060    0.009371
      2          1           0       -0.188503   -0.002676    1.017423
      3          1           0       -0.395580   -0.891770   -0.464964
      4          1           0       -0.397694    0.893168   -0.460913
      5          1           0        1.175006    0.001639   -0.147773
 ---------------------------------------------------------------------

 SCF Done:  E(RHF) =  -39.9642096780     A.U. after    9 cycles

 The electronic state is 1-A.
 Alpha  occ. eigenvalues --  -11.15101  -0.94436  -0.56811  -0.55559  -0.50287
 Alpha virt. eigenvalues --    0.28469   0.32499   0.35684   0.36866   0.89491
 Alpha virt. eigenvalues --    0.92039   0.97549   1.25284   1.33753   1.37051
 Alpha virt. eigenvalues --    1.41567   1.95395

 Mulliken charges:
               1
     1  C   -0.777203
     2  H    0.219408
     3  H    0.204409
     4  H    0.204354
     5  H    0.149032
 Sum of Mulliken charges =   0.00000

 Dipole moment (field-independent basis, Debye):
    X=             -0.0803    Y=             -0.0003    Z=              0.0397  Tot=              0.0896
 Quadrupole moment (field-independent basis, Debye-Ang):
   XX=             -8.6002   YY=             -8.3374   ZZ=             -8.3820
   XY=             -0.0005   XZ=              0.0377   YZ=             -0.0001

 Normal termination of Gaussian 16 at Fri Sep 22 17:19:49 2023.
