 Gaussian 16, Revision A.03,
 Gaussian 16:  ES64L-G16RevA.03 25-Dec-2016

 ----------
 # hf/3-21g
 ----------

 -----------------------
 tmpdir/M2_conf_24_2.gjf
 -----------------------
 Symbolic Z-matrix:
 Charge =  0 Multiplicity = 1

                         Standard orientation:
 ---------------------------------------------------------------------
 Center     Atomic      Atomic             Coordinates (Angstroms)
 Number     Number       Type             X           Y           Z
 ---------------------------------------------------------------------
      1          6           0        0.000982   -0.031089    0.000016
      2          1           0       -1.207186    0.194774    0.001748
      3          1           0        0.323483   -0.532623   -0.892540
      4          1           0        0.327005   -0.530685    0.892616
      5          1           0        0.550809    1.055071   -0.001921
 ---------------------------------------------------------------------

 SCF Done:  E(RHF) =  -39.9554191033     A.U. after    9 cycles

 The electronic state is 1-A.
 Alpha  occ. eigenvalues --  -11.17500  -0.92460  -0.55928  -0.52725  -0.49817
 Alpha virt. eigenvalues --    0.27077   0.30427   0.33699   0.35682   0.91609
 Alpha virt. eigenvalues --    0.95762   1.01193   1.21831   1.25501   1.33598
 Alpha virt. eigenvalues --    1.36528   1.92863

 Mulliken charges:
               1
     1  C   -0.741825
     2  H    0.162616
     3  H    0.211096
     4  H    0.211044
     5  H    0.157069
 Sum of Mulliken charges =   0.00000

 Dipole moment (field-independent basis, Debye):
    X=              0.0923    Y=             -0.0715    Z=             -0.0002  Tot=              0.1168
 Quadrupole moment (field-independent basis, Debye-Ang):
   XX=             -8.4819   YY=             -8.7335   ZZ=             -8.5324
   XY=             -0.1328   XZ=              0.0009   YZ=              0.0008

 Normal termination of Gaussian 16 at Fri Sep 22 17:14:43 2023.
