 Gaussian 16, Revision A.03,
 Gaussian 16:  ES64L-G16RevA.03 25-Dec-2016

 ----------
 # hf/3-21g
 ----------

 ------------------------
 tmpdir/M2_conf_230_5.gjf
 ------------------------
 Symbolic Z-matrix:
 Charge =  0 Multiplicity = 1

                         Standard orientation:
 ---------------------------------------------------------------------
 Center     Atomic      Atomic             Coordinates (Angstroms)
 Number     Number       Type             X           Y           Z
 ---------------------------------------------------------------------
      1          1           0       -0.470228   -0.166808    0.943594
      2          6           0       -0.016040    0.022120   -0.010454
      3          1           0       -0.727280   -0.364291   -0.715746
      4          1           0        0.292473    1.044210   -0.123427
      5          1           0        1.001272   -0.645833   -0.041698
 ---------------------------------------------------------------------

 SCF Done:  E(RHF) =  -39.9649636624     A.U. after    9 cycles

 The electronic state is 1-A.
 Alpha  occ. eigenvalues --  -11.15720  -0.93838  -0.56973  -0.53830  -0.50610
 Alpha virt. eigenvalues --    0.28232   0.32338   0.35001   0.36187   0.90591
 Alpha virt. eigenvalues --    0.93266   0.98233   1.24827   1.32715   1.35385
 Alpha virt. eigenvalues --    1.38516   1.94287

 Mulliken charges:
               1
     1  H    0.204574
     2  C   -0.773079
     3  H    0.206599
     4  H    0.208035
     5  H    0.153870
 Sum of Mulliken charges =  -0.00000

 Dipole moment (field-independent basis, Debye):
    X=             -0.1007    Y=              0.0216    Z=              0.0538  Tot=              0.1162
 Quadrupole moment (field-independent basis, Debye-Ang):
   XX=             -8.3450   YY=             -8.3978   ZZ=             -8.6920
   XY=              0.2192   XZ=              0.0235   YZ=             -0.0109

 Normal termination of Gaussian 16 at Fri Sep 22 17:19:58 2023.
