 Gaussian 16, Revision A.03,
 Gaussian 16:  ES64L-G16RevA.03 25-Dec-2016

 ----------
 # hf/3-21g
 ----------

 -----------------------
 tmpdir/M2_conf_95_3.gjf
 -----------------------
 Symbolic Z-matrix:
 Charge =  0 Multiplicity = 1

                         Standard orientation:
 ---------------------------------------------------------------------
 Center     Atomic      Atomic             Coordinates (Angstroms)
 Number     Number       Type             X           Y           Z
 ---------------------------------------------------------------------
      1          6           0       -1.174895    0.000020    0.000011
      2         17           0        0.675005   -0.000015   -0.000003
      3          1           0       -1.475263   -0.278182    0.992269
      4          1           0       -1.474938    0.998733   -0.255256
      5          1           0       -1.475514   -0.720420   -0.737021
 ---------------------------------------------------------------------

 SCF Done:  E(RHF) =  -496.688863695     A.U. after   10 cycles

 The electronic state is 1-A.
 Alpha  occ. eigenvalues -- -104.08744 -11.24543 -10.48253  -7.94636  -7.94211
 Alpha  occ. eigenvalues --   -7.94211  -1.12368  -0.92896  -0.63359  -0.63354
 Alpha  occ. eigenvalues --   -0.52060  -0.43727  -0.43727
 Alpha virt. eigenvalues --    0.18090   0.27513   0.31401   0.31404   0.73927
 Alpha virt. eigenvalues --    0.80861   0.80865   0.85492   0.93690   0.93702
 Alpha virt. eigenvalues --    0.98342   1.31386   1.31395   1.32705   1.93402

 Mulliken charges:
               1
     1  C   -0.729673
     2  Cl  -0.079544
     3  H    0.269766
     4  H    0.269738
     5  H    0.269713
 Sum of Mulliken charges =  -0.00000

 Dipole moment (field-independent basis, Debye):
    X=             -2.7257    Y=              0.0001    Z=              0.0001  Tot=              2.7257
 Quadrupole moment (field-independent basis, Debye-Ang):
   XX=            -18.8276   YY=            -20.1404   ZZ=            -20.1416
   XY=              0.0007   XZ=             -0.0001   YZ=             -0.0001

 Normal termination of Gaussian 16 at Fri Sep 22 17:16:29 2023.
