 Gaussian 16, Revision A.03,
 Gaussian 16:  ES64L-G16RevA.03 25-Dec-2016

 ----------
 # hf/3-21g
 ----------

 ------------------------
 tmpdir/M2_conf_168_0.gjf
 ------------------------
 Symbolic Z-matrix:
 Charge =  0 Multiplicity = 1

                         Standard orientation:
 ---------------------------------------------------------------------
 Center     Atomic      Atomic             Coordinates (Angstroms)
 Number     Number       Type             X           Y           Z
 ---------------------------------------------------------------------
      1          6           0       -0.031742    0.000058    0.000856
      2          1           0       -0.315699   -0.026846    1.031620
      3          1           0       -0.337105    0.906954   -0.485884
      4          1           0       -0.342270   -0.877786   -0.533528
      5          1           0        1.185523   -0.002670   -0.017343
 ---------------------------------------------------------------------

 SCF Done:  E(RHF) =  -39.9669024114     A.U. after    9 cycles

 The electronic state is 1-A.
 Alpha  occ. eigenvalues --  -11.15680  -0.93820  -0.55722  -0.55630  -0.50272
 Alpha virt. eigenvalues --    0.28332   0.32256   0.35685   0.35769   0.91738
 Alpha virt. eigenvalues --    0.91933   0.97623   1.25086   1.32599   1.36945
 Alpha virt. eigenvalues --    1.37204   1.94698

 Mulliken charges:
               1
     1  C   -0.771219
     2  H    0.207466
     3  H    0.206283
     4  H    0.206278
     5  H    0.151192
 Sum of Mulliken charges =  -0.00000

 Dipole moment (field-independent basis, Debye):
    X=             -0.0719    Y=              0.0001    Z=              0.0035  Tot=              0.0719
 Quadrupole moment (field-independent basis, Debye-Ang):
   XX=             -8.6533   YY=             -8.3862   ZZ=             -8.3899
   XY=              0.0012   XZ=              0.0043   YZ=             -0.0003

 Normal termination of Gaussian 16 at Fri Sep 22 17:18:19 2023.
