 Gaussian 16, Revision A.03,
 Gaussian 16:  ES64L-G16RevA.03 25-Dec-2016

 ----------
 # hf/3-21g
 ----------

 ------------------------
 tmpdir/M2_conf_131_6.gjf
 ------------------------
 Symbolic Z-matrix:
 Charge =  0 Multiplicity = 1

                         Standard orientation:
 ---------------------------------------------------------------------
 Center     Atomic      Atomic             Coordinates (Angstroms)
 Number     Number       Type             X           Y           Z
 ---------------------------------------------------------------------
      1          1           0       -1.360415   -0.011310    1.058705
      2          6           0       -1.202676    0.000050   -0.002981
      3         17           0        0.689220    0.000049   -0.005610
      4          1           0       -1.569913    0.897733   -0.463321
      5          1           0       -1.570358   -0.887548   -0.482135
 ---------------------------------------------------------------------

 SCF Done:  E(RHF) =  -496.686958861     A.U. after   11 cycles

 The electronic state is 1-A.
 Alpha  occ. eigenvalues -- -104.08797 -11.24993 -10.48187  -7.94561  -7.94157
 Alpha  occ. eigenvalues --   -7.94157  -1.11345  -0.93319  -0.63372  -0.63203
 Alpha  occ. eigenvalues --   -0.51228  -0.43825  -0.43599
 Alpha virt. eigenvalues --    0.16445   0.27343   0.31371   0.31417   0.73859
 Alpha virt. eigenvalues --    0.80257   0.80999   0.85592   0.92756   0.94617
 Alpha virt. eigenvalues --    0.99847   1.30953   1.31182   1.32334   1.91626

 Mulliken charges:
               1
     1  H    0.274928
     2  C   -0.703446
     3  Cl  -0.107061
     4  H    0.267799
     5  H    0.267779
 Sum of Mulliken charges =   0.00000

 Dipole moment (field-independent basis, Debye):
    X=             -2.8585    Y=             -0.0008    Z=              0.0773  Tot=              2.8595
 Quadrupole moment (field-independent basis, Debye-Ang):
   XX=            -18.5618   YY=            -20.1822   ZZ=            -20.2115
   XY=             -0.0017   XZ=              0.2092   YZ=             -0.0002

 Normal termination of Gaussian 16 at Fri Sep 22 17:17:23 2023.
