 Gaussian 16, Revision A.03,
 Gaussian 16:  ES64L-G16RevA.03 25-Dec-2016

 ----------
 # hf/3-21g
 ----------

 ------------------------
 tmpdir/M2_conf_109_6.gjf
 ------------------------
 Symbolic Z-matrix:
 Charge =  0 Multiplicity = 1

                         Standard orientation:
 ---------------------------------------------------------------------
 Center     Atomic      Atomic             Coordinates (Angstroms)
 Number     Number       Type             X           Y           Z
 ---------------------------------------------------------------------
      1          1           0       -1.680498   -0.003260    0.965267
      2          6           0       -1.202902    0.000008    0.003977
      3         17           0        0.688996   -0.000038    0.007256
      4          1           0       -1.407252    0.894617   -0.553274
      5          1           0       -1.407772   -0.890753   -0.559211
 ---------------------------------------------------------------------

 SCF Done:  E(RHF) =  -496.685387553     A.U. after   11 cycles

 The electronic state is 1-A.
 Alpha  occ. eigenvalues -- -104.08807 -11.24991 -10.48197  -7.94571  -7.94166
 Alpha  occ. eigenvalues --   -7.94166  -1.11377  -0.93307  -0.63331  -0.63301
 Alpha  occ. eigenvalues --   -0.51151  -0.43761  -0.43639
 Alpha virt. eigenvalues --    0.16314   0.27323   0.31361   0.31467   0.73872
 Alpha virt. eigenvalues --    0.80068   0.81262   0.85714   0.92377   0.94624
 Alpha virt. eigenvalues --    1.00330   1.30658   1.31306   1.32500   1.91459

 Mulliken charges:
               1
     1  H    0.264253
     2  C   -0.704910
     3  Cl  -0.106391
     4  H    0.273537
     5  H    0.273512
 Sum of Mulliken charges =  -0.00000

 Dipole moment (field-independent basis, Debye):
    X=             -2.8543    Y=              0.0004    Z=             -0.0920  Tot=              2.8558
 Quadrupole moment (field-independent basis, Debye-Ang):
   XX=            -18.5542   YY=            -20.1760   ZZ=            -20.2392
   XY=              0.0016   XZ=             -0.2728   YZ=             -0.0001

 Normal termination of Gaussian 16 at Fri Sep 22 17:16:50 2023.
