 Gaussian 16, Revision A.03,
 Gaussian 16:  ES64L-G16RevA.03 25-Dec-2016

 ----------
 # hf/3-21g
 ----------

 -----------------------
 tmpdir/M2_conf_41_7.gjf
 -----------------------
 Symbolic Z-matrix:
 Charge =  0 Multiplicity = 1

                         Standard orientation:
 ---------------------------------------------------------------------
 Center     Atomic      Atomic             Coordinates (Angstroms)
 Number     Number       Type             X           Y           Z
 ---------------------------------------------------------------------
      1          1           0       -0.368216    0.962620   -0.350035
      2          6           0       -0.033509    0.001271   -0.008865
      3          1           0       -0.131573   -0.803653   -0.712500
      4          1           0       -0.463792   -0.272032    0.935770
      5          1           0        1.164637    0.105442    0.179958
 ---------------------------------------------------------------------

 SCF Done:  E(RHF) =  -39.9663239978     A.U. after    9 cycles

 The electronic state is 1-A.
 Alpha  occ. eigenvalues --  -11.15732  -0.93783  -0.56286  -0.55155  -0.50091
 Alpha virt. eigenvalues --    0.28330   0.32119   0.35475   0.35935   0.91432
 Alpha virt. eigenvalues --    0.92623   0.97504   1.25155   1.32215   1.36483
 Alpha virt. eigenvalues --    1.37585   1.94668

 Mulliken charges:
               1
     1  H    0.207562
     2  C   -0.771660
     3  H    0.207273
     4  H    0.206213
     5  H    0.150612
 Sum of Mulliken charges =   0.00000

 Dipole moment (field-independent basis, Debye):
    X=             -0.0611    Y=             -0.0228    Z=              0.0021  Tot=              0.0652
 Quadrupole moment (field-independent basis, Debye-Ang):
   XX=             -8.6669   YY=             -8.2864   ZZ=             -8.4900
   XY=             -0.0494   XZ=             -0.0731   YZ=             -0.0087

 Normal termination of Gaussian 16 at Fri Sep 22 17:15:09 2023.
