 Gaussian 16, Revision A.03,
 Gaussian 16:  ES64L-G16RevA.03 25-Dec-2016

 ----------
 # hf/3-21g
 ----------

 ------------------------
 tmpdir/M2_conf_154_9.gjf
 ------------------------
 Symbolic Z-matrix:
 Charge =  0 Multiplicity = 1

                         Standard orientation:
 ---------------------------------------------------------------------
 Center     Atomic      Atomic             Coordinates (Angstroms)
 Number     Number       Type             X           Y           Z
 ---------------------------------------------------------------------
      1          1           0        1.343123   -0.018184    1.060854
      2          6           0        1.202756    0.000065   -0.003374
      3         17           0       -0.689141    0.000101   -0.006265
      4          1           0        1.577998   -0.884375   -0.482077
      5          1           0        1.577740    0.900453   -0.452032
 ---------------------------------------------------------------------

 SCF Done:  E(RHF) =  -496.686301985     A.U. after   11 cycles

 The electronic state is 1-A.
 Alpha  occ. eigenvalues -- -104.08804 -11.24990 -10.48195  -7.94569  -7.94164
 Alpha  occ. eigenvalues --   -7.94163  -1.11362  -0.93315  -0.63396  -0.63199
 Alpha  occ. eigenvalues --   -0.51205  -0.43840  -0.43577
 Alpha virt. eigenvalues --    0.16405   0.27346   0.31371   0.31425   0.73867
 Alpha virt. eigenvalues --    0.80205   0.81020   0.85607   0.92685   0.94720
 Alpha virt. eigenvalues --    0.99919   1.30899   1.31185   1.32334   1.91526

 Mulliken charges:
               1
     1  H    0.275486
     2  C   -0.703618
     3  Cl  -0.107080
     4  H    0.267618
     5  H    0.267594
 Sum of Mulliken charges =   0.00000

 Dipole moment (field-independent basis, Debye):
    X=              2.8563    Y=             -0.0015    Z=              0.0867  Tot=              2.8576
 Quadrupole moment (field-independent basis, Debye-Ang):
   XX=            -18.5597   YY=            -20.1830   ZZ=            -20.2192
   XY=              0.0035   XZ=             -0.2340   YZ=             -0.0002

 Normal termination of Gaussian 16 at Fri Sep 22 17:17:58 2023.
