 Gaussian 16, Revision A.03,
 Gaussian 16:  ES64L-G16RevA.03 25-Dec-2016

 ----------
 # hf/3-21g
 ----------

 -----------------------
 tmpdir/M2_conf_71_0.gjf
 -----------------------
 Symbolic Z-matrix:
 Charge =  0 Multiplicity = 1

                         Standard orientation:
 ---------------------------------------------------------------------
 Center     Atomic      Atomic             Coordinates (Angstroms)
 Number     Number       Type             X           Y           Z
 ---------------------------------------------------------------------
      1          6           0       -0.032257    0.000055    0.013691
      2          1           0       -0.151007   -0.001252    0.993822
      3          1           0       -0.409795    0.894457   -0.444713
      4          1           0       -0.414657   -0.890918   -0.447331
      5          1           0        1.168999   -0.002617   -0.183923
 ---------------------------------------------------------------------

 SCF Done:  E(RHF) =  -39.9598817977     A.U. after    9 cycles

 The electronic state is 1-A.
 Alpha  occ. eigenvalues --  -11.14726  -0.94900  -0.57531  -0.55520  -0.50289
 Alpha virt. eigenvalues --    0.28533   0.32600   0.35681   0.37622   0.87996
 Alpha virt. eigenvalues --    0.92132   0.97561   1.25388   1.34137   1.37101
 Alpha virt. eigenvalues --    1.45181   1.95984

 Mulliken charges:
               1
     1  C   -0.780216
     2  H    0.226696
     3  H    0.202988
     4  H    0.202982
     5  H    0.147550
 Sum of Mulliken charges =   0.00000

 Dipole moment (field-independent basis, Debye):
    X=             -0.0840    Y=              0.0002    Z=              0.0587  Tot=              0.1025
 Quadrupole moment (field-independent basis, Debye-Ang):
   XX=             -8.5645   YY=             -8.3029   ZZ=             -8.3771
   XY=              0.0011   XZ=              0.0448   YZ=             -0.0004

 Normal termination of Gaussian 16 at Fri Sep 22 17:15:53 2023.
