 Gaussian 16, Revision A.03,
 Gaussian 16:  ES64L-G16RevA.03 25-Dec-2016

 ----------
 # hf/3-21g
 ----------

 ------------------------
 tmpdir/M2_conf_231_7.gjf
 ------------------------
 Symbolic Z-matrix:
 Charge =  0 Multiplicity = 1

                         Standard orientation:
 ---------------------------------------------------------------------
 Center     Atomic      Atomic             Coordinates (Angstroms)
 Number     Number       Type             X           Y           Z
 ---------------------------------------------------------------------
      1          1           0       -1.068367    0.015274   -0.296928
      2          6           0       -0.028882   -0.029778   -0.032246
      3          1           0        0.818885   -0.181967   -0.673143
      4          1           0        0.162852   -0.725289    0.762536
      5          1           0        0.259920    1.070650    0.401011
 ---------------------------------------------------------------------

 SCF Done:  E(RHF) =  -39.9566910166     A.U. after    9 cycles

 The electronic state is 1-A.
 Alpha  occ. eigenvalues --  -11.15779  -0.93951  -0.58639  -0.53562  -0.48942
 Alpha virt. eigenvalues --    0.28272   0.31104   0.34761   0.36815   0.90096
 Alpha virt. eigenvalues --    0.96473   0.97284   1.25341   1.31058   1.35299
 Alpha virt. eigenvalues --    1.40310   1.94432

 Mulliken charges:
               1
     1  H    0.215979
     2  C   -0.788118
     3  H    0.217180
     4  H    0.206413
     5  H    0.148547
 Sum of Mulliken charges =  -0.00000

 Dipole moment (field-independent basis, Debye):
    X=              0.0699    Y=             -0.0641    Z=              0.0379  Tot=              0.1021
 Quadrupole moment (field-independent basis, Debye-Ang):
   XX=             -7.8679   YY=             -8.6722   ZZ=             -8.9432
   XY=             -0.1027   XZ=             -0.0256   YZ=             -0.1571

 Normal termination of Gaussian 16 at Fri Sep 22 17:19:59 2023.
