 Gaussian 16, Revision A.03,
 Gaussian 16:  ES64L-G16RevA.03 25-Dec-2016

 ----------
 # hf/3-21g
 ----------

 -----------------------
 tmpdir/M2_conf_68_7.gjf
 -----------------------
 Symbolic Z-matrix:
 Charge =  0 Multiplicity = 1

                         Standard orientation:
 ---------------------------------------------------------------------
 Center     Atomic      Atomic             Coordinates (Angstroms)
 Number     Number       Type             X           Y           Z
 ---------------------------------------------------------------------
      1          1           0       -0.326189    0.976957   -0.337453
      2          6           0       -0.032057    0.000560   -0.001665
      3          1           0       -0.302125   -0.779461   -0.688141
      4          1           0       -0.364030   -0.207424    0.997690
      5          1           0        1.184684    0.006565    0.037893
 ---------------------------------------------------------------------

 SCF Done:  E(RHF) =  -39.9668941637     A.U. after    9 cycles

 The electronic state is 1-A.
 Alpha  occ. eigenvalues --  -11.15726  -0.93776  -0.55751  -0.55552  -0.50241
 Alpha virt. eigenvalues --    0.28321   0.32214   0.35651   0.35730   0.91825
 Alpha virt. eigenvalues --    0.92038   0.97611   1.25083   1.32415   1.36859
 Alpha virt. eigenvalues --    1.37049   1.94657

 Mulliken charges:
               1
     1  H    0.206602
     2  C   -0.770769
     3  H    0.206526
     4  H    0.206421
     5  H    0.151220
 Sum of Mulliken charges =   0.00000

 Dipole moment (field-independent basis, Debye):
    X=             -0.0692    Y=             -0.0034    Z=              0.0000  Tot=              0.0693
 Quadrupole moment (field-independent basis, Debye-Ang):
   XX=             -8.6622   YY=             -8.3708   ZZ=             -8.4056
   XY=             -0.0035   XZ=             -0.0157   YZ=             -0.0004

 Normal termination of Gaussian 16 at Fri Sep 22 17:15:49 2023.
