 Gaussian 16, Revision A.03,
 Gaussian 16:  ES64L-G16RevA.03 25-Dec-2016

 ----------
 # hf/3-21g
 ----------

 ------------------------
 tmpdir/M2_conf_139_7.gjf
 ------------------------
 Symbolic Z-matrix:
 Charge =  0 Multiplicity = 1

                         Standard orientation:
 ---------------------------------------------------------------------
 Center     Atomic      Atomic             Coordinates (Angstroms)
 Number     Number       Type             X           Y           Z
 ---------------------------------------------------------------------
      1          1           0       -0.521980    0.892350   -0.349634
      2          6           0       -0.034197   -0.002753   -0.012773
      3          1           0        0.064904   -0.807407   -0.716569
      4          1           0       -0.452121   -0.379113    0.901485
      5          1           0        1.114381    0.310687    0.241358
 ---------------------------------------------------------------------

 SCF Done:  E(RHF) =  -39.9657013247     A.U. after    9 cycles

 The electronic state is 1-A.
 Alpha  occ. eigenvalues --  -11.15737  -0.93792  -0.56617  -0.54912  -0.49983
 Alpha virt. eigenvalues --    0.28332   0.32040   0.35364   0.36062   0.91199
 Alpha virt. eigenvalues --    0.93032   0.97449   1.25199   1.32074   1.36270
 Alpha virt. eigenvalues --    1.37929   1.94660

 Mulliken charges:
               1
     1  H    0.208290
     2  C   -0.772656
     3  H    0.207965
     4  H    0.206137
     5  H    0.150264
 Sum of Mulliken charges =  -0.00000

 Dipole moment (field-independent basis, Debye):
    X=             -0.0505    Y=             -0.0411    Z=              0.0051  Tot=              0.0653
 Quadrupole moment (field-independent basis, Debye-Ang):
   XX=             -8.6292   YY=             -8.2686   ZZ=             -8.5492
   XY=             -0.1358   XZ=             -0.0935   YZ=             -0.0295

 Normal termination of Gaussian 16 at Fri Sep 22 17:17:35 2023.
