 Gaussian 16, Revision A.03,
 Gaussian 16:  ES64L-G16RevA.03 25-Dec-2016

 ----------
 # hf/3-21g
 ----------

 ------------------------
 tmpdir/M2_conf_278_7.gjf
 ------------------------
 Symbolic Z-matrix:
 Charge =  0 Multiplicity = 1

                         Standard orientation:
 ---------------------------------------------------------------------
 Center     Atomic      Atomic             Coordinates (Angstroms)
 Number     Number       Type             X           Y           Z
 ---------------------------------------------------------------------
      1          1           0        0.419171   -0.237632    0.959448
      2          6           0        0.023694    0.015803   -0.005946
      3          1           0        0.616684   -0.498153   -0.738634
      4          1           0       -0.071298    1.075830   -0.145565
      5          1           0       -1.106718   -0.434862   -0.039575
 ---------------------------------------------------------------------

 SCF Done:  E(RHF) =  -39.9663831621     A.U. after    9 cycles

 The electronic state is 1-A.
 Alpha  occ. eigenvalues --  -11.15720  -0.93799  -0.56441  -0.54556  -0.50495
 Alpha virt. eigenvalues --    0.28276   0.32324   0.35272   0.36008   0.91034
 Alpha virt. eigenvalues --    0.92730   0.97948   1.24923   1.32700   1.35949
 Alpha virt. eigenvalues --    1.37839   1.94496

 Mulliken charges:
               1
     1  H    0.205144
     2  C   -0.771388
     3  H    0.206174
     4  H    0.207287
     5  H    0.152784
 Sum of Mulliken charges =  -0.00000

 Dipole moment (field-independent basis, Debye):
    X=              0.0874    Y=              0.0119    Z=              0.0323  Tot=              0.0939
 Quadrupole moment (field-independent basis, Debye-Ang):
   XX=             -8.5074   YY=             -8.3554   ZZ=             -8.5710
   XY=             -0.1646   XZ=             -0.0214   YZ=             -0.0059

 Normal termination of Gaussian 16 at Fri Sep 22 17:21:11 2023.
