 Gaussian 16, Revision A.03,
 Gaussian 16:  ES64L-G16RevA.03 25-Dec-2016

 ----------
 # hf/3-21g
 ----------

 -----------------------
 tmpdir/M2_conf_96_4.gjf
 -----------------------
 Symbolic Z-matrix:
 Charge =  0 Multiplicity = 1

                         Standard orientation:
 ---------------------------------------------------------------------
 Center     Atomic      Atomic             Coordinates (Angstroms)
 Number     Number       Type             X           Y           Z
 ---------------------------------------------------------------------
      1          1           0       -0.329610    0.971141   -0.352701
      2          6           0       -0.032356    0.000750   -0.003173
      3          1           0       -0.268235   -0.792387   -0.687214
      4          1           0       -0.390573   -0.206219    0.987508
      5          1           0        1.182556    0.022962    0.071446
 ---------------------------------------------------------------------

 SCF Done:  E(RHF) =  -39.9668294559     A.U. after    9 cycles

 The electronic state is 1-A.
 Alpha  occ. eigenvalues --  -11.15727  -0.93777  -0.55850  -0.55478  -0.50216
 Alpha virt. eigenvalues --    0.28323   0.32200   0.35617   0.35770   0.91762
 Alpha virt. eigenvalues --    0.92127   0.97590   1.25096   1.32383   1.36779
 Alpha virt. eigenvalues --    1.37152   1.94661

 Mulliken charges:
               1
     1  H    0.206809
     2  C   -0.770866
     3  H    0.206637
     4  H    0.206316
     5  H    0.151104
 Sum of Mulliken charges =  -0.00000

 Dipole moment (field-independent basis, Debye):
    X=             -0.0679    Y=             -0.0068    Z=             -0.0003  Tot=              0.0682
 Quadrupole moment (field-independent basis, Debye-Ang):
   XX=             -8.6650   YY=             -8.3554   ZZ=             -8.4190
   XY=             -0.0113   XZ=             -0.0293   YZ=             -0.0013

 Normal termination of Gaussian 16 at Fri Sep 22 17:16:31 2023.
