 Gaussian 16, Revision A.03,
 Gaussian 16:  ES64L-G16RevA.03 25-Dec-2016

 ----------
 # hf/3-21g
 ----------

 -----------------------
 tmpdir/M2_conf_50_2.gjf
 -----------------------
 Symbolic Z-matrix:
 Charge =  0 Multiplicity = 1

                         Standard orientation:
 ---------------------------------------------------------------------
 Center     Atomic      Atomic             Coordinates (Angstroms)
 Number     Number       Type             X           Y           Z
 ---------------------------------------------------------------------
      1          6           0        0.032226    0.000014    0.008954
      2          1           0        0.195726   -0.004830    1.018184
      3          1           0        0.395652   -0.889225   -0.469977
      4          1           0        0.391208    0.895909   -0.461286
      5          1           0       -1.175944   -0.001938   -0.140644
 ---------------------------------------------------------------------

 SCF Done:  E(RHF) =  -39.9644306609     A.U. after    9 cycles

 The electronic state is 1-A.
 Alpha  occ. eigenvalues --  -11.15128  -0.94405  -0.56757  -0.55565  -0.50286
 Alpha virt. eigenvalues --    0.28464   0.32489   0.35686   0.36812   0.89594
 Alpha virt. eigenvalues --    0.92037   0.97549   1.25276   1.33716   1.37050
 Alpha virt. eigenvalues --    1.41328   1.95359

 Mulliken charges:
               1
     1  C   -0.776959
     2  H    0.218869
     3  H    0.204499
     4  H    0.204453
     5  H    0.149138
 Sum of Mulliken charges =   0.00000

 Dipole moment (field-independent basis, Debye):
    X=              0.0801    Y=             -0.0001    Z=              0.0379  Tot=              0.0886
 Quadrupole moment (field-independent basis, Debye-Ang):
   XX=             -8.6033   YY=             -8.3392   ZZ=             -8.3823
   XY=             -0.0011   XZ=             -0.0349   YZ=             -0.0005

 Normal termination of Gaussian 16 at Fri Sep 22 17:15:22 2023.
