 Gaussian 16, Revision A.03,
 Gaussian 16:  ES64L-G16RevA.03 25-Dec-2016

 ----------
 # hf/3-21g
 ----------

 -----------------------
 tmpdir/M2_conf_55_0.gjf
 -----------------------
 Symbolic Z-matrix:
 Charge =  0 Multiplicity = 1

                         Standard orientation:
 ---------------------------------------------------------------------
 Center     Atomic      Atomic             Coordinates (Angstroms)
 Number     Number       Type             X           Y           Z
 ---------------------------------------------------------------------
      1          6           0       -0.028969   -0.010562   -0.000056
      2          1           0       -0.582307    0.950524   -0.003364
      3          1           0       -0.196215   -0.584004   -0.892141
      4          1           0       -0.201550   -0.580526    0.893231
      5          1           0        1.153889    0.277380    0.002609
 ---------------------------------------------------------------------

 SCF Done:  E(RHF) =  -39.9664303884     A.U. after    9 cycles

 The electronic state is 1-A.
 Alpha  occ. eigenvalues --  -11.16141  -0.93401  -0.55695  -0.54880  -0.50241
 Alpha virt. eigenvalues --    0.28172   0.31950   0.35004   0.35686   0.91846
 Alpha virt. eigenvalues --    0.93410   0.97863   1.24862   1.30632   1.35294
 Alpha virt. eigenvalues --    1.36852   1.94232

 Mulliken charges:
               1
     1  C   -0.765321
     2  H    0.197166
     3  H    0.207673
     4  H    0.207670
     5  H    0.152812
 Sum of Mulliken charges =   0.00000

 Dipole moment (field-independent basis, Debye):
    X=             -0.0538    Y=             -0.0359    Z=             -0.0001  Tot=              0.0646
 Quadrupole moment (field-independent basis, Debye-Ang):
   XX=             -8.6706   YY=             -8.4181   ZZ=             -8.4244
   XY=             -0.0714   XZ=             -0.0012   YZ=             -0.0000

 Normal termination of Gaussian 16 at Fri Sep 22 17:15:29 2023.
