 Gaussian 16, Revision A.03,
 Gaussian 16:  ES64L-G16RevA.03 25-Dec-2016

 ----------
 # hf/3-21g
 ----------

 ------------------------
 tmpdir/M2_conf_297_0.gjf
 ------------------------
 Symbolic Z-matrix:
 Charge =  0 Multiplicity = 1

                         Standard orientation:
 ---------------------------------------------------------------------
 Center     Atomic      Atomic             Coordinates (Angstroms)
 Number     Number       Type             X           Y           Z
 ---------------------------------------------------------------------
      1          6           0       -0.032174    0.000056    0.007638
      2          1           0       -0.209978   -0.002638    1.023492
      3          1           0       -0.384906    0.895147   -0.468823
      4          1           0       -0.389892   -0.890222   -0.474075
      5          1           0        1.177822   -0.002621   -0.126425
 ---------------------------------------------------------------------

 SCF Done:  E(RHF) =  -39.9651914229     A.U. after    9 cycles

 The electronic state is 1-A.
 Alpha  occ. eigenvalues --  -11.15234  -0.94286  -0.56558  -0.55575  -0.50285
 Alpha virt. eigenvalues --    0.28442   0.32452   0.35684   0.36608   0.90002
 Alpha virt. eigenvalues --    0.92023   0.97555   1.25243   1.33561   1.37025
 Alpha virt. eigenvalues --    1.40436   1.95219

 Mulliken charges:
               1
     1  C   -0.775964
     2  H    0.216799
     3  H    0.204815
     4  H    0.204810
     5  H    0.149541
 Sum of Mulliken charges =  -0.00000

 Dipole moment (field-independent basis, Debye):
    X=             -0.0788    Y=              0.0001    Z=              0.0324  Tot=              0.0852
 Quadrupole moment (field-independent basis, Debye-Ang):
   XX=             -8.6130   YY=             -8.3481   ZZ=             -8.3842
   XY=              0.0012   XZ=              0.0318   YZ=             -0.0004

 Normal termination of Gaussian 16 at Fri Sep 22 17:21:45 2023.
