 Gaussian 16, Revision A.03,
 Gaussian 16:  ES64L-G16RevA.03 25-Dec-2016

 ----------
 # hf/3-21g
 ----------

 ------------------------
 tmpdir/M2_conf_207_8.gjf
 ------------------------
 Symbolic Z-matrix:
 Charge =  0 Multiplicity = 1

                         Standard orientation:
 ---------------------------------------------------------------------
 Center     Atomic      Atomic             Coordinates (Angstroms)
 Number     Number       Type             X           Y           Z
 ---------------------------------------------------------------------
      1          1           0       -0.899381   -0.000440    1.010162
      2          6           0       -1.207931   -0.000010   -0.018144
      3         17           0        0.683971    0.000016   -0.019205
      4          1           0       -1.740121   -0.892363   -0.287693
      5          1           0       -1.740418    0.892587   -0.287119
 ---------------------------------------------------------------------

 SCF Done:  E(RHF) =  -496.637728932     A.U. after   11 cycles

 The electronic state is 1-A.
 Alpha  occ. eigenvalues -- -104.09413 -11.24599 -10.48889  -7.95251  -7.94837
 Alpha  occ. eigenvalues --   -7.94818  -1.12899  -0.92958  -0.64765  -0.63034
 Alpha  occ. eigenvalues --   -0.50418  -0.44644  -0.42034
 Alpha virt. eigenvalues --    0.14164   0.28056   0.31601   0.31715   0.74182
 Alpha virt. eigenvalues --    0.78848   0.80574   0.84739   0.93891   0.97146
 Alpha virt. eigenvalues --    1.02275   1.28020   1.31291   1.31697   1.85653

 Mulliken charges:
               1
     1  H    0.289535
     2  C   -0.710068
     3  Cl  -0.112806
     4  H    0.266692
     5  H    0.266648
 Sum of Mulliken charges =  -0.00000

 Dipole moment (field-independent basis, Debye):
    X=             -2.6644    Y=             -0.0003    Z=              0.3496  Tot=              2.6872
 Quadrupole moment (field-independent basis, Debye-Ang):
   XX=            -18.5185   YY=            -20.1655   ZZ=            -20.7448
   XY=             -0.0005   XZ=              0.7009   YZ=              0.0000

 Normal termination of Gaussian 16 at Fri Sep 22 17:19:23 2023.
