 Gaussian 16, Revision A.03,
 Gaussian 16:  ES64L-G16RevA.03 25-Dec-2016

 ----------
 # hf/3-21g
 ----------

 ------------------------
 tmpdir/M2_conf_282_5.gjf
 ------------------------
 Symbolic Z-matrix:
 Charge =  0 Multiplicity = 1

                         Standard orientation:
 ---------------------------------------------------------------------
 Center     Atomic      Atomic             Coordinates (Angstroms)
 Number     Number       Type             X           Y           Z
 ---------------------------------------------------------------------
      1          1           0        1.047721    0.078419   -0.327854
      2          6           0        0.023897   -0.028869   -0.023780
      3          1           0       -0.767355   -0.286675   -0.702061
      4          1           0       -0.088405   -0.688760    0.815590
      5          1           0       -0.335342    1.070228    0.357002
 ---------------------------------------------------------------------

 SCF Done:  E(RHF) =  -39.9620847697     A.U. after    9 cycles

 The electronic state is 1-A.
 Alpha  occ. eigenvalues --  -11.15756  -0.93854  -0.57702  -0.54146  -0.49523
 Alpha virt. eigenvalues --    0.28316   0.31652   0.35012   0.36473   0.90533
 Alpha virt. eigenvalues --    0.94649   0.97321   1.25316   1.31558   1.35668
 Alpha virt. eigenvalues --    1.39138   1.94571

 Mulliken charges:
               1
     1  H    0.211646
     2  C   -0.778710
     3  H    0.211706
     4  H    0.206092
     5  H    0.149266
 Sum of Mulliken charges =   0.00000

 Dipole moment (field-independent basis, Debye):
    X=             -0.0375    Y=             -0.0657    Z=              0.0202  Tot=              0.0783
 Quadrupole moment (field-independent basis, Debye-Ang):
   XX=             -8.0606   YY=             -8.6483   ZZ=             -8.7544
   XY=              0.1346   XZ=              0.0347   YZ=             -0.1379

 Normal termination of Gaussian 16 at Fri Sep 22 17:21:17 2023.
