 Gaussian 16, Revision A.03,
 Gaussian 16:  ES64L-G16RevA.03 25-Dec-2016

 ----------
 # hf/3-21g
 ----------

 ------------------------
 tmpdir/M2_conf_238_2.gjf
 ------------------------
 Symbolic Z-matrix:
 Charge =  0 Multiplicity = 1

                         Standard orientation:
 ---------------------------------------------------------------------
 Center     Atomic      Atomic             Coordinates (Angstroms)
 Number     Number       Type             X           Y           Z
 ---------------------------------------------------------------------
      1          6           0        0.000407   -0.031023    0.000016
      2          1           0       -1.202537    0.201964    0.001789
      3          1           0        0.319610   -0.534625   -0.892560
      4          1           0        0.323208   -0.532743    0.892596
      5          1           0        0.557280    1.051541   -0.001921
 ---------------------------------------------------------------------

 SCF Done:  E(RHF) =  -39.9559262790     A.U. after    9 cycles

 The electronic state is 1-A.
 Alpha  occ. eigenvalues --  -11.17459  -0.92483  -0.55920  -0.52777  -0.49844
 Alpha virt. eigenvalues --    0.27134   0.30475   0.33721   0.35682   0.91616
 Alpha virt. eigenvalues --    0.95745   1.01043   1.22003   1.25548   1.33630
 Alpha virt. eigenvalues --    1.36540   1.92910

 Mulliken charges:
               1
     1  C   -0.742683
     2  H    0.163767
     3  H    0.211009
     4  H    0.210957
     5  H    0.156950
 Sum of Mulliken charges =   0.00000

 Dipole moment (field-independent basis, Debye):
    X=              0.0883    Y=             -0.0718    Z=             -0.0002  Tot=              0.1138
 Quadrupole moment (field-independent basis, Debye-Ang):
   XX=             -8.4827   YY=             -8.7289   ZZ=             -8.5292
   XY=             -0.1339   XZ=              0.0009   YZ=              0.0008

 Normal termination of Gaussian 16 at Fri Sep 22 17:20:10 2023.
