 Gaussian 16, Revision A.03,
 Gaussian 16:  ES64L-G16RevA.03 25-Dec-2016

 ----------
 # hf/3-21g
 ----------

 ------------------------
 tmpdir/M2_conf_231_2.gjf
 ------------------------
 Symbolic Z-matrix:
 Charge =  0 Multiplicity = 1

                         Standard orientation:
 ---------------------------------------------------------------------
 Center     Atomic      Atomic             Coordinates (Angstroms)
 Number     Number       Type             X           Y           Z
 ---------------------------------------------------------------------
      1          6           0        0.032269    0.000014    0.012208
      2          1           0        0.163844   -0.003264    1.002298
      3          1           0        0.408982   -0.890016   -0.454841
      4          1           0        0.404710    0.895130   -0.448960
      5          1           0       -1.171150   -0.001933   -0.171743
 ---------------------------------------------------------------------

 SCF Done:  E(RHF) =  -39.9616618227     A.U. after    9 cycles

 The electronic state is 1-A.
 Alpha  occ. eigenvalues --  -11.14855  -0.94733  -0.57279  -0.55535  -0.50288
 Alpha virt. eigenvalues --    0.28513   0.32569   0.35684   0.37357   0.88517
 Alpha virt. eigenvalues --    0.92096   0.97552   1.25354   1.34024   1.37091
 Alpha virt. eigenvalues --    1.43867   1.95763

 Mulliken charges:
               1
     1  C   -0.779261
     2  H    0.224193
     3  H    0.203520
     4  H    0.203475
     5  H    0.148072
 Sum of Mulliken charges =   0.00000

 Dipole moment (field-independent basis, Debye):
    X=              0.0829    Y=             -0.0001    Z=              0.0521  Tot=              0.0979
 Quadrupole moment (field-independent basis, Debye-Ang):
   XX=             -8.5773   YY=             -8.3149   ZZ=             -8.3786
   XY=             -0.0011   XZ=             -0.0420   YZ=             -0.0005

 Normal termination of Gaussian 16 at Fri Sep 22 17:19:59 2023.
