 Gaussian 16, Revision A.03,
 Gaussian 16:  ES64L-G16RevA.03 25-Dec-2016

 ----------
 # hf/3-21g
 ----------

 ------------------------
 tmpdir/M2_conf_197_1.gjf
 ------------------------
 Symbolic Z-matrix:
 Charge =  0 Multiplicity = 1

                         Standard orientation:
 ---------------------------------------------------------------------
 Center     Atomic      Atomic             Coordinates (Angstroms)
 Number     Number       Type             X           Y           Z
 ---------------------------------------------------------------------
      1          6           0       -0.020492   -0.022553    0.000059
      2          1           0       -0.918247    0.679225   -0.002209
      3          1           0        0.036543   -0.613682    0.894203
      4          1           0        0.037199   -0.619016   -0.890732
      5          1           0        0.967457    0.688791   -0.001616
 ---------------------------------------------------------------------

 SCF Done:  E(RHF) =  -39.9648050130     A.U. after    9 cycles

 The electronic state is 1-A.
 Alpha  occ. eigenvalues --  -11.16492  -0.93119  -0.55747  -0.54266  -0.50194
 Alpha virt. eigenvalues --    0.28003   0.31624   0.34529   0.35686   0.91770
 Alpha virt. eigenvalues --    0.94473   0.98287   1.24590   1.28725   1.34611
 Alpha virt. eigenvalues --    1.36779   1.93896

 Mulliken charges:
               1
     1  C   -0.760140
     2  H    0.188812
     3  H    0.208699
     4  H    0.208643
     5  H    0.153986
 Sum of Mulliken charges =   0.00000

 Dipole moment (field-independent basis, Debye):
    X=             -0.0166    Y=             -0.0652    Z=              0.0003  Tot=              0.0673
 Quadrupole moment (field-independent basis, Debye-Ang):
   XX=             -8.6015   YY=             -8.5200   ZZ=             -8.4537
   XY=             -0.1501   XZ=              0.0003   YZ=              0.0004

 Normal termination of Gaussian 16 at Fri Sep 22 17:19:08 2023.
