 Gaussian 16, Revision A.03,
 Gaussian 16:  ES64L-G16RevA.03 25-Dec-2016

 ----------
 # hf/3-21g
 ----------

 ------------------------
 tmpdir/M2_conf_208_5.gjf
 ------------------------
 Symbolic Z-matrix:
 Charge =  0 Multiplicity = 1

                         Standard orientation:
 ---------------------------------------------------------------------
 Center     Atomic      Atomic             Coordinates (Angstroms)
 Number     Number       Type             X           Y           Z
 ---------------------------------------------------------------------
      1          1           0       -0.473849   -0.161632    0.942021
      2          6           0       -0.015339    0.022527   -0.010891
      3          1           0       -0.734482   -0.353833   -0.713607
      4          1           0        0.308072    1.040272   -0.121386
      5          1           0        0.992290   -0.659967   -0.041684
 ---------------------------------------------------------------------

 SCF Done:  E(RHF) =  -39.9647866838     A.U. after    9 cycles

 The electronic state is 1-A.
 Alpha  occ. eigenvalues --  -11.15720  -0.93842  -0.57024  -0.53760  -0.50620
 Alpha virt. eigenvalues --    0.28227   0.32338   0.34974   0.36202   0.90556
 Alpha virt. eigenvalues --    0.93314   0.98265   1.24818   1.32710   1.35335
 Alpha virt. eigenvalues --    1.38584   1.94262

 Mulliken charges:
               1
     1  H    0.204518
     2  C   -0.773278
     3  H    0.206657
     4  H    0.208123
     5  H    0.153980
 Sum of Mulliken charges =   0.00000

 Dipole moment (field-independent basis, Debye):
    X=             -0.1022    Y=              0.0223    Z=              0.0559  Tot=              0.1186
 Quadrupole moment (field-independent basis, Debye-Ang):
   XX=             -8.3299   YY=             -8.4015   ZZ=             -8.7036
   XY=              0.2218   XZ=              0.0236   YZ=             -0.0113

 Normal termination of Gaussian 16 at Fri Sep 22 17:19:24 2023.
