 Gaussian 16, Revision A.03,
 Gaussian 16:  ES64L-G16RevA.03 25-Dec-2016

 ----------
 # hf/3-21g
 ----------

 ------------------------
 tmpdir/M2_conf_196_4.gjf
 ------------------------
 Symbolic Z-matrix:
 Charge =  0 Multiplicity = 1

                         Standard orientation:
 ---------------------------------------------------------------------
 Center     Atomic      Atomic             Coordinates (Angstroms)
 Number     Number       Type             X           Y           Z
 ---------------------------------------------------------------------
      1          1           0        0.408246   -0.248576    0.962477
      2          6           0        0.025080    0.014064   -0.005196
      3          1           0        0.585538   -0.530333   -0.741496
      4          1           0       -0.018460    1.076261   -0.155012
      5          1           0       -1.125806   -0.381736   -0.034790
 ---------------------------------------------------------------------

 SCF Done:  E(RHF) =  -39.9665559494     A.U. after    9 cycles

 The electronic state is 1-A.
 Alpha  occ. eigenvalues --  -11.15720  -0.93794  -0.56338  -0.54694  -0.50471
 Alpha virt. eigenvalues --    0.28283   0.32317   0.35326   0.35969   0.91120
 Alpha virt. eigenvalues --    0.92639   0.97901   1.24940   1.32676   1.36077
 Alpha virt. eigenvalues --    1.37713   1.94525

 Mulliken charges:
               1
     1  H    0.205330
     2  C   -0.771172
     3  H    0.206146
     4  H    0.207105
     5  H    0.152590
 Sum of Mulliken charges =  -0.00000

 Dipole moment (field-independent basis, Debye):
    X=              0.0853    Y=              0.0097    Z=              0.0282  Tot=              0.0904
 Quadrupole moment (field-independent basis, Debye-Ang):
   XX=             -8.5363   YY=             -8.3489   ZZ=             -8.5486
   XY=             -0.1472   XZ=             -0.0190   YZ=             -0.0045

 Normal termination of Gaussian 16 at Fri Sep 22 17:19:06 2023.
