 Gaussian 16, Revision A.03,
 Gaussian 16:  ES64L-G16RevA.03 25-Dec-2016

 ----------
 # hf/3-21g
 ----------

 ------------------------
 tmpdir/M2_conf_208_8.gjf
 ------------------------
 Symbolic Z-matrix:
 Charge =  0 Multiplicity = 1

                         Standard orientation:
 ---------------------------------------------------------------------
 Center     Atomic      Atomic             Coordinates (Angstroms)
 Number     Number       Type             X           Y           Z
 ---------------------------------------------------------------------
      1          1           0       -0.891258   -0.000423    1.007232
      2          6           0       -1.208085   -0.000010   -0.018554
      3         17           0        0.683819    0.000016   -0.019345
      4          1           0       -1.742428   -0.892369   -0.283791
      5          1           0       -1.742726    0.892580   -0.283243
 ---------------------------------------------------------------------

 SCF Done:  E(RHF) =  -496.636103849     A.U. after   11 cycles

 The electronic state is 1-A.
 Alpha  occ. eigenvalues -- -104.09437 -11.24580 -10.48917  -7.95278  -7.94864
 Alpha  occ. eigenvalues --   -7.94844  -1.12958  -0.92945  -0.64804  -0.63027
 Alpha  occ. eigenvalues --   -0.50415  -0.44671  -0.41975
 Alpha virt. eigenvalues --    0.14105   0.28088   0.31611   0.31725   0.74185
 Alpha virt. eigenvalues --    0.78819   0.80559   0.84717   0.93930   0.97183
 Alpha virt. eigenvalues --    1.02313   1.27927   1.31300   1.31671   1.85509

 Mulliken charges:
               1
     1  H    0.289774
     2  C   -0.710291
     3  Cl  -0.112932
     4  H    0.266747
     5  H    0.266703
 Sum of Mulliken charges =  -0.00000

 Dipole moment (field-independent basis, Debye):
    X=             -2.6566    Y=             -0.0002    Z=              0.3550  Tot=              2.6803
 Quadrupole moment (field-independent basis, Debye-Ang):
   XX=            -18.5198   YY=            -20.1644   ZZ=            -20.7598
   XY=             -0.0004   XZ=              0.7049   YZ=              0.0000

 Normal termination of Gaussian 16 at Fri Sep 22 17:19:25 2023.
