 Gaussian 16, Revision A.03,
 Gaussian 16:  ES64L-G16RevA.03 25-Dec-2016

 ----------
 # hf/3-21g
 ----------

 ------------------------
 tmpdir/M2_conf_218_5.gjf
 ------------------------
 Symbolic Z-matrix:
 Charge =  0 Multiplicity = 1

                         Standard orientation:
 ---------------------------------------------------------------------
 Center     Atomic      Atomic             Coordinates (Angstroms)
 Number     Number       Type             X           Y           Z
 ---------------------------------------------------------------------
      1          1           0        1.051143    0.061858   -0.324143
      2          6           0        0.024306   -0.029140   -0.024957
      3          1           0       -0.777554   -0.264979   -0.698767
      4          1           0       -0.103611   -0.694832    0.807570
      5          1           0       -0.315811    1.072792    0.365080
 ---------------------------------------------------------------------

 SCF Done:  E(RHF) =  -39.9614887790     A.U. after    9 cycles

 The electronic state is 1-A.
 Alpha  occ. eigenvalues --  -11.15759  -0.93864  -0.57829  -0.54062  -0.49456
 Alpha virt. eigenvalues --    0.28312   0.31591   0.34974   0.36520   0.90466
 Alpha virt. eigenvalues --    0.94872   0.97311   1.25325   1.31493   1.35610
 Alpha virt. eigenvalues --    1.39287   1.94555

 Mulliken charges:
               1
     1  H    0.212144
     2  C   -0.779734
     3  H    0.212311
     4  H    0.206117
     5  H    0.149162
 Sum of Mulliken charges =   0.00000

 Dipole moment (field-independent basis, Debye):
    X=             -0.0423    Y=             -0.0653    Z=              0.0223  Tot=              0.0809
 Quadrupole moment (field-independent basis, Debye-Ang):
   XX=             -8.0329   YY=             -8.6535   ZZ=             -8.7793
   XY=              0.1266   XZ=              0.0326   YZ=             -0.1416

 Normal termination of Gaussian 16 at Fri Sep 22 17:19:40 2023.
