 Gaussian 16, Revision A.03,
 Gaussian 16:  ES64L-G16RevA.03 25-Dec-2016

 ----------
 # hf/3-21g
 ----------

 -----------------------
 tmpdir/M2_conf_38_4.gjf
 -----------------------
 Symbolic Z-matrix:
 Charge =  0 Multiplicity = 1

                         Standard orientation:
 ---------------------------------------------------------------------
 Center     Atomic      Atomic             Coordinates (Angstroms)
 Number     Number       Type             X           Y           Z
 ---------------------------------------------------------------------
      1          1           0       -1.032919    0.157848   -0.337043
      2          6           0       -0.023986   -0.027367   -0.020915
      3          1           0        0.726949   -0.367816   -0.708526
      4          1           0        0.025906   -0.672859    0.835505
      5          1           0        0.423981    1.047029    0.335556
 ---------------------------------------------------------------------

 SCF Done:  E(RHF) =  -39.9633632479     A.U. after    9 cycles

 The electronic state is 1-A.
 Alpha  occ. eigenvalues --  -11.15750  -0.93831  -0.57396  -0.54357  -0.49671
 Alpha virt. eigenvalues --    0.28324   0.31784   0.35106   0.36359   0.90707
 Alpha virt. eigenvalues --    0.94142   0.97352   1.25287   1.31712   1.35820
 Alpha virt. eigenvalues --    1.38783   1.94601

 Mulliken charges:
               1
     1  H    0.210547
     2  C   -0.776520
     3  H    0.210402
     4  H    0.206044
     5  H    0.149527
 Sum of Mulliken charges =  -0.00000

 Dipole moment (field-independent basis, Debye):
    X=              0.0233    Y=             -0.0672    Z=              0.0151  Tot=              0.0727
 Quadrupole moment (field-independent basis, Debye-Ang):
   XX=             -8.1394   YY=             -8.6226   ZZ=             -8.6961
   XY=             -0.1682   XZ=             -0.0440   YZ=             -0.1267

 Normal termination of Gaussian 16 at Fri Sep 22 17:15:04 2023.
