 Gaussian 16, Revision A.03,
 Gaussian 16:  ES64L-G16RevA.03 25-Dec-2016

 ----------
 # hf/3-21g
 ----------

 ------------------------
 tmpdir/M2_conf_206_2.gjf
 ------------------------
 Symbolic Z-matrix:
 Charge =  0 Multiplicity = 1

                         Standard orientation:
 ---------------------------------------------------------------------
 Center     Atomic      Atomic             Coordinates (Angstroms)
 Number     Number       Type             X           Y           Z
 ---------------------------------------------------------------------
      1          6           0        0.003037   -0.030519   -0.000016
      2          1           0        1.173821    0.252041   -0.002057
      3          1           0       -0.292730   -0.548004    0.892694
      4          1           0       -0.296808   -0.546518   -0.892462
      5          1           0       -0.602502    1.025595    0.001920
 ---------------------------------------------------------------------

 SCF Done:  E(RHF) =  -39.9585666359     A.U. after    9 cycles

 The electronic state is 1-A.
 Alpha  occ. eigenvalues --  -11.17228  -0.92618  -0.55876  -0.53088  -0.49974
 Alpha virt. eigenvalues --    0.27415   0.30754   0.33856   0.35684   0.91652
 Alpha virt. eigenvalues --    0.95615   1.00233   1.22921   1.25894   1.33816
 Alpha virt. eigenvalues --    1.36601   1.93162

 Mulliken charges:
               1
     1  C   -0.747284
     2  H    0.170043
     3  H    0.210508
     4  H    0.210456
     5  H    0.156278
 Sum of Mulliken charges =  -0.00000

 Dipole moment (field-independent basis, Debye):
    X=             -0.0660    Y=             -0.0731    Z=              0.0002  Tot=              0.0985
 Quadrupole moment (field-independent basis, Debye-Ang):
   XX=             -8.4903   YY=             -8.7003   ZZ=             -8.5113
   XY=              0.1409   XZ=              0.0009   YZ=             -0.0008

 Normal termination of Gaussian 16 at Fri Sep 22 17:19:21 2023.
