 Gaussian 16, Revision A.03,
 Gaussian 16:  ES64L-G16RevA.03 25-Dec-2016

 ----------
 # hf/3-21g
 ----------

 ------------------------
 tmpdir/M2_conf_221_1.gjf
 ------------------------
 Symbolic Z-matrix:
 Charge =  0 Multiplicity = 1

                         Standard orientation:
 ---------------------------------------------------------------------
 Center     Atomic      Atomic             Coordinates (Angstroms)
 Number     Number       Type             X           Y           Z
 ---------------------------------------------------------------------
      1          6           0       -0.031983   -0.000061    0.003667
      2          1           0       -0.264650   -0.008253    1.033479
      3          1           0       -0.362379   -0.888969   -0.499187
      4          1           0       -0.364216    0.895923   -0.485660
      5          1           0        1.183144    0.001665   -0.070631
 ---------------------------------------------------------------------

 SCF Done:  E(RHF) =  -39.9665579900     A.U. after    9 cycles

 The electronic state is 1-A.
 Alpha  occ. eigenvalues --  -11.15517  -0.93982  -0.56026  -0.55608  -0.50278
 Alpha virt. eigenvalues --    0.28376   0.32337   0.35686   0.36065   0.91125
 Alpha virt. eigenvalues --    0.91954   0.97585   1.25149   1.33039   1.36980
 Alpha virt. eigenvalues --    1.38236   1.94877

 Mulliken charges:
               1
     1  C   -0.773063
     2  H    0.210889
     3  H    0.205815
     4  H    0.205760
     5  H    0.150600
 Sum of Mulliken charges =  -0.00000

 Dipole moment (field-independent basis, Debye):
    X=             -0.0748    Y=             -0.0003    Z=              0.0148  Tot=              0.0763
 Quadrupole moment (field-independent basis, Debye-Ang):
   XX=             -8.6391   YY=             -8.3733   ZZ=             -8.3867
   XY=             -0.0005   XZ=              0.0188   YZ=             -0.0001

 Normal termination of Gaussian 16 at Fri Sep 22 17:19:44 2023.
