 Gaussian 16, Revision A.03,
 Gaussian 16:  ES64L-G16RevA.03 25-Dec-2016

 ----------
 # hf/3-21g
 ----------

 -----------------------
 tmpdir/M2_conf_11_1.gjf
 -----------------------
 Symbolic Z-matrix:
 Charge =  0 Multiplicity = 1

                         Standard orientation:
 ---------------------------------------------------------------------
 Center     Atomic      Atomic             Coordinates (Angstroms)
 Number     Number       Type             X           Y           Z
 ---------------------------------------------------------------------
      1          6           0       -0.032214   -0.000060    0.009923
      2          1           0       -0.182737   -0.002490    1.014910
      3          1           0       -0.398008   -0.891863   -0.462374
      4          1           0       -0.400143    0.893076   -0.458630
      5          1           0        1.174171    0.001638   -0.153442
 ---------------------------------------------------------------------

 SCF Done:  E(RHF) =  -39.9638120691     A.U. after    9 cycles

 The electronic state is 1-A.
 Alpha  occ. eigenvalues --  -11.15056  -0.94489  -0.56897  -0.55554  -0.50287
 Alpha virt. eigenvalues --    0.28477   0.32513   0.35684   0.36955   0.89313
 Alpha virt. eigenvalues --    0.92048   0.97549   1.25298   1.33809   1.37058
 Alpha virt. eigenvalues --    1.41974   1.95459

 Mulliken charges:
               1
     1  C   -0.777603
     2  H    0.220302
     3  H    0.204249
     4  H    0.204195
     5  H    0.148857
 Sum of Mulliken charges =   0.00000

 Dipole moment (field-independent basis, Debye):
    X=             -0.0808    Y=             -0.0003    Z=              0.0421  Tot=              0.0911
 Quadrupole moment (field-independent basis, Debye-Ang):
   XX=             -8.5959   YY=             -8.3334   ZZ=             -8.3814
   XY=             -0.0005   XZ=              0.0390   YZ=             -0.0001

 Normal termination of Gaussian 16 at Fri Sep 22 17:14:24 2023.
