 Gaussian 16, Revision A.03,
 Gaussian 16:  ES64L-G16RevA.03 25-Dec-2016

 ----------
 # hf/3-21g
 ----------

 ------------------------
 tmpdir/M2_conf_204_7.gjf
 ------------------------
 Symbolic Z-matrix:
 Charge =  0 Multiplicity = 1

                         Standard orientation:
 ---------------------------------------------------------------------
 Center     Atomic      Atomic             Coordinates (Angstroms)
 Number     Number       Type             X           Y           Z
 ---------------------------------------------------------------------
      1          1           0       -1.055839    0.040966   -0.318349
      2          6           0       -0.025022   -0.029506   -0.026685
      3          1           0        0.790893   -0.236460   -0.693069
      4          1           0        0.123999   -0.702667    0.796006
      5          1           0        0.291081    1.075196    0.375523
 ---------------------------------------------------------------------

 SCF Done:  E(RHF) =  -39.9605011374     A.U. after    9 cycles

 The electronic state is 1-A.
 Alpha  occ. eigenvalues --  -11.15763  -0.93882  -0.58018  -0.53940  -0.49347
 Alpha virt. eigenvalues --    0.28305   0.31488   0.34923   0.36589   0.90361
 Alpha virt. eigenvalues --    0.95234   0.97298   1.25335   1.31382   1.35538
 Alpha virt. eigenvalues --    1.39516   1.94525

 Mulliken charges:
               1
     1  H    0.212908
     2  C   -0.781439
     3  H    0.213302
     4  H    0.206219
     5  H    0.149010
 Sum of Mulliken charges =   0.00000

 Dipole moment (field-independent basis, Debye):
    X=              0.0493    Y=             -0.0647    Z=              0.0259  Tot=              0.0854
 Quadrupole moment (field-independent basis, Debye-Ang):
   XX=             -7.9920   YY=             -8.6596   ZZ=             -8.8179
   XY=             -0.1163   XZ=             -0.0297   YZ=             -0.1465

 Normal termination of Gaussian 16 at Fri Sep 22 17:19:18 2023.
