 Gaussian 16, Revision A.03,
 Gaussian 16:  ES64L-G16RevA.03 25-Dec-2016

 ----------
 # hf/3-21g
 ----------

 ------------------------
 tmpdir/M2_conf_105_1.gjf
 ------------------------
 Symbolic Z-matrix:
 Charge =  0 Multiplicity = 1

                         Standard orientation:
 ---------------------------------------------------------------------
 Center     Atomic      Atomic             Coordinates (Angstroms)
 Number     Number       Type             X           Y           Z
 ---------------------------------------------------------------------
      1          6           0       -0.009427   -0.028913    0.000059
      2          1           0       -1.110550    0.377410   -0.001469
      3          1           0        0.225722   -0.574850    0.893836
      4          1           0        0.226944   -0.578974   -0.891102
      5          1           0        0.714449    0.949891   -0.001619
 ---------------------------------------------------------------------

 SCF Done:  E(RHF) =  -39.9619289528     A.U. after    9 cycles

 The electronic state is 1-A.
 Alpha  occ. eigenvalues --  -11.16883  -0.92838  -0.55812  -0.53616  -0.50104
 Alpha virt. eigenvalues --    0.27741   0.31179   0.34122   0.35685   0.91703
 Alpha virt. eigenvalues --    0.95259   0.99152   1.23982   1.26875   1.34137
 Alpha virt. eigenvalues --    1.36686   1.93516

 Mulliken charges:
               1
     1  C   -0.753651
     2  H    0.179074
     3  H    0.209699
     4  H    0.209643
     5  H    0.155235
 Sum of Mulliken charges =  -0.00000

 Dipole moment (field-independent basis, Debye):
    X=              0.0311    Y=             -0.0737    Z=              0.0003  Tot=              0.0799
 Quadrupole moment (field-independent basis, Debye-Ang):
   XX=             -8.5173   YY=             -8.6409   ZZ=             -8.4849
   XY=             -0.1546   XZ=              0.0002   YZ=              0.0005

 Normal termination of Gaussian 16 at Fri Sep 22 17:16:44 2023.
