 Gaussian 16, Revision A.03,
 Gaussian 16:  ES64L-G16RevA.03 25-Dec-2016

 ----------
 # hf/3-21g
 ----------

 ------------------------
 tmpdir/M2_conf_283_0.gjf
 ------------------------
 Symbolic Z-matrix:
 Charge =  0 Multiplicity = 1

                         Standard orientation:
 ---------------------------------------------------------------------
 Center     Atomic      Atomic             Coordinates (Angstroms)
 Number     Number       Type             X           Y           Z
 ---------------------------------------------------------------------
      1          6           0        0.031631    0.000121    0.000003
      2          1           0        0.334011   -0.745169   -0.711443
      3          1           0        0.328392    0.990066   -0.290798
      4          1           0        0.333582   -0.241886    1.001433
      5          1           0       -1.185767   -0.003737    0.000788
 ---------------------------------------------------------------------

 SCF Done:  E(RHF) =  -39.9669524652     A.U. after    9 cycles

 The electronic state is 1-A.
 Alpha  occ. eigenvalues --  -11.15730  -0.93772  -0.55638  -0.55628  -0.50270
 Alpha virt. eigenvalues --    0.28317   0.32228   0.35680   0.35686   0.91923
 Alpha virt. eigenvalues --    0.91930   0.97639   1.25066   1.32437   1.36919
 Alpha virt. eigenvalues --    1.36936   1.94645

 Mulliken charges:
               1
     1  C   -0.770625
     2  H    0.206375
     3  H    0.206440
     4  H    0.206436
     5  H    0.151373
 Sum of Mulliken charges =  -0.00000

 Dipole moment (field-independent basis, Debye):
    X=              0.0707    Y=              0.0003    Z=             -0.0000  Tot=              0.0707
 Quadrupole moment (field-independent basis, Debye-Ang):
   XX=             -8.6573   YY=             -8.3903   ZZ=             -8.3910
   XY=             -0.0015   XZ=              0.0005   YZ=             -0.0003

 Normal termination of Gaussian 16 at Fri Sep 22 17:21:18 2023.
