 Gaussian 16, Revision A.03,
 Gaussian 16:  ES64L-G16RevA.03 25-Dec-2016

 ----------
 # hf/3-21g
 ----------

 -----------------------
 tmpdir/M2_conf_95_9.gjf
 -----------------------
 Symbolic Z-matrix:
 Charge =  0 Multiplicity = 1

                         Standard orientation:
 ---------------------------------------------------------------------
 Center     Atomic      Atomic             Coordinates (Angstroms)
 Number     Number       Type             X           Y           Z
 ---------------------------------------------------------------------
      1          1           0        1.616835   -0.026970    0.992527
      2          6           0        1.202573   -0.000052    0.002436
      3         17           0       -0.689324   -0.000137    0.004659
      4          1           0        1.443322   -0.877409   -0.567196
      5          1           0        1.442915    0.907024   -0.519151
 ---------------------------------------------------------------------

 SCF Done:  E(RHF) =  -496.687826672     A.U. after   11 cycles

 The electronic state is 1-A.
 Alpha  occ. eigenvalues -- -104.08787 -11.24997 -10.48177  -7.94551  -7.94147
 Alpha  occ. eigenvalues --   -7.94147  -1.11320  -0.93325  -0.63295  -0.63252
 Alpha  occ. eigenvalues --   -0.51255  -0.43765  -0.43668
 Alpha virt. eigenvalues --    0.16490   0.27331   0.31363   0.31420   0.73846
 Alpha virt. eigenvalues --    0.80290   0.81045   0.85588   0.92845   0.94370
 Alpha virt. eigenvalues --    0.99840   1.30936   1.31279   1.32348   1.91777

 Mulliken charges:
               1
     1  H    0.266074
     2  C   -0.703469
     3  Cl  -0.106837
     4  H    0.272125
     5  H    0.272105
 Sum of Mulliken charges =  -0.00000

 Dipole moment (field-independent basis, Debye):
    X=              2.8614    Y=              0.0016    Z=             -0.0597  Tot=              2.8620
 Quadrupole moment (field-independent basis, Debye-Ang):
   XX=            -18.5637   YY=            -20.1781   ZZ=            -20.2049
   XY=             -0.0054   XZ=              0.1745   YZ=              0.0001

 Normal termination of Gaussian 16 at Fri Sep 22 17:16:29 2023.
