 Gaussian 16, Revision A.03,
 Gaussian 16:  ES64L-G16RevA.03 25-Dec-2016

 ----------
 # hf/3-21g
 ----------

 ------------------------
 tmpdir/M2_conf_290_4.gjf
 ------------------------
 Symbolic Z-matrix:
 Charge =  0 Multiplicity = 1

                         Standard orientation:
 ---------------------------------------------------------------------
 Center     Atomic      Atomic             Coordinates (Angstroms)
 Number     Number       Type             X           Y           Z
 ---------------------------------------------------------------------
      1          1           0        0.441058   -0.206587    0.954128
      2          6           0        0.020912    0.018545   -0.007631
      3          1           0        0.664181   -0.448465   -0.729239
      4          1           0       -0.162392    1.068057   -0.140031
      5          1           0       -1.068320   -0.524277   -0.039069
 ---------------------------------------------------------------------

 SCF Done:  E(RHF) =  -39.9659599748     A.U. after    9 cycles

 The electronic state is 1-A.
 Alpha  occ. eigenvalues --  -11.15720  -0.93811  -0.56633  -0.54294  -0.50541
 Alpha virt. eigenvalues --    0.28262   0.32332   0.35175   0.36075   0.90853
 Alpha virt. eigenvalues --    0.92936   0.98042   1.24888   1.32717   1.35743
 Alpha virt. eigenvalues --    1.38075   1.94432

 Mulliken charges:
               1
     1  H    0.204958
     2  C   -0.771915
     3  H    0.206291
     4  H    0.207499
     5  H    0.153166
 Sum of Mulliken charges =   0.00000

 Dipole moment (field-independent basis, Debye):
    X=              0.0921    Y=              0.0157    Z=              0.0400  Tot=              0.1016
 Quadrupole moment (field-independent basis, Debye-Ang):
   XX=             -8.4497   YY=             -8.3689   ZZ=             -8.6151
   XY=             -0.1909   XZ=             -0.0217   YZ=             -0.0077

 Normal termination of Gaussian 16 at Fri Sep 22 17:21:34 2023.
