 Gaussian 16, Revision A.03,
 Gaussian 16:  ES64L-G16RevA.03 25-Dec-2016

 ----------
 # hf/3-21g
 ----------

 ------------------------
 tmpdir/M2_conf_238_4.gjf
 ------------------------
 Symbolic Z-matrix:
 Charge =  0 Multiplicity = 1

                         Standard orientation:
 ---------------------------------------------------------------------
 Center     Atomic      Atomic             Coordinates (Angstroms)
 Number     Number       Type             X           Y           Z
 ---------------------------------------------------------------------
      1          1           0        0.367455   -0.291912    0.970846
      2          6           0        0.028865    0.007802   -0.002661
      3          1           0        0.474163   -0.615829   -0.754601
      4          1           0        0.155867    1.059737   -0.175596
      5          1           0       -1.170677   -0.198807   -0.024680
 ---------------------------------------------------------------------

 SCF Done:  E(RHF) =  -39.9669195220     A.U. after    9 cycles

 The electronic state is 1-A.
 Alpha  occ. eigenvalues --  -11.15722  -0.93782  -0.56015  -0.55129  -0.50386
 Alpha virt. eigenvalues --    0.28302   0.32286   0.35493   0.35843   0.91455
 Alpha virt. eigenvalues --    0.92310   0.97768   1.24999   1.32593   1.36465
 Alpha virt. eigenvalues --    1.37342   1.94598

 Mulliken charges:
               1
     1  H    0.205800
     2  C   -0.770700
     3  H    0.206153
     4  H    0.206747
     5  H    0.152000
 Sum of Mulliken charges =  -0.00000

 Dipole moment (field-independent basis, Debye):
    X=              0.0784    Y=              0.0035    Z=              0.0155  Tot=              0.0800
 Quadrupole moment (field-independent basis, Debye-Ang):
   XX=             -8.6108   YY=             -8.3483   ZZ=             -8.4760
   XY=             -0.0801   XZ=             -0.0131   YZ=             -0.0013

 Normal termination of Gaussian 16 at Fri Sep 22 17:20:10 2023.
