 Gaussian 16, Revision A.03,
 Gaussian 16:  ES64L-G16RevA.03 25-Dec-2016

 ----------
 # hf/3-21g
 ----------

 -----------------------
 tmpdir/M2_conf_58_9.gjf
 -----------------------
 Symbolic Z-matrix:
 Charge =  0 Multiplicity = 1

                         Standard orientation:
 ---------------------------------------------------------------------
 Center     Atomic      Atomic             Coordinates (Angstroms)
 Number     Number       Type             X           Y           Z
 ---------------------------------------------------------------------
      1          1           0        1.716340   -0.006467    0.947880
      2          6           0        1.203152   -0.000017    0.004898
      3         17           0       -0.688748   -0.000071    0.008702
      4          1           0        1.386962   -0.888629   -0.568494
      5          1           0        1.386504    0.896412   -0.556707
 ---------------------------------------------------------------------

 SCF Done:  E(RHF) =  -496.683505145     A.U. after   11 cycles

 The electronic state is 1-A.
 Alpha  occ. eigenvalues -- -104.08822 -11.24987 -10.48213  -7.94586  -7.94181
 Alpha  occ. eigenvalues --   -7.94181  -1.11420  -0.93293  -0.63356  -0.63339
 Alpha  occ. eigenvalues --   -0.51074  -0.43749  -0.43624
 Alpha virt. eigenvalues --    0.16176   0.27318   0.31366   0.31496   0.73891
 Alpha virt. eigenvalues --    0.79957   0.81385   0.85806   0.92096   0.94726
 Alpha virt. eigenvalues --    1.00714   1.30460   1.31332   1.32617   1.91229

 Mulliken charges:
               1
     1  H    0.263304
     2  C   -0.706132
     3  Cl  -0.105982
     4  H    0.274414
     5  H    0.274395
 Sum of Mulliken charges =  -0.00000

 Dipole moment (field-independent basis, Debye):
    X=              2.8490    Y=              0.0007    Z=             -0.1100  Tot=              2.8511
 Quadrupole moment (field-independent basis, Debye-Ang):
   XX=            -18.5465   YY=            -20.1759   ZZ=            -20.2640
   XY=             -0.0030   XZ=              0.3274   YZ=              0.0000

 Normal termination of Gaussian 16 at Fri Sep 22 17:15:34 2023.
