 Gaussian 16, Revision A.03,
 Gaussian 16:  ES64L-G16RevA.03 25-Dec-2016

 ----------
 # hf/3-21g
 ----------

 ------------------------
 tmpdir/M2_conf_271_1.gjf
 ------------------------
 Symbolic Z-matrix:
 Charge =  0 Multiplicity = 1

                         Standard orientation:
 ---------------------------------------------------------------------
 Center     Atomic      Atomic             Coordinates (Angstroms)
 Number     Number       Type             X           Y           Z
 ---------------------------------------------------------------------
      1          6           0       -0.031973   -0.000061    0.003520
      2          1           0       -0.267039   -0.008653    1.033604
      3          1           0       -0.361303   -0.888767   -0.500390
      4          1           0       -0.363131    0.896119   -0.486176
      5          1           0        1.183311    0.001667   -0.068156
 ---------------------------------------------------------------------

 SCF Done:  E(RHF) =  -39.9665859222     A.U. after    9 cycles

 The electronic state is 1-A.
 Alpha  occ. eigenvalues --  -11.15526  -0.93973  -0.56008  -0.55609  -0.50278
 Alpha virt. eigenvalues --    0.28374   0.32333   0.35686   0.36048   0.91161
 Alpha virt. eigenvalues --    0.91952   0.97587   1.25145   1.33017   1.36979
 Alpha virt. eigenvalues --    1.38172   1.94867

 Mulliken charges:
               1
     1  C   -0.772960
     2  H    0.210691
     3  H    0.205845
     4  H    0.205790
     5  H    0.150634
 Sum of Mulliken charges =  -0.00000

 Dipole moment (field-independent basis, Debye):
    X=             -0.0747    Y=             -0.0003    Z=              0.0142  Tot=              0.0760
 Quadrupole moment (field-independent basis, Debye-Ang):
   XX=             -8.6400   YY=             -8.3741   ZZ=             -8.3868
   XY=             -0.0005   XZ=              0.0181   YZ=             -0.0001

 Normal termination of Gaussian 16 at Fri Sep 22 17:21:00 2023.
