 Gaussian 16, Revision A.03,
 Gaussian 16:  ES64L-G16RevA.03 25-Dec-2016

 ----------
 # hf/3-21g
 ----------

 ------------------------
 tmpdir/M2_conf_300_2.gjf
 ------------------------
 Symbolic Z-matrix:
 Charge =  0 Multiplicity = 1

                         Standard orientation:
 ---------------------------------------------------------------------
 Center     Atomic      Atomic             Coordinates (Angstroms)
 Number     Number       Type             X           Y           Z
 ---------------------------------------------------------------------
      1          6           0        0.031379   -0.001943   -0.000012
      2          1           0        0.373725    1.023326   -0.032406
      3          1           0        0.314208   -0.500610    0.907478
      4          1           0        0.308916   -0.555841   -0.876821
      5          1           0       -1.185121    0.044783    0.001823
 ---------------------------------------------------------------------

 SCF Done:  E(RHF) =  -39.9669752019     A.U. after    9 cycles

 The electronic state is 1-A.
 Alpha  occ. eigenvalues --  -11.15817  -0.93690  -0.55651  -0.55467  -0.50265
 Alpha virt. eigenvalues --    0.28290   0.32177   0.35526   0.35688   0.91899
 Alpha virt. eigenvalues --    0.92263   0.97670   1.25029   1.32124   1.36470
 Alpha virt. eigenvalues --    1.36927   1.94555

 Mulliken charges:
               1
     1  C   -0.769576
     2  H    0.204425
     3  H    0.206759
     4  H    0.206710
     5  H    0.151682
 Sum of Mulliken charges =   0.00000

 Dipole moment (field-independent basis, Debye):
    X=              0.0684    Y=             -0.0075    Z=              0.0001  Tot=              0.0688
 Quadrupole moment (field-independent basis, Debye-Ang):
   XX=             -8.6637   YY=             -8.3928   ZZ=             -8.3980
   XY=              0.0122   XZ=              0.0011   YZ=              0.0004

 Normal termination of Gaussian 16 at Fri Sep 22 17:21:49 2023.
