 Gaussian 16, Revision A.03,
 Gaussian 16:  ES64L-G16RevA.03 25-Dec-2016

 ----------
 # hf/3-21g
 ----------

 ------------------------
 tmpdir/M2_conf_182_9.gjf
 ------------------------
 Symbolic Z-matrix:
 Charge =  0 Multiplicity = 1

                         Standard orientation:
 ---------------------------------------------------------------------
 Center     Atomic      Atomic             Coordinates (Angstroms)
 Number     Number       Type             X           Y           Z
 ---------------------------------------------------------------------
      1          1           0        1.044765   -0.002471    1.049596
      2          6           0        1.205566    0.000027   -0.011891
      3         17           0       -0.686331    0.000036   -0.015991
      4          1           0        1.694770   -0.891688   -0.354995
      5          1           0        1.694690    0.893388   -0.351403
 ---------------------------------------------------------------------

 SCF Done:  E(RHF) =  -496.661493373     A.U. after   11 cycles

 The electronic state is 1-A.
 Alpha  occ. eigenvalues -- -104.09093 -11.24837 -10.48515  -7.94882  -7.94474
 Alpha  occ. eigenvalues --   -7.94465  -1.12090  -0.93138  -0.64164  -0.63121
 Alpha  occ. eigenvalues --   -0.50611  -0.44253  -0.42835
 Alpha virt. eigenvalues --    0.15126   0.27640   0.31472   0.31582   0.74096
 Alpha virt. eigenvalues --    0.79330   0.80838   0.85212   0.93063   0.96441
 Alpha virt. eigenvalues --    1.01521   1.29324   1.31195   1.32093   1.88131

 Mulliken charges:
               1
     1  H    0.285184
     2  C   -0.707328
     3  Cl  -0.110067
     4  H    0.266121
     5  H    0.266091
 Sum of Mulliken charges =  -0.00000

 Dipole moment (field-independent basis, Debye):
    X=              2.7675    Y=             -0.0007    Z=              0.2586  Tot=              2.7795
 Quadrupole moment (field-independent basis, Debye-Ang):
   XX=            -18.5163   YY=            -20.1780   ZZ=            -20.5079
   XY=              0.0011   XZ=             -0.5930   YZ=             -0.0001

 Normal termination of Gaussian 16 at Fri Sep 22 17:18:40 2023.
