 Gaussian 16, Revision A.03,
 Gaussian 16:  ES64L-G16RevA.03 25-Dec-2016

 ----------
 # hf/3-21g
 ----------

 ------------------------
 tmpdir/M2_conf_236_7.gjf
 ------------------------
 Symbolic Z-matrix:
 Charge =  0 Multiplicity = 1

                         Standard orientation:
 ---------------------------------------------------------------------
 Center     Atomic      Atomic             Coordinates (Angstroms)
 Number     Number       Type             X           Y           Z
 ---------------------------------------------------------------------
      1          1           0        0.451680   -0.194085    0.950402
      2          6           0        0.019148    0.020040   -0.008599
      3          1           0        0.690331   -0.414467   -0.725075
      4          1           0       -0.213113    1.060794   -0.131322
      5          1           0       -1.043788   -0.572482   -0.042409
 ---------------------------------------------------------------------

 SCF Done:  E(RHF) =  -39.9656441586     A.U. after    9 cycles

 The electronic state is 1-A.
 Alpha  occ. eigenvalues --  -11.15720  -0.93819  -0.56757  -0.54126  -0.50566
 Alpha virt. eigenvalues --    0.28252   0.32337   0.35109   0.36119   0.90763
 Alpha virt. eigenvalues --    0.93044   0.98109   1.24866   1.32732   1.35598
 Alpha virt. eigenvalues --    1.38234   1.94385

 Mulliken charges:
               1
     1  H    0.204759
     2  C   -0.772290
     3  H    0.206382
     4  H    0.207734
     5  H    0.153415
 Sum of Mulliken charges =   0.00000

 Dipole moment (field-independent basis, Debye):
    X=              0.0949    Y=              0.0179    Z=              0.0449  Tot=              0.1065
 Quadrupole moment (field-independent basis, Debye-Ang):
   XX=             -8.4120   YY=             -8.3795   ZZ=             -8.6424
   XY=             -0.2033   XZ=             -0.0235   YZ=             -0.0092

 Normal termination of Gaussian 16 at Fri Sep 22 17:20:07 2023.
