 Gaussian 16, Revision A.03,
 Gaussian 16:  ES64L-G16RevA.03 25-Dec-2016

 ----------
 # hf/3-21g
 ----------

 ------------------------
 tmpdir/M2_conf_295_6.gjf
 ------------------------
 Symbolic Z-matrix:
 Charge =  0 Multiplicity = 1

                         Standard orientation:
 ---------------------------------------------------------------------
 Center     Atomic      Atomic             Coordinates (Angstroms)
 Number     Number       Type             X           Y           Z
 ---------------------------------------------------------------------
      1          1           0       -1.443046   -0.048633    1.043721
      2          6           0       -1.202412    0.000076   -0.001225
      3         17           0        0.689482    0.000099   -0.002391
      4          1           0       -1.531609    0.914972   -0.456424
      5          1           0       -1.532078   -0.868484   -0.539307
 ---------------------------------------------------------------------

 SCF Done:  E(RHF) =  -496.689040938     A.U. after   11 cycles

 The electronic state is 1-A.
 Alpha  occ. eigenvalues -- -104.08776 -11.25000 -10.48166  -7.94540  -7.94137
 Alpha  occ. eigenvalues --   -7.94136  -1.11291  -0.93334  -0.63280  -0.63225
 Alpha  occ. eigenvalues --   -0.51306  -0.43764  -0.43684
 Alpha virt. eigenvalues --    0.16577   0.27333   0.31371   0.31391   0.73831
 Alpha virt. eigenvalues --    0.80502   0.80846   0.85519   0.93245   0.94075
 Alpha virt. eigenvalues --    0.99591   1.31181   1.31205   1.32237   1.91943

 Mulliken charges:
               1
     1  H    0.272013
     2  C   -0.702788
     3  Cl  -0.107036
     4  H    0.268916
     5  H    0.268895
 Sum of Mulliken charges =  -0.00000

 Dipole moment (field-independent basis, Debye):
    X=             -2.8650    Y=             -0.0014    Z=              0.0321  Tot=              2.8651
 Quadrupole moment (field-independent basis, Debye-Ang):
   XX=            -18.5687   YY=            -20.1810   ZZ=            -20.1857
   XY=             -0.0036   XZ=              0.0891   YZ=             -0.0002

 Normal termination of Gaussian 16 at Fri Sep 22 17:21:42 2023.
