 Gaussian 16, Revision A.03,
 Gaussian 16:  ES64L-G16RevA.03 25-Dec-2016

 ----------
 # hf/3-21g
 ----------

 ------------------------
 tmpdir/M2_conf_253_4.gjf
 ------------------------
 Symbolic Z-matrix:
 Charge =  0 Multiplicity = 1

                         Standard orientation:
 ---------------------------------------------------------------------
 Center     Atomic      Atomic             Coordinates (Angstroms)
 Number     Number       Type             X           Y           Z
 ---------------------------------------------------------------------
      1          1           0       -0.721074    0.743122   -0.349217
      2          6           0       -0.033232   -0.010068   -0.014902
      3          1           0        0.286289   -0.757673   -0.716047
      4          1           0       -0.362661   -0.497265    0.883274
      5          1           0        0.996837    0.572223    0.271401
 ---------------------------------------------------------------------

 SCF Done:  E(RHF) =  -39.9652608813     A.U. after    9 cycles

 The electronic state is 1-A.
 Alpha  occ. eigenvalues --  -11.15740  -0.93799  -0.56803  -0.54776  -0.49916
 Alpha virt. eigenvalues --    0.28331   0.31990   0.35299   0.36135   0.91082
 Alpha virt. eigenvalues --    0.93267   0.97423   1.25221   1.31997   1.36147
 Alpha virt. eigenvalues --    1.38131   1.94650

 Mulliken charges:
               1
     1  H    0.208795
     2  C   -0.773365
     3  H    0.208443
     4  H    0.206049
     5  H    0.150078
 Sum of Mulliken charges =  -0.00000

 Dipole moment (field-independent basis, Debye):
    X=             -0.0350    Y=             -0.0556    Z=              0.0069  Tot=              0.0661
 Quadrupole moment (field-independent basis, Debye-Ang):
   XX=             -8.5285   YY=             -8.3372   ZZ=             -8.5836
   XY=             -0.2217   XZ=             -0.0929   YZ=             -0.0581

 Normal termination of Gaussian 16 at Fri Sep 22 17:20:33 2023.
