 Gaussian 16, Revision A.03,
 Gaussian 16:  ES64L-G16RevA.03 25-Dec-2016

 ----------
 # hf/3-21g
 ----------

 -----------------------
 tmpdir/M2_conf_17_6.gjf
 -----------------------
 Symbolic Z-matrix:
 Charge =  0 Multiplicity = 1

                         Standard orientation:
 ---------------------------------------------------------------------
 Center     Atomic      Atomic             Coordinates (Angstroms)
 Number     Number       Type             X           Y           Z
 ---------------------------------------------------------------------
      1          1           0       -1.491617   -0.231000    1.007320
      2          6           0       -1.202359    0.000069   -0.000214
      3         17           0        0.689539    0.000088   -0.000439
      4          1           0       -1.507956    0.984672   -0.299848
      5          1           0       -1.508437   -0.755581   -0.698725
 ---------------------------------------------------------------------

 SCF Done:  E(RHF) =  -496.689468417     A.U. after   11 cycles

 The electronic state is 1-A.
 Alpha  occ. eigenvalues -- -104.08772 -11.25001 -10.48162  -7.94536  -7.94132
 Alpha  occ. eigenvalues --   -7.94132  -1.11280  -0.93337  -0.63250  -0.63240
 Alpha  occ. eigenvalues --   -0.51323  -0.43733  -0.43720
 Alpha virt. eigenvalues --    0.16605   0.27332   0.31377   0.31379   0.73825
 Alpha virt. eigenvalues --    0.80649   0.80715   0.85498   0.93579   0.93745
 Alpha virt. eigenvalues --    0.99528   1.31220   1.31233   1.32199   1.92006

 Mulliken charges:
               1
     1  H    0.270302
     2  C   -0.702619
     3  Cl  -0.107054
     4  H    0.269697
     5  H    0.269675
 Sum of Mulliken charges =  -0.00000

 Dipole moment (field-independent basis, Debye):
    X=             -2.8663    Y=             -0.0013    Z=              0.0059  Tot=              2.8663
 Quadrupole moment (field-independent basis, Debye-Ang):
   XX=            -18.5702   YY=            -20.1800   ZZ=            -20.1810
   XY=             -0.0031   XZ=              0.0162   YZ=             -0.0002

 Normal termination of Gaussian 16 at Fri Sep 22 17:14:33 2023.
