 Gaussian 16, Revision A.03,
 Gaussian 16:  ES64L-G16RevA.03 25-Dec-2016

 ----------
 # hf/3-21g
 ----------

 -----------------------
 tmpdir/M2_conf_61_2.gjf
 -----------------------
 Symbolic Z-matrix:
 Charge =  0 Multiplicity = 1

                         Standard orientation:
 ---------------------------------------------------------------------
 Center     Atomic      Atomic             Coordinates (Angstroms)
 Number     Number       Type             X           Y           Z
 ---------------------------------------------------------------------
      1          6           0        0.031461   -0.001422   -0.000011
      2          1           0        0.362642    1.024862   -0.044149
      3          1           0        0.319643   -0.486784    0.912991
      4          1           0        0.314398   -0.562418   -0.870559
      5          1           0       -1.185452    0.032873    0.001786
 ---------------------------------------------------------------------

 SCF Done:  E(RHF) =  -39.9669764484     A.U. after    9 cycles

 The electronic state is 1-A.
 Alpha  occ. eigenvalues --  -11.15792  -0.93713  -0.55648  -0.55513  -0.50266
 Alpha virt. eigenvalues --    0.28298   0.32192   0.35569   0.35688   0.91904
 Alpha virt. eigenvalues --    0.92171   0.97660   1.25040   1.32217   1.36590
 Alpha virt. eigenvalues --    1.36931   1.94580

 Mulliken charges:
               1
     1  C   -0.769877
     2  H    0.204965
     3  H    0.206683
     4  H    0.206635
     5  H    0.151595
 Sum of Mulliken charges =   0.00000

 Dipole moment (field-independent basis, Debye):
    X=              0.0691    Y=             -0.0055    Z=              0.0001  Tot=              0.0693
 Quadrupole moment (field-independent basis, Debye-Ang):
   XX=             -8.6620   YY=             -8.3920   ZZ=             -8.3960
   XY=              0.0091   XZ=              0.0011   YZ=              0.0004

 Normal termination of Gaussian 16 at Fri Sep 22 17:15:38 2023.
