 Gaussian 16, Revision A.03,
 Gaussian 16:  ES64L-G16RevA.03 25-Dec-2016

 ----------
 # hf/3-21g
 ----------

 ------------------------
 tmpdir/M2_conf_247_5.gjf
 ------------------------
 Symbolic Z-matrix:
 Charge =  0 Multiplicity = 1

                         Standard orientation:
 ---------------------------------------------------------------------
 Center     Atomic      Atomic             Coordinates (Angstroms)
 Number     Number       Type             X           Y           Z
 ---------------------------------------------------------------------
      1          1           0       -0.437659   -0.212753    0.954863
      2          6           0       -0.021440    0.018100   -0.007247
      3          1           0       -0.657028   -0.454988   -0.731699
      4          1           0        0.148694    1.069828   -0.139663
      5          1           0        1.074630   -0.510689   -0.040020
 ---------------------------------------------------------------------

 SCF Done:  E(RHF) =  -39.9660488509     A.U. after    9 cycles

 The electronic state is 1-A.
 Alpha  occ. eigenvalues --  -11.15720  -0.93808  -0.56595  -0.54346  -0.50530
 Alpha virt. eigenvalues --    0.28265   0.32330   0.35195   0.36062   0.90886
 Alpha virt. eigenvalues --    0.92898   0.98024   1.24895   1.32713   1.35784
 Alpha virt. eigenvalues --    1.38028   1.94444

 Mulliken charges:
               1
     1  H    0.205009
     2  C   -0.771802
     3  H    0.206259
     4  H    0.207447
     5  H    0.153086
 Sum of Mulliken charges =  -0.00000

 Dipole moment (field-independent basis, Debye):
    X=             -0.0910    Y=              0.0152    Z=              0.0384  Tot=              0.0999
 Quadrupole moment (field-independent basis, Debye-Ang):
   XX=             -8.4597   YY=             -8.3677   ZZ=             -8.6064
   XY=              0.1872   XZ=              0.0219   YZ=             -0.0075

 Normal termination of Gaussian 16 at Fri Sep 22 17:20:24 2023.
