 Gaussian 16, Revision A.03,
 Gaussian 16:  ES64L-G16RevA.03 25-Dec-2016

 ----------
 # hf/3-21g
 ----------

 ------------------------
 tmpdir/M2_conf_197_5.gjf
 ------------------------
 Symbolic Z-matrix:
 Charge =  0 Multiplicity = 1

                         Standard orientation:
 ---------------------------------------------------------------------
 Center     Atomic      Atomic             Coordinates (Angstroms)
 Number     Number       Type             X           Y           Z
 ---------------------------------------------------------------------
      1          1           0        1.014649    0.238573   -0.340152
      2          6           0        0.025053   -0.025712   -0.019153
      3          1           0       -0.682006   -0.440904   -0.712188
      4          1           0        0.029669   -0.656646    0.849473
      5          1           0       -0.512630    1.013246    0.317784
 ---------------------------------------------------------------------

 SCF Done:  E(RHF) =  -39.9640074553     A.U. after    9 cycles

 The electronic state is 1-A.
 Alpha  occ. eigenvalues --  -11.15747  -0.93820  -0.57221  -0.54477  -0.49751
 Alpha virt. eigenvalues --    0.28327   0.31853   0.35162   0.36293   0.90813
 Alpha virt. eigenvalues --    0.93868   0.97369   1.25271   1.31800   1.35910
 Alpha virt. eigenvalues --    1.38588   1.94622

 Mulliken charges:
               1
     1  H    0.209982
     2  C   -0.775449
     3  H    0.209743
     4  H    0.206041
     5  H    0.149683
 Sum of Mulliken charges =   0.00000

 Dipole moment (field-independent basis, Debye):
    X=             -0.0129    Y=             -0.0679    Z=              0.0127  Tot=              0.0703
 Quadrupole moment (field-independent basis, Debye-Ang):
   XX=             -8.2002   YY=             -8.5936   ZZ=             -8.6614
   XY=              0.1979   XZ=              0.0521   YZ=             -0.1162

 Normal termination of Gaussian 16 at Fri Sep 22 17:19:08 2023.
