 Gaussian 16, Revision A.03,
 Gaussian 16:  ES64L-G16RevA.03 25-Dec-2016

 ----------
 # hf/3-21g
 ----------

 ------------------------
 tmpdir/M2_conf_223_8.gjf
 ------------------------
 Symbolic Z-matrix:
 Charge =  0 Multiplicity = 1

                         Standard orientation:
 ---------------------------------------------------------------------
 Center     Atomic      Atomic             Coordinates (Angstroms)
 Number     Number       Type             X           Y           Z
 ---------------------------------------------------------------------
      1          1           0        0.554888    0.000065    0.802247
      2          6           0        1.216691    0.000017   -0.043113
      3         17           0       -0.675064   -0.000011   -0.020204
      4          1           0        1.810357    0.892482   -0.100079
      5          1           0        1.810704   -0.892468   -0.100022
 ---------------------------------------------------------------------

 SCF Done:  E(RHF) =  -496.527470328     A.U. after   12 cycles

 The electronic state is 1-A.
 Alpha  occ. eigenvalues -- -104.11411 -11.22545 -10.51317  -7.97675  -7.97189
 Alpha  occ. eigenvalues --   -7.97126  -1.18072  -0.91888  -0.67023  -0.62209
 Alpha  occ. eigenvalues --   -0.51707  -0.46806  -0.37589
 Alpha virt. eigenvalues --    0.11368   0.30690   0.32589   0.33031   0.73647
 Alpha virt. eigenvalues --    0.77119   0.79627   0.84151   0.91953   0.98532
 Alpha virt. eigenvalues --    1.03915   1.20792   1.31502   1.32368   1.81033

 Mulliken charges:
               1
     1  H    0.293123
     2  C   -0.745424
     3  Cl  -0.088381
     4  H    0.270360
     5  H    0.270323
 Sum of Mulliken charges =  -0.00000

 Dipole moment (field-independent basis, Debye):
    X=              1.9130    Y=              0.0001    Z=              0.6585  Tot=              2.0232
 Quadrupole moment (field-independent basis, Debye-Ang):
   XX=            -18.8392   YY=            -20.0217   ZZ=            -21.5358
   XY=             -0.0003   XZ=             -0.4997   YZ=             -0.0000

 Normal termination of Gaussian 16 at Fri Sep 22 17:19:47 2023.
