 Gaussian 16, Revision A.03,
 Gaussian 16:  ES64L-G16RevA.03 25-Dec-2016

 ----------
 # hf/3-21g
 ----------

 ------------------------
 tmpdir/M2_conf_210_8.gjf
 ------------------------
 Symbolic Z-matrix:
 Charge =  0 Multiplicity = 1

                         Standard orientation:
 ---------------------------------------------------------------------
 Center     Atomic      Atomic             Coordinates (Angstroms)
 Number     Number       Type             X           Y           Z
 ---------------------------------------------------------------------
      1          1           0       -0.843609   -0.000336    0.988398
      2          6           0       -1.209024   -0.000011   -0.021102
      3         17           0        0.682874    0.000015   -0.020075
      4          1           0       -1.755397   -0.892401   -0.260467
      5          1           0       -1.755704    0.892549   -0.260048
 ---------------------------------------------------------------------

 SCF Done:  E(RHF) =  -496.625842200     A.U. after   11 cycles

 The electronic state is 1-A.
 Alpha  occ. eigenvalues -- -104.09587 -11.24449 -10.49097  -7.95457  -7.95039
 Alpha  occ. eigenvalues --   -7.95014  -1.13343  -0.92862  -0.65039  -0.62979
 Alpha  occ. eigenvalues --   -0.50419  -0.44850  -0.41596
 Alpha virt. eigenvalues --    0.13748   0.28296   0.31679   0.31786   0.74190
 Alpha virt. eigenvalues --    0.78640   0.80473   0.84604   0.94123   0.97395
 Alpha virt. eigenvalues --    1.02528   1.27319   1.31360   1.31515   1.84666

 Mulliken charges:
               1
     1  H    0.291153
     2  C   -0.711871
     3  Cl  -0.113465
     4  H    0.267113
     5  H    0.267070
 Sum of Mulliken charges =  -0.00000

 Dipole moment (field-independent basis, Debye):
    X=             -2.6056    Y=             -0.0002    Z=              0.3874  Tot=              2.6343
 Quadrupole moment (field-independent basis, Debye-Ang):
   XX=            -18.5319   YY=            -20.1568   ZZ=            -20.8517
   XY=             -0.0004   XZ=              0.7232   YZ=              0.0000

 Normal termination of Gaussian 16 at Fri Sep 22 17:19:28 2023.
