 Gaussian 16, Revision A.03,
 Gaussian 16:  ES64L-G16RevA.03 25-Dec-2016

 ----------
 # hf/3-21g
 ----------

 -----------------------
 tmpdir/M2_conf_53_3.gjf
 -----------------------
 Symbolic Z-matrix:
 Charge =  0 Multiplicity = 1

                         Standard orientation:
 ---------------------------------------------------------------------
 Center     Atomic      Atomic             Coordinates (Angstroms)
 Number     Number       Type             X           Y           Z
 ---------------------------------------------------------------------
      1          6           0       -1.312922    0.000017    0.000010
      2         17           0        0.748078   -0.000013   -0.000003
      3          1           0       -1.613290   -0.278185    0.992268
      4          1           0       -1.612969    0.998729   -0.255258
      5          1           0       -1.613537   -0.720424   -0.737021
 ---------------------------------------------------------------------

 SCF Done:  E(RHF) =  -496.681786051     A.U. after   10 cycles

 The electronic state is 1-A.
 Alpha  occ. eigenvalues -- -104.08616 -11.26808 -10.47631  -7.93979  -7.93644
 Alpha  occ. eigenvalues --   -7.93644  -1.07688  -0.94945  -0.63269  -0.63264
 Alpha  occ. eigenvalues --   -0.48443  -0.43380  -0.43380
 Alpha virt. eigenvalues --    0.11249   0.26670   0.31122   0.31125   0.73522
 Alpha virt. eigenvalues --    0.79874   0.79879   0.85875   0.93657   0.93667
 Alpha virt. eigenvalues --    1.02876   1.30279   1.30376   1.30386   1.86842

 Mulliken charges:
               1
     1  C   -0.603025
     2  Cl  -0.206548
     3  H    0.269879
     4  H    0.269863
     5  H    0.269832
 Sum of Mulliken charges =  -0.00000

 Dipole moment (field-independent basis, Debye):
    X=             -3.4829    Y=              0.0001    Z=              0.0001  Tot=              3.4829
 Quadrupole moment (field-independent basis, Debye-Ang):
   XX=            -17.4673   YY=            -20.3028   ZZ=            -20.3042
   XY=              0.0006   XZ=             -0.0001   YZ=             -0.0001

 Normal termination of Gaussian 16 at Fri Sep 22 17:15:26 2023.
