 Gaussian 16, Revision A.03,
 Gaussian 16:  ES64L-G16RevA.03 25-Dec-2016

 ----------
 # hf/3-21g
 ----------

 ------------------------
 tmpdir/M2_conf_114_5.gjf
 ------------------------
 Symbolic Z-matrix:
 Charge =  0 Multiplicity = 1

                         Standard orientation:
 ---------------------------------------------------------------------
 Center     Atomic      Atomic             Coordinates (Angstroms)
 Number     Number       Type             X           Y           Z
 ---------------------------------------------------------------------
      1          1           0        1.064507    0.022828   -0.303565
      2          6           0        0.027721   -0.029658   -0.030606
      3          1           0       -0.810779   -0.196909   -0.679883
      4          1           0       -0.151369   -0.719713    0.772115
      5          1           0       -0.268683    1.071745    0.394972
 ---------------------------------------------------------------------

 SCF Done:  E(RHF) =  -39.9579660216     A.U. after    9 cycles

 The electronic state is 1-A.
 Alpha  occ. eigenvalues --  -11.15774  -0.93928  -0.58454  -0.53668  -0.49076
 Alpha virt. eigenvalues --    0.28284   0.31234   0.34802   0.36749   0.90175
 Alpha virt. eigenvalues --    0.96070   0.97280   1.25345   1.31167   1.35354
 Alpha virt. eigenvalues --    1.40064   1.94466

 Mulliken charges:
               1
     1  H    0.215007
     2  C   -0.785877
     3  H    0.215898
     4  H    0.206289
     5  H    0.148682
 Sum of Mulliken charges =  -0.00000

 Dipole moment (field-independent basis, Debye):
    X=             -0.0636    Y=             -0.0642    Z=              0.0339  Tot=              0.0965
 Quadrupole moment (field-independent basis, Debye-Ang):
   XX=             -7.9060   YY=             -8.6688   ZZ=             -8.9041
   XY=              0.1066   XZ=              0.0269   YZ=             -0.1543

 Normal termination of Gaussian 16 at Fri Sep 22 17:16:58 2023.
