 Gaussian 16, Revision A.03,
 Gaussian 16:  ES64L-G16RevA.03 25-Dec-2016

 ----------
 # hf/3-21g
 ----------

 ------------------------
 tmpdir/M2_conf_203_7.gjf
 ------------------------
 Symbolic Z-matrix:
 Charge =  0 Multiplicity = 1

                         Standard orientation:
 ---------------------------------------------------------------------
 Center     Atomic      Atomic             Coordinates (Angstroms)
 Number     Number       Type             X           Y           Z
 ---------------------------------------------------------------------
      1          1           0       -1.004179    0.276017   -0.341638
      2          6           0       -0.025585   -0.024909   -0.018505
      3          1           0        0.660484   -0.471900   -0.712855
      4          1           0       -0.055072   -0.649224    0.854155
      5          1           0        0.552279    0.994560    0.311368
 ---------------------------------------------------------------------

 SCF Done:  E(RHF) =  -39.9642104920     A.U. after    9 cycles

 The electronic state is 1-A.
 Alpha  occ. eigenvalues --  -11.15745  -0.93817  -0.57157  -0.54523  -0.49776
 Alpha virt. eigenvalues --    0.28328   0.31873   0.35186   0.36267   0.90843
 Alpha virt. eigenvalues --    0.93786   0.97376   1.25263   1.31822   1.35956
 Alpha virt. eigenvalues --    1.38514   1.94625

 Mulliken charges:
               1
     1  H    0.209746
     2  C   -0.775107
     3  H    0.209524
     4  H    0.206096
     5  H    0.149741
 Sum of Mulliken charges =  -0.00000

 Dipole moment (field-independent basis, Debye):
    X=              0.0085    Y=             -0.0680    Z=              0.0119  Tot=              0.0696
 Quadrupole moment (field-independent basis, Debye-Ang):
   XX=             -8.2261   YY=             -8.5778   ZZ=             -8.6504
   XY=             -0.2095   XZ=             -0.0557   YZ=             -0.1121

 Normal termination of Gaussian 16 at Fri Sep 22 17:19:17 2023.
