 Gaussian 16, Revision A.03,
 Gaussian 16:  ES64L-G16RevA.03 25-Dec-2016

 ----------
 # hf/3-21g
 ----------

 ------------------------
 tmpdir/M2_conf_106_4.gjf
 ------------------------
 Symbolic Z-matrix:
 Charge =  0 Multiplicity = 1

                         Standard orientation:
 ---------------------------------------------------------------------
 Center     Atomic      Atomic             Coordinates (Angstroms)
 Number     Number       Type             X           Y           Z
 ---------------------------------------------------------------------
      1          1           0        0.456918   -0.184434    0.948958
      2          6           0        0.018398    0.020553   -0.009096
      3          1           0        0.699349   -0.404477   -0.722027
      4          1           0       -0.233094    1.056996   -0.132147
      5          1           0       -1.033558   -0.591406   -0.040205
 ---------------------------------------------------------------------

 SCF Done:  E(RHF) =  -39.9654929564     A.U. after    9 cycles

 The electronic state is 1-A.
 Alpha  occ. eigenvalues --  -11.15720  -0.93824  -0.56806  -0.54057  -0.50578
 Alpha virt. eigenvalues --    0.28247   0.32337   0.35086   0.36133   0.90713
 Alpha virt. eigenvalues --    0.93107   0.98136   1.24857   1.32724   1.35556
 Alpha virt. eigenvalues --    1.38297   1.94364

 Mulliken charges:
               1
     1  H    0.204756
     2  C   -0.772473
     3  H    0.206434
     4  H    0.207762
     5  H    0.153521
 Sum of Mulliken charges =  -0.00000

 Dipole moment (field-independent basis, Debye):
    X=              0.0964    Y=              0.0188    Z=              0.0470  Tot=              0.1089
 Quadrupole moment (field-independent basis, Debye-Ang):
   XX=             -8.3965   YY=             -8.3832   ZZ=             -8.6544
   XY=             -0.2078   XZ=             -0.0226   YZ=             -0.0094

 Normal termination of Gaussian 16 at Fri Sep 22 17:16:46 2023.
