 Gaussian 16, Revision A.03,
 Gaussian 16:  ES64L-G16RevA.03 25-Dec-2016

 ----------
 # hf/3-21g
 ----------

 ------------------------
 tmpdir/M2_conf_290_0.gjf
 ------------------------
 Symbolic Z-matrix:
 Charge =  0 Multiplicity = 1

                         Standard orientation:
 ---------------------------------------------------------------------
 Center     Atomic      Atomic             Coordinates (Angstroms)
 Number     Number       Type             X           Y           Z
 ---------------------------------------------------------------------
      1          6           0       -0.005964   -0.031512    0.000057
      2          1           0        1.246642    0.144412    0.000681
      3          1           0       -0.353396   -0.514937    0.893486
      4          1           0       -0.351594   -0.518923   -0.891893
      5          1           0       -0.505866    1.078517   -0.002616
 ---------------------------------------------------------------------

 SCF Done:  E(RHF) =  -39.9502858953     A.U. after    9 cycles

 The electronic state is 1-A.
 Alpha  occ. eigenvalues --  -11.17888  -0.92257  -0.56004  -0.52313  -0.49488
 Alpha virt. eigenvalues --    0.26458   0.30018   0.33527   0.35675   0.91560
 Alpha virt. eigenvalues --    0.95856   1.02578   1.20282   1.25195   1.33301
 Alpha virt. eigenvalues --    1.36412   1.92395

 Mulliken charges:
               1
     1  C   -0.733405
     2  H    0.151641
     3  H    0.211809
     4  H    0.211810
     5  H    0.158146
 Sum of Mulliken charges =   0.00000

 Dipole moment (field-independent basis, Debye):
    X=             -0.1301    Y=             -0.0689    Z=              0.0001  Tot=              0.1472
 Quadrupole moment (field-independent basis, Debye-Ang):
   XX=             -8.4789   YY=             -8.7720   ZZ=             -8.5616
   XY=              0.1249   XZ=             -0.0008   YZ=              0.0010

 Normal termination of Gaussian 16 at Fri Sep 22 17:21:34 2023.
