 Gaussian 16, Revision A.03,
 Gaussian 16:  ES64L-G16RevA.03 25-Dec-2016

 ----------
 # hf/3-21g
 ----------

 ------------------------
 tmpdir/M2_conf_249_8.gjf
 ------------------------
 Symbolic Z-matrix:
 Charge =  0 Multiplicity = 1

                         Standard orientation:
 ---------------------------------------------------------------------
 Center     Atomic      Atomic             Coordinates (Angstroms)
 Number     Number       Type             X           Y           Z
 ---------------------------------------------------------------------
      1          1           0       -0.619246   -0.000102    0.856332
      2          6           0       -1.214655   -0.000016   -0.037035
      3         17           0        0.677178    0.000011   -0.020938
      4          1           0       -1.802253   -0.892474   -0.139141
      5          1           0       -1.802594    0.892476   -0.139043
 ---------------------------------------------------------------------

 SCF Done:  E(RHF) =  -496.556209901     A.U. after   12 cycles

 The electronic state is 1-A.
 Alpha  occ. eigenvalues -- -104.10795 -11.23210 -10.50576  -7.96930  -7.96472
 Alpha  occ. eigenvalues --   -7.96417  -1.16488  -0.92204  -0.66470  -0.62486
 Alpha  occ. eigenvalues --   -0.51185  -0.46197  -0.38777
 Alpha virt. eigenvalues --    0.11901   0.29967   0.32312   0.32453   0.73901
 Alpha virt. eigenvalues --    0.77556   0.79986   0.84500   0.93121   0.98287
 Alpha virt. eigenvalues --    1.03534   1.22421   1.31181   1.32000   1.81424

 Mulliken charges:
               1
     1  H    0.295101
     2  C   -0.731998
     3  Cl  -0.102254
     4  H    0.269595
     5  H    0.269556
 Sum of Mulliken charges =  -0.00000

 Dipole moment (field-independent basis, Debye):
    X=             -2.1551    Y=             -0.0001    Z=              0.5789  Tot=              2.2315
 Quadrupole moment (field-independent basis, Debye-Ang):
   XX=            -18.7244   YY=            -20.0731   ZZ=            -21.3642
   XY=             -0.0003   XZ=              0.6251   YZ=              0.0000

 Normal termination of Gaussian 16 at Fri Sep 22 17:20:27 2023.
