 Gaussian 16, Revision A.03,
 Gaussian 16:  ES64L-G16RevA.03 25-Dec-2016

 ----------
 # hf/3-21g
 ----------

 ------------------------
 tmpdir/M2_conf_210_4.gjf
 ------------------------
 Symbolic Z-matrix:
 Charge =  0 Multiplicity = 1

                         Standard orientation:
 ---------------------------------------------------------------------
 Center     Atomic      Atomic             Coordinates (Angstroms)
 Number     Number       Type             X           Y           Z
 ---------------------------------------------------------------------
      1          1           0       -0.418306    0.942087   -0.352885
      2          6           0       -0.033835    0.000139   -0.010681
      3          1           0       -0.057494   -0.810572   -0.714105
      4          1           0       -0.471424   -0.308166    0.919947
      5          1           0        1.150231    0.175816    0.211128
 ---------------------------------------------------------------------

 SCF Done:  E(RHF) =  -39.9660852576     A.U. after    9 cycles

 The electronic state is 1-A.
 Alpha  occ. eigenvalues --  -11.15734  -0.93786  -0.56429  -0.55049  -0.50046
 Alpha virt. eigenvalues --    0.28331   0.32088   0.35425   0.35992   0.91340
 Alpha virt. eigenvalues --    0.92782   0.97481   1.25174   1.32161   1.36380
 Alpha virt. eigenvalues --    1.37737   1.94666

 Mulliken charges:
               1
     1  H    0.207907
     2  C   -0.772034
     3  H    0.207553
     4  H    0.206114
     5  H    0.150460
 Sum of Mulliken charges =   0.00000

 Dipole moment (field-independent basis, Debye):
    X=             -0.0576    Y=             -0.0299    Z=              0.0029  Tot=              0.0649
 Quadrupole moment (field-independent basis, Debye-Ang):
   XX=             -8.6574   YY=             -8.2724   ZZ=             -8.5150
   XY=             -0.0803   XZ=             -0.0845   YZ=             -0.0156

 Normal termination of Gaussian 16 at Fri Sep 22 17:19:28 2023.
