 Gaussian 16, Revision A.03,
 Gaussian 16:  ES64L-G16RevA.03 25-Dec-2016

 ----------
 # hf/3-21g
 ----------

 ------------------------
 tmpdir/M2_conf_293_7.gjf
 ------------------------
 Symbolic Z-matrix:
 Charge =  0 Multiplicity = 1

                         Standard orientation:
 ---------------------------------------------------------------------
 Center     Atomic      Atomic             Coordinates (Angstroms)
 Number     Number       Type             X           Y           Z
 ---------------------------------------------------------------------
      1          1           0       -0.572443    0.861662   -0.349146
      2          6           0       -0.034154   -0.004442   -0.013399
      3          1           0        0.120213   -0.800776   -0.716699
      4          1           0       -0.434760   -0.410033    0.896098
      5          1           0        1.091912    0.375799    0.250142
 ---------------------------------------------------------------------

 SCF Done:  E(RHF) =  -39.9655749550     A.U. after    9 cycles

 The electronic state is 1-A.
 Alpha  occ. eigenvalues --  -11.15737  -0.93794  -0.56672  -0.54871  -0.49963
 Alpha virt. eigenvalues --    0.28332   0.32025   0.35346   0.36083   0.91160
 Alpha virt. eigenvalues --    0.93105   0.97441   1.25206   1.32050   1.36236
 Alpha virt. eigenvalues --    1.37989   1.94658

 Mulliken charges:
               1
     1  H    0.208425
     2  C   -0.772861
     3  H    0.208101
     4  H    0.206128
     5  H    0.150207
 Sum of Mulliken charges =  -0.00000

 Dipole moment (field-independent basis, Debye):
    X=             -0.0470    Y=             -0.0452    Z=              0.0057  Tot=              0.0655
 Quadrupole moment (field-independent basis, Debye-Ang):
   XX=             -8.6098   YY=             -8.2784   ZZ=             -8.5594
   XY=             -0.1604   XZ=             -0.0947   YZ=             -0.0364

 Normal termination of Gaussian 16 at Fri Sep 22 17:21:38 2023.
