 Gaussian 16, Revision A.03,
 Gaussian 16:  ES64L-G16RevA.03 25-Dec-2016

 ----------
 # hf/3-21g
 ----------

 -----------------------
 tmpdir/M2_conf_51_1.gjf
 -----------------------
 Symbolic Z-matrix:
 Charge =  0 Multiplicity = 1

                         Standard orientation:
 ---------------------------------------------------------------------
 Center     Atomic      Atomic             Coordinates (Angstroms)
 Number     Number       Type             X           Y           Z
 ---------------------------------------------------------------------
      1          6           0       -0.032244   -0.000060    0.014434
      2          1           0       -0.144143   -0.001540    0.989936
      3          1           0       -0.413957   -0.892337   -0.444169
      4          1           0       -0.416233    0.892604   -0.441975
      5          1           0        1.167796    0.001634   -0.190398
 ---------------------------------------------------------------------

 SCF Done:  E(RHF) =  -39.9589391812     A.U. after    9 cycles

 The electronic state is 1-A.
 Alpha  occ. eigenvalues --  -11.14663  -0.94983  -0.57656  -0.55512  -0.50290
 Alpha virt. eigenvalues --    0.28543   0.32618   0.35681   0.37749   0.87756
 Alpha virt. eigenvalues --    0.92134   0.97565   1.25405   1.34206   1.37114
 Alpha virt. eigenvalues --    1.45815   1.96098

 Mulliken charges:
               1
     1  C   -0.780676
     2  H    0.227840
     3  H    0.202800
     4  H    0.202746
     5  H    0.147290
 Sum of Mulliken charges =  -0.00000

 Dipole moment (field-independent basis, Debye):
    X=             -0.0845    Y=             -0.0003    Z=              0.0615  Tot=              0.1045
 Quadrupole moment (field-independent basis, Debye-Ang):
   XX=             -8.5580   YY=             -8.2979   ZZ=             -8.3755
   XY=             -0.0005   XZ=              0.0470   YZ=             -0.0001

 Normal termination of Gaussian 16 at Fri Sep 22 17:15:23 2023.
