 Gaussian 16, Revision A.03,
 Gaussian 16:  ES64L-G16RevA.03 25-Dec-2016

 ----------
 # hf/3-21g
 ----------

 ------------------------
 tmpdir/M2_conf_195_5.gjf
 ------------------------
 Symbolic Z-matrix:
 Charge =  0 Multiplicity = 1

                         Standard orientation:
 ---------------------------------------------------------------------
 Center     Atomic      Atomic             Coordinates (Angstroms)
 Number     Number       Type             X           Y           Z
 ---------------------------------------------------------------------
      1          1           0        0.332038    0.973911   -0.345739
      2          6           0        0.032694    0.001175   -0.004616
      3          1           0        0.239910   -0.790171   -0.699921
      4          1           0        0.411669   -0.225658    0.973921
      5          1           0       -1.179782    0.034871    0.099434
 ---------------------------------------------------------------------

 SCF Done:  E(RHF) =  -39.9667350500     A.U. after    9 cycles

 The electronic state is 1-A.
 Alpha  occ. eigenvalues --  -11.15729  -0.93778  -0.55961  -0.55395  -0.50185
 Alpha virt. eigenvalues --    0.28325   0.32181   0.35581   0.35812   0.91680
 Alpha virt. eigenvalues --    0.92244   0.97566   1.25112   1.32343   1.36699
 Alpha virt. eigenvalues --    1.37262   1.94666

 Mulliken charges:
               1
     1  H    0.207001
     2  C   -0.771016
     3  H    0.206769
     4  H    0.206272
     5  H    0.150974
 Sum of Mulliken charges =  -0.00000

 Dipole moment (field-independent basis, Debye):
    X=              0.0663    Y=             -0.0104    Z=              0.0003  Tot=              0.0671
 Quadrupole moment (field-independent basis, Debye-Ang):
   XX=             -8.6679   YY=             -8.3370   ZZ=             -8.4353
   XY=              0.0171   XZ=              0.0407   YZ=             -0.0022

 Normal termination of Gaussian 16 at Fri Sep 22 17:19:05 2023.
