 Gaussian 16, Revision A.03,
 Gaussian 16:  ES64L-G16RevA.03 25-Dec-2016

 ----------
 # hf/3-21g
 ----------

 -----------------------
 tmpdir/M2_conf_60_6.gjf
 -----------------------
 Symbolic Z-matrix:
 Charge =  0 Multiplicity = 1

                         Standard orientation:
 ---------------------------------------------------------------------
 Center     Atomic      Atomic             Coordinates (Angstroms)
 Number     Number       Type             X           Y           Z
 ---------------------------------------------------------------------
      1          1           0       -1.335078   -0.008550    1.061640
      2          6           0       -1.202802    0.000046   -0.003544
      3         17           0        0.689100    0.000042   -0.006567
      4          1           0       -1.581184    0.896444   -0.457317
      5          1           0       -1.581622   -0.888881   -0.471426
 ---------------------------------------------------------------------

 SCF Done:  E(RHF) =  -496.685972648     A.U. after   11 cycles

 The electronic state is 1-A.
 Alpha  occ. eigenvalues -- -104.08807 -11.24989 -10.48198  -7.94572  -7.94168
 Alpha  occ. eigenvalues --   -7.94167  -1.11371  -0.93312  -0.63410  -0.63197
 Alpha  occ. eigenvalues --   -0.51193  -0.43847  -0.43567
 Alpha virt. eigenvalues --    0.16385   0.27349   0.31373   0.31426   0.73872
 Alpha virt. eigenvalues --    0.80184   0.81026   0.85614   0.92642   0.94779
 Alpha virt. eigenvalues --    0.99953   1.30861   1.31177   1.32356   1.91476

 Mulliken charges:
               1
     1  H    0.275812
     2  C   -0.703707
     3  Cl  -0.107109
     4  H    0.267511
     5  H    0.267492
 Sum of Mulliken charges =  -0.00000

 Dipole moment (field-independent basis, Debye):
    X=             -2.8553    Y=             -0.0007    Z=              0.0914  Tot=              2.8568
 Quadrupole moment (field-independent basis, Debye-Ang):
   XX=            -18.5588   YY=            -20.1824   ZZ=            -20.2239
   XY=             -0.0015   XZ=              0.2449   YZ=             -0.0002

 Normal termination of Gaussian 16 at Fri Sep 22 17:15:37 2023.
