 Gaussian 16, Revision A.03,
 Gaussian 16:  ES64L-G16RevA.03 25-Dec-2016

 ----------
 # hf/3-21g
 ----------

 -----------------------
 tmpdir/M2_conf_87_6.gjf
 -----------------------
 Symbolic Z-matrix:
 Charge =  0 Multiplicity = 1

                         Standard orientation:
 ---------------------------------------------------------------------
 Center     Atomic      Atomic             Coordinates (Angstroms)
 Number     Number       Type             X           Y           Z
 ---------------------------------------------------------------------
      1          1           0       -1.393499   -0.017794    1.053862
      2          6           0       -1.202545    0.000057   -0.002266
      3         17           0        0.689350    0.000062   -0.004338
      4          1           0       -1.554867    0.900768   -0.468313
      5          1           0       -1.555321   -0.884361   -0.498211
 ---------------------------------------------------------------------

 SCF Done:  E(RHF) =  -496.687998924     A.U. after   11 cycles

 The electronic state is 1-A.
 Alpha  occ. eigenvalues -- -104.08786 -11.24996 -10.48177  -7.94551  -7.94147
 Alpha  occ. eigenvalues --   -7.94146  -1.11318  -0.93326  -0.63329  -0.63211
 Alpha  occ. eigenvalues --   -0.51266  -0.43799  -0.43637
 Alpha virt. eigenvalues --    0.16510   0.27338   0.31369   0.31406   0.73845
 Alpha virt. eigenvalues --    0.80354   0.80949   0.85560   0.92933   0.94403
 Alpha virt. eigenvalues --    0.99726   1.31059   1.31190   1.32297   1.91785

 Mulliken charges:
               1
     1  H    0.273765
     2  C   -0.703138
     3  Cl  -0.107035
     4  H    0.268214
     5  H    0.268193
 Sum of Mulliken charges =  -0.00000

 Dipole moment (field-independent basis, Debye):
    X=             -2.8617    Y=             -0.0009    Z=              0.0591  Tot=              2.8623
 Quadrupole moment (field-independent basis, Debye-Ang):
   XX=            -18.5651   YY=            -20.1818   ZZ=            -20.1985
   XY=             -0.0022   XZ=              0.1617   YZ=             -0.0002

 Normal termination of Gaussian 16 at Fri Sep 22 17:16:17 2023.
