 Gaussian 16, Revision A.03,
 Gaussian 16:  ES64L-G16RevA.03 25-Dec-2016

 ----------
 # hf/3-21g
 ----------

 -----------------------
 tmpdir/M2_conf_84_8.gjf
 -----------------------
 Symbolic Z-matrix:
 Charge =  0 Multiplicity = 1

                         Standard orientation:
 ---------------------------------------------------------------------
 Center     Atomic      Atomic             Coordinates (Angstroms)
 Number     Number       Type             X           Y           Z
 ---------------------------------------------------------------------
      1          1           0       -1.617180   -0.018210    0.992623
      2          6           0       -1.202584   -0.000054    0.002473
      3         17           0        0.689317   -0.000083    0.004676
      4          1           0       -1.442798   -0.882358   -0.559678
      5          1           0       -1.442906    0.902298   -0.527269
 ---------------------------------------------------------------------

 SCF Done:  E(RHF) =  -496.687814659     A.U. after   11 cycles

 The electronic state is 1-A.
 Alpha  occ. eigenvalues -- -104.08787 -11.24997 -10.48176  -7.94550  -7.94146
 Alpha  occ. eigenvalues --   -7.94146  -1.11320  -0.93325  -0.63293  -0.63256
 Alpha  occ. eigenvalues --   -0.51253  -0.43765  -0.43667
 Alpha virt. eigenvalues --    0.16489   0.27330   0.31362   0.31421   0.73846
 Alpha virt. eigenvalues --    0.80290   0.81047   0.85589   0.92839   0.94375
 Alpha virt. eigenvalues --    0.99841   1.30935   1.31277   1.32351   1.91777

 Mulliken charges:
               1
     1  H    0.266070
     2  C   -0.703477
     3  Cl  -0.106849
     4  H    0.272152
     5  H    0.272104
 Sum of Mulliken charges =  -0.00000

 Dipole moment (field-independent basis, Debye):
    X=             -2.8614    Y=              0.0010    Z=             -0.0601  Tot=              2.8621
 Quadrupole moment (field-independent basis, Debye-Ang):
   XX=            -18.5640   YY=            -20.1785   ZZ=            -20.2045
   XY=              0.0033   XZ=             -0.1751   YZ=              0.0001

 Normal termination of Gaussian 16 at Fri Sep 22 17:16:13 2023.
