 Gaussian 16, Revision A.03,
 Gaussian 16:  ES64L-G16RevA.03 25-Dec-2016

 ----------
 # hf/3-21g
 ----------

 ------------------------
 tmpdir/M2_conf_259_4.gjf
 ------------------------
 Symbolic Z-matrix:
 Charge =  0 Multiplicity = 1

                         Standard orientation:
 ---------------------------------------------------------------------
 Center     Atomic      Atomic             Coordinates (Angstroms)
 Number     Number       Type             X           Y           Z
 ---------------------------------------------------------------------
      1          1           0       -0.333712    0.971149   -0.352158
      2          6           0       -0.032710    0.001092   -0.004921
      3          1           0       -0.230761   -0.794904   -0.697591
      4          1           0       -0.418117   -0.223144    0.971697
      5          1           0        1.178849    0.040349    0.107581
 ---------------------------------------------------------------------

 SCF Done:  E(RHF) =  -39.9667205232     A.U. after    9 cycles

 The electronic state is 1-A.
 Alpha  occ. eigenvalues --  -11.15729  -0.93778  -0.55976  -0.55384  -0.50182
 Alpha virt. eigenvalues --    0.28325   0.32179   0.35576   0.35818   0.91669
 Alpha virt. eigenvalues --    0.92260   0.97564   1.25113   1.32338   1.36688
 Alpha virt. eigenvalues --    1.37277   1.94665

 Mulliken charges:
               1
     1  H    0.207023
     2  C   -0.771034
     3  H    0.206792
     4  H    0.206261
     5  H    0.150959
 Sum of Mulliken charges =   0.00000

 Dipole moment (field-independent basis, Debye):
    X=             -0.0661    Y=             -0.0111    Z=             -0.0000  Tot=              0.0670
 Quadrupole moment (field-independent basis, Debye-Ang):
   XX=             -8.6674   YY=             -8.3348   ZZ=             -8.4381
   XY=             -0.0195   XZ=             -0.0440   YZ=             -0.0026

 Normal termination of Gaussian 16 at Fri Sep 22 17:20:42 2023.
