 Gaussian 16, Revision A.03,
 Gaussian 16:  ES64L-G16RevA.03 25-Dec-2016

 ----------
 # hf/3-21g
 ----------

 -----------------------
 tmpdir/M2_conf_33_9.gjf
 -----------------------
 Symbolic Z-matrix:
 Charge =  0 Multiplicity = 1

                         Standard orientation:
 ---------------------------------------------------------------------
 Center     Atomic      Atomic             Coordinates (Angstroms)
 Number     Number       Type             X           Y           Z
 ---------------------------------------------------------------------
      1          1           0        1.654038   -0.014408    0.977341
      2          6           0        1.202744   -0.000034    0.003306
      3         17           0       -0.689153   -0.000102    0.006181
      4          1           0        1.422763   -0.884271   -0.564067
      5          1           0        1.422336    0.900621   -0.538179
 ---------------------------------------------------------------------

 SCF Done:  E(RHF) =  -496.686542843     A.U. after   11 cycles

 The electronic state is 1-A.
 Alpha  occ. eigenvalues -- -104.08798 -11.24994 -10.48187  -7.94561  -7.94157
 Alpha  occ. eigenvalues --   -7.94157  -1.11350  -0.93315  -0.63315  -0.63276
 Alpha  occ. eigenvalues --   -0.51200  -0.43765  -0.43651
 Alpha virt. eigenvalues --    0.16397   0.27328   0.31362   0.31443   0.73860
 Alpha virt. eigenvalues --    0.80159   0.81170   0.85656   0.92569   0.94535
 Alpha virt. eigenvalues --    1.00099   1.30769   1.31297   1.32440   1.91608

 Mulliken charges:
               1
     1  H    0.264957
     2  C   -0.704212
     3  Cl  -0.106615
     4  H    0.272945
     5  H    0.272926
 Sum of Mulliken charges =   0.00000

 Dipole moment (field-independent basis, Debye):
    X=              2.8577    Y=              0.0011    Z=             -0.0787  Tot=              2.8588
 Quadrupole moment (field-independent basis, Debye-Ang):
   XX=            -18.5586   YY=            -20.1773   ZZ=            -20.2228
   XY=             -0.0041   XZ=              0.2318   YZ=              0.0000

 Normal termination of Gaussian 16 at Fri Sep 22 17:14:57 2023.
