 Gaussian 16, Revision A.03,
 Gaussian 16:  ES64L-G16RevA.03 25-Dec-2016

 ----------
 # hf/3-21g
 ----------

 ------------------------
 tmpdir/M2_conf_176_6.gjf
 ------------------------
 Symbolic Z-matrix:
 Charge =  0 Multiplicity = 1

                         Standard orientation:
 ---------------------------------------------------------------------
 Center     Atomic      Atomic             Coordinates (Angstroms)
 Number     Number       Type             X           Y           Z
 ---------------------------------------------------------------------
      1          1           0       -1.161091   -0.002598    1.064518
      2          6           0       -1.204157    0.000034   -0.008015
      3         17           0        0.687742    0.000021   -0.012613
      4          1           0       -1.652601    0.893702   -0.398997
      5          1           0       -1.652980   -0.891673   -0.403014
 ---------------------------------------------------------------------

 SCF Done:  E(RHF) =  -496.674458905     A.U. after   11 cycles

 The electronic state is 1-A.
 Alpha  occ. eigenvalues -- -104.08934 -11.24930 -10.48336  -7.94707  -7.94301
 Alpha  occ. eigenvalues --   -7.94297  -1.11693  -0.93231  -0.63793  -0.63157
 Alpha  occ. eigenvalues --   -0.50860  -0.44047  -0.43226
 Alpha virt. eigenvalues --    0.15747   0.27462   0.31415   0.31506   0.73998
 Alpha virt. eigenvalues --    0.79680   0.80999   0.85537   0.92534   0.95820
 Alpha virt. eigenvalues --    1.00861   1.30049   1.31164   1.32314   1.89800

 Mulliken charges:
               1
     1  H    0.281618
     2  C   -0.705812
     3  Cl  -0.108283
     4  H    0.266246
     5  H    0.266231
 Sum of Mulliken charges =   0.00000

 Dipole moment (field-independent basis, Debye):
    X=             -2.8163    Y=             -0.0004    Z=              0.1900  Tot=              2.8227
 Quadrupole moment (field-independent basis, Debye-Ang):
   XX=            -18.5320   YY=            -20.1815   ZZ=            -20.3634
   XY=             -0.0007   XZ=              0.4695   YZ=             -0.0001

 Normal termination of Gaussian 16 at Fri Sep 22 17:18:31 2023.
