 Gaussian 16, Revision A.03,
 Gaussian 16:  ES64L-G16RevA.03 25-Dec-2016

 ----------
 # hf/3-21g
 ----------

 -----------------------
 tmpdir/M2_conf_30_2.gjf
 -----------------------
 Symbolic Z-matrix:
 Charge =  0 Multiplicity = 1

                         Standard orientation:
 ---------------------------------------------------------------------
 Center     Atomic      Atomic             Coordinates (Angstroms)
 Number     Number       Type             X           Y           Z
 ---------------------------------------------------------------------
      1          6           0        0.032265    0.000014    0.011731
      2          1           0        0.168011   -0.003435    1.004891
      3          1           0        0.407260   -0.889929   -0.456863
      4          1           0        0.402966    0.895216   -0.450672
      5          1           0       -1.171829   -0.001933   -0.167741
 ---------------------------------------------------------------------

 SCF Done:  E(RHF) =  -39.9621589848     A.U. after    9 cycles

 The electronic state is 1-A.
 Alpha  occ. eigenvalues --  -11.14897  -0.94681  -0.57199  -0.55540  -0.50288
 Alpha virt. eigenvalues --    0.28506   0.32558   0.35684   0.37273   0.88681
 Alpha virt. eigenvalues --    0.92087   0.97550   1.25343   1.33983   1.37085
 Alpha virt. eigenvalues --    1.43465   1.95697

 Mulliken charges:
               1
     1  C   -0.778934
     2  H    0.223399
     3  H    0.203672
     4  H    0.203627
     5  H    0.148236
 Sum of Mulliken charges =  -0.00000

 Dipole moment (field-independent basis, Debye):
    X=              0.0825    Y=             -0.0001    Z=              0.0500  Tot=              0.0965
 Quadrupole moment (field-independent basis, Debye-Ang):
   XX=             -8.5813   YY=             -8.3187   ZZ=             -8.3792
   XY=             -0.0011   XZ=             -0.0411   YZ=             -0.0005

 Normal termination of Gaussian 16 at Fri Sep 22 17:14:52 2023.
