 Gaussian 16, Revision A.03,
 Gaussian 16:  ES64L-G16RevA.03 25-Dec-2016

 ----------
 # hf/3-21g
 ----------

 -----------------------
 tmpdir/M2_conf_17_5.gjf
 -----------------------
 Symbolic Z-matrix:
 Charge =  0 Multiplicity = 1

                         Standard orientation:
 ---------------------------------------------------------------------
 Center     Atomic      Atomic             Coordinates (Angstroms)
 Number     Number       Type             X           Y           Z
 ---------------------------------------------------------------------
      1          1           0       -0.538439   -0.088985    0.899679
      2          6           0       -0.000608    0.027579   -0.021916
      3          1           0       -0.833535   -0.197336   -0.660865
      4          1           0        0.524096    0.962659   -0.075961
      5          1           0        0.851525   -0.841813   -0.031357
 ---------------------------------------------------------------------

 SCF Done:  E(RHF) =  -39.9580675760     A.U. after    9 cycles

 The electronic state is 1-A.
 Alpha  occ. eigenvalues --  -11.15734  -0.94021  -0.58280  -0.51997  -0.50807
 Alpha virt. eigenvalues --    0.28059   0.32274   0.34337   0.36501   0.89984
 Alpha virt. eigenvalues --    0.94330   0.99256   1.24579   1.32082   1.34449
 Alpha virt. eigenvalues --    1.40379   1.93316

 Mulliken charges:
               1
     1  H    0.202880
     2  C   -0.779515
     3  H    0.208655
     4  H    0.210924
     5  H    0.157055
 Sum of Mulliken charges =  -0.00000

 Dipole moment (field-independent basis, Debye):
    X=             -0.1476    Y=              0.0316    Z=              0.1134  Tot=              0.1888
 Quadrupole moment (field-independent basis, Debye-Ang):
   XX=             -8.0057   YY=             -8.4491   ZZ=             -8.9965
   XY=              0.2379   XZ=              0.0234   YZ=             -0.0146

 Normal termination of Gaussian 16 at Fri Sep 22 17:14:33 2023.
