 Gaussian 16, Revision A.03,
 Gaussian 16:  ES64L-G16RevA.03 25-Dec-2016

 ----------
 # hf/3-21g
 ----------

 ------------------------
 tmpdir/M2_conf_275_1.gjf
 ------------------------
 Symbolic Z-matrix:
 Charge =  0 Multiplicity = 1

                         Standard orientation:
 ---------------------------------------------------------------------
 Center     Atomic      Atomic             Coordinates (Angstroms)
 Number     Number       Type             X           Y           Z
 ---------------------------------------------------------------------
      1          6           0       -0.031869   -0.000062    0.002181
      2          1           0       -0.289807   -0.015002    1.033922
      3          1           0       -0.350934   -0.885543   -0.513863
      4          1           0       -0.352678    0.899222   -0.488712
      5          1           0        1.184634    0.001696   -0.044432
 ---------------------------------------------------------------------

 SCF Done:  E(RHF) =  -39.9667879124     A.U. after    9 cycles

 The electronic state is 1-A.
 Alpha  occ. eigenvalues --  -11.15608  -0.93891  -0.55856  -0.55620  -0.50275
 Alpha virt. eigenvalues --    0.28352   0.32293   0.35686   0.35897   0.91477
 Alpha virt. eigenvalues --    0.91935   0.97604   1.25115   1.32808   1.36964
 Alpha virt. eigenvalues --    1.37632   1.94776

 Mulliken charges:
               1
     1  C   -0.772046
     2  H    0.208951
     3  H    0.206109
     4  H    0.206053
     5  H    0.150933
 Sum of Mulliken charges =  -0.00000

 Dipole moment (field-independent basis, Debye):
    X=             -0.0733    Y=             -0.0004    Z=              0.0086  Tot=              0.0738
 Quadrupole moment (field-independent basis, Debye-Ang):
   XX=             -8.6472   YY=             -8.3810   ZZ=             -8.3879
   XY=             -0.0005   XZ=              0.0121   YZ=             -0.0001

 Normal termination of Gaussian 16 at Fri Sep 22 17:21:07 2023.
