 Gaussian 16, Revision A.03,
 Gaussian 16:  ES64L-G16RevA.03 25-Dec-2016

 ----------
 # hf/3-21g
 ----------

 ------------------------
 tmpdir/M2_conf_256_7.gjf
 ------------------------
 Symbolic Z-matrix:
 Charge =  0 Multiplicity = 1

                         Standard orientation:
 ---------------------------------------------------------------------
 Center     Atomic      Atomic             Coordinates (Angstroms)
 Number     Number       Type             X           Y           Z
 ---------------------------------------------------------------------
      1          1           0        0.386293   -0.276249    0.966266
      2          6           0        0.027129    0.011114   -0.003807
      3          1           0        0.534536   -0.570170   -0.750309
      4          1           0        0.067762    1.072442   -0.159064
      5          1           0       -1.151362   -0.292705   -0.034050
 ---------------------------------------------------------------------

 SCF Done:  E(RHF) =  -39.9667794296     A.U. after    9 cycles

 The electronic state is 1-A.
 Alpha  occ. eigenvalues --  -11.15721  -0.93787  -0.56177  -0.54912  -0.50429
 Alpha virt. eigenvalues --    0.28293   0.32304   0.35408   0.35909   0.91293
 Alpha virt. eigenvalues --    0.92462   0.97831   1.24970   1.32643   1.36260
 Alpha virt. eigenvalues --    1.37529   1.94566

 Mulliken charges:
               1
     1  H    0.205504
     2  C   -0.770883
     3  H    0.206120
     4  H    0.206971
     5  H    0.152288
 Sum of Mulliken charges =  -0.00000

 Dipole moment (field-independent basis, Debye):
    X=              0.0816    Y=              0.0066    Z=              0.0219  Tot=              0.0848
 Quadrupole moment (field-independent basis, Debye-Ang):
   XX=             -8.5770   YY=             -8.3457   ZZ=             -8.5116
   XY=             -0.1157   XZ=             -0.0180   YZ=             -0.0030

 Normal termination of Gaussian 16 at Fri Sep 22 17:20:38 2023.
