 Gaussian 16, Revision A.03,
 Gaussian 16:  ES64L-G16RevA.03 25-Dec-2016

 ----------
 # hf/3-21g
 ----------

 ------------------------
 tmpdir/M2_conf_155_7.gjf
 ------------------------
 Symbolic Z-matrix:
 Charge =  0 Multiplicity = 1

                         Standard orientation:
 ---------------------------------------------------------------------
 Center     Atomic      Atomic             Coordinates (Angstroms)
 Number     Number       Type             X           Y           Z
 ---------------------------------------------------------------------
      1          1           0        0.422963   -0.232834    0.958538
      2          6           0        0.023231    0.016317   -0.006218
      3          1           0        0.625624   -0.489039   -0.737214
      4          1           0       -0.087609    1.075046   -0.143987
      5          1           0       -1.100363   -0.451073   -0.040027
 ---------------------------------------------------------------------

 SCF Done:  E(RHF) =  -39.9663195683     A.U. after    9 cycles

 The electronic state is 1-A.
 Alpha  occ. eigenvalues --  -11.15720  -0.93801  -0.56474  -0.54512  -0.50503
 Alpha virt. eigenvalues --    0.28274   0.32326   0.35255   0.36020   0.91004
 Alpha virt. eigenvalues --    0.92763   0.97963   1.24917   1.32705   1.35911
 Alpha virt. eigenvalues --    1.37879   1.94486

 Mulliken charges:
               1
     1  H    0.205101
     2  C   -0.771468
     3  H    0.206190
     4  H    0.207330
     5  H    0.152847
 Sum of Mulliken charges =  -0.00000

 Dipole moment (field-independent basis, Debye):
    X=              0.0881    Y=              0.0126    Z=              0.0336  Tot=              0.0951
 Quadrupole moment (field-independent basis, Debye-Ang):
   XX=             -8.4978   YY=             -8.3575   ZZ=             -8.5784
   XY=             -0.1696   XZ=             -0.0217   YZ=             -0.0063

 Normal termination of Gaussian 16 at Fri Sep 22 17:17:59 2023.
