 Gaussian 16, Revision A.03,
 Gaussian 16:  ES64L-G16RevA.03 25-Dec-2016

 ----------
 # hf/3-21g
 ----------

 -----------------------
 tmpdir/M2_conf_63_7.gjf
 -----------------------
 Symbolic Z-matrix:
 Charge =  0 Multiplicity = 1

                         Standard orientation:
 ---------------------------------------------------------------------
 Center     Atomic      Atomic             Coordinates (Angstroms)
 Number     Number       Type             X           Y           Z
 ---------------------------------------------------------------------
      1          1           0       -1.038797    0.125582   -0.334763
      2          6           0       -0.023506   -0.028072   -0.021407
      3          1           0        0.740550   -0.341428   -0.707446
      4          1           0        0.049531   -0.674745    0.832206
      5          1           0        0.389754    1.059027    0.338443
 ---------------------------------------------------------------------

 SCF Done:  E(RHF) =  -39.9631307475     A.U. after    9 cycles

 The electronic state is 1-A.
 Alpha  occ. eigenvalues --  -11.15751  -0.93835  -0.57452  -0.54317  -0.49644
 Alpha virt. eigenvalues --    0.28323   0.31759   0.35091   0.36379   0.90665
 Alpha virt. eigenvalues --    0.94248   0.97344   1.25294   1.31675   1.35801
 Alpha virt. eigenvalues --    1.38847   1.94596

 Mulliken charges:
               1
     1  H    0.210703
     2  C   -0.776923
     3  H    0.210628
     4  H    0.206115
     5  H    0.149477
 Sum of Mulliken charges =   0.00000

 Dipole moment (field-independent basis, Debye):
    X=              0.0272    Y=             -0.0667    Z=              0.0163  Tot=              0.0739
 Quadrupole moment (field-independent basis, Debye-Ang):
   XX=             -8.1191   YY=             -8.6327   ZZ=             -8.7071
   XY=             -0.1557   XZ=             -0.0401   YZ=             -0.1294

 Normal termination of Gaussian 16 at Fri Sep 22 17:15:41 2023.
