 Gaussian 16, Revision A.03,
 Gaussian 16:  ES64L-G16RevA.03 25-Dec-2016

 ----------
 # hf/3-21g
 ----------

 ----------------------
 tmpdir/M2_conf_1_3.gjf
 ----------------------
 Symbolic Z-matrix:
 Charge =  0 Multiplicity = 1

                         Standard orientation:
 ---------------------------------------------------------------------
 Center     Atomic      Atomic             Coordinates (Angstroms)
 Number     Number       Type             X           Y           Z
 ---------------------------------------------------------------------
      1          6           0       -1.362157    0.000017    0.000010
      2         17           0        0.774143   -0.000013   -0.000003
      3          1           0       -1.662524   -0.278186    0.992268
      4          1           0       -1.662204    0.998728   -0.255258
      5          1           0       -1.662771   -0.720425   -0.737021
 ---------------------------------------------------------------------

 SCF Done:  E(RHF) =  -496.674783040     A.U. after   10 cycles

 The electronic state is 1-A.
 Alpha  occ. eigenvalues -- -104.08415 -11.27587 -10.47313  -7.93652  -7.93340
 Alpha  occ. eigenvalues --   -7.93340  -1.06427  -0.95580  -0.63467  -0.63462
 Alpha  occ. eigenvalues --   -0.47213  -0.43093  -0.43093
 Alpha virt. eigenvalues --    0.09196   0.26371   0.30938   0.30941   0.73436
 Alpha virt. eigenvalues --    0.79538   0.79543   0.86402   0.93651   0.93661
 Alpha virt. eigenvalues --    1.03232   1.29506   1.29930   1.29939   1.84932

 Mulliken charges:
               1
     1  C   -0.564782
     2  Cl  -0.245053
     3  H    0.269964
     4  H    0.269951
     5  H    0.269919
 Sum of Mulliken charges =  -0.00000

 Dipole moment (field-independent basis, Debye):
    X=             -3.7806    Y=              0.0001    Z=              0.0001  Tot=              3.7806
 Quadrupole moment (field-independent basis, Debye-Ang):
   XX=            -16.9513   YY=            -20.3408   ZZ=            -20.3422
   XY=              0.0006   XZ=             -0.0001   YZ=             -0.0001

 Normal termination of Gaussian 16 at Fri Sep 22 17:14:09 2023.
