 Gaussian 16, Revision A.03,
 Gaussian 16:  ES64L-G16RevA.03 25-Dec-2016

 ----------
 # hf/3-21g
 ----------

 -----------------------
 tmpdir/M2_conf_79_7.gjf
 -----------------------
 Symbolic Z-matrix:
 Charge =  0 Multiplicity = 1

                         Standard orientation:
 ---------------------------------------------------------------------
 Center     Atomic      Atomic             Coordinates (Angstroms)
 Number     Number       Type             X           Y           Z
 ---------------------------------------------------------------------
      1          1           0       -0.674048    0.786242   -0.348212
      2          6           0       -0.033681   -0.008183   -0.014391
      3          1           0        0.230983   -0.775969   -0.716584
      4          1           0       -0.387849   -0.469745    0.887662
      5          1           0        1.033000    0.508573    0.263482
 ---------------------------------------------------------------------

 SCF Done:  E(RHF) =  -39.9653575809     A.U. after    9 cycles

 The electronic state is 1-A.
 Alpha  occ. eigenvalues --  -11.15739  -0.93798  -0.56763  -0.54806  -0.49931
 Alpha virt. eigenvalues --    0.28332   0.32000   0.35316   0.36118   0.91099
 Alpha virt. eigenvalues --    0.93225   0.97427   1.25217   1.32009   1.36181
 Alpha virt. eigenvalues --    1.38085   1.94653

 Mulliken charges:
               1
     1  H    0.208649
     2  C   -0.773214
     3  H    0.208331
     4  H    0.206116
     5  H    0.150117
 Sum of Mulliken charges =   0.00000

 Dipole moment (field-independent basis, Debye):
    X=             -0.0392    Y=             -0.0526    Z=              0.0068  Tot=              0.0660
 Quadrupole moment (field-independent basis, Debye-Ang):
   XX=             -8.5595   YY=             -8.3131   ZZ=             -8.5761
   XY=             -0.2043   XZ=             -0.0939   YZ=             -0.0506

 Normal termination of Gaussian 16 at Fri Sep 22 17:16:05 2023.
