 Gaussian 16, Revision A.03,
 Gaussian 16:  ES64L-G16RevA.03 25-Dec-2016

 ----------
 # hf/3-21g
 ----------

 -----------------------
 tmpdir/M2_conf_22_7.gjf
 -----------------------
 Symbolic Z-matrix:
 Charge =  0 Multiplicity = 1

                         Standard orientation:
 ---------------------------------------------------------------------
 Center     Atomic      Atomic             Coordinates (Angstroms)
 Number     Number       Type             X           Y           Z
 ---------------------------------------------------------------------
      1          1           0       -0.580244    0.856538   -0.349087
      2          6           0       -0.034136   -0.004714   -0.013485
      3          1           0        0.128700   -0.799444   -0.716694
      4          1           0       -0.431714   -0.414712    0.895365
      5          1           0        1.088074    0.385899    0.251327
 ---------------------------------------------------------------------

 SCF Done:  E(RHF) =  -39.9655569263     A.U. after    9 cycles

 The electronic state is 1-A.
 Alpha  occ. eigenvalues --  -11.15738  -0.93795  -0.56680  -0.54866  -0.49961
 Alpha virt. eigenvalues --    0.28332   0.32023   0.35343   0.36086   0.91155
 Alpha virt. eigenvalues --    0.93115   0.97439   1.25207   1.32046   1.36231
 Alpha virt. eigenvalues --    1.37997   1.94657

 Mulliken charges:
               1
     1  H    0.208444
     2  C   -0.772890
     3  H    0.208120
     4  H    0.206127
     5  H    0.150200
 Sum of Mulliken charges =   0.00000

 Dipole moment (field-independent basis, Debye):
    X=             -0.0465    Y=             -0.0459    Z=              0.0058  Tot=              0.0655
 Quadrupole moment (field-independent basis, Debye-Ang):
   XX=             -8.6065   YY=             -8.2803   ZZ=             -8.5609
   XY=             -0.1641   XZ=             -0.0948   YZ=             -0.0374

 Normal termination of Gaussian 16 at Fri Sep 22 17:14:40 2023.
