 Gaussian 16, Revision A.03,
 Gaussian 16:  ES64L-G16RevA.03 25-Dec-2016

 ----------
 # hf/3-21g
 ----------

 ------------------------
 tmpdir/M2_conf_171_0.gjf
 ------------------------
 Symbolic Z-matrix:
 Charge =  0 Multiplicity = 1

                         Standard orientation:
 ---------------------------------------------------------------------
 Center     Atomic      Atomic             Coordinates (Angstroms)
 Number     Number       Type             X           Y           Z
 ---------------------------------------------------------------------
      1          6           0       -0.032247    0.000055    0.011744
      2          1           0       -0.166944   -0.001533    1.004951
      3          1           0       -0.403189    0.894597   -0.451744
      4          1           0       -0.408086   -0.890777   -0.454910
      5          1           0        1.171698   -0.002618   -0.168761
 ---------------------------------------------------------------------

 SCF Done:  E(RHF) =  -39.9621464618     A.U. after    9 cycles

 The electronic state is 1-A.
 Alpha  occ. eigenvalues --  -11.14898  -0.94681  -0.57199  -0.55538  -0.50288
 Alpha virt. eigenvalues --    0.28506   0.32557   0.35682   0.37274   0.88676
 Alpha virt. eigenvalues --    0.92094   0.97553   1.25342   1.33973   1.37077
 Alpha virt. eigenvalues --    1.43475   1.95696

 Mulliken charges:
               1
     1  C   -0.778916
     2  H    0.223430
     3  H    0.203626
     4  H    0.203620
     5  H    0.148238
 Sum of Mulliken charges =  -0.00000

 Dipole moment (field-independent basis, Debye):
    X=             -0.0824    Y=              0.0002    Z=              0.0504  Tot=              0.0966
 Quadrupole moment (field-independent basis, Debye-Ang):
   XX=             -8.5811   YY=             -8.3184   ZZ=             -8.3798
   XY=              0.0012   XZ=              0.0416   YZ=             -0.0004

 Normal termination of Gaussian 16 at Fri Sep 22 17:18:24 2023.
