 Gaussian 16, Revision A.03,
 Gaussian 16:  ES64L-G16RevA.03 25-Dec-2016

 ----------
 # hf/3-21g
 ----------

 -----------------------
 tmpdir/M2_conf_17_7.gjf
 -----------------------
 Symbolic Z-matrix:
 Charge =  0 Multiplicity = 1

                         Standard orientation:
 ---------------------------------------------------------------------
 Center     Atomic      Atomic             Coordinates (Angstroms)
 Number     Number       Type             X           Y           Z
 ---------------------------------------------------------------------
      1          1           0       -1.022245    0.207210   -0.339485
      2          6           0       -0.024433   -0.026438   -0.019492
      3          1           0        0.698116   -0.416318   -0.711250
      4          1           0       -0.008645   -0.660431    0.846520
      5          1           0        0.479370    1.028168    0.321169
 ---------------------------------------------------------------------

 SCF Done:  E(RHF) =  -39.9638700609     A.U. after    9 cycles

 The electronic state is 1-A.
 Alpha  occ. eigenvalues --  -11.15747  -0.93823  -0.57256  -0.54454  -0.49734
 Alpha virt. eigenvalues --    0.28327   0.31837   0.35154   0.36305   0.90782
 Alpha virt. eigenvalues --    0.93937   0.97365   1.25274   1.31773   1.35903
 Alpha virt. eigenvalues --    1.38625   1.94616

 Mulliken charges:
               1
     1  H    0.210053
     2  C   -0.775677
     3  H    0.209874
     4  H    0.206100
     5  H    0.149650
 Sum of Mulliken charges =  -0.00000

 Dipole moment (field-independent basis, Debye):
    X=              0.0161    Y=             -0.0677    Z=              0.0133  Tot=              0.0709
 Quadrupole moment (field-independent basis, Debye-Ang):
   XX=             -8.1818   YY=             -8.6047   ZZ=             -8.6693
   XY=             -0.1872   XZ=             -0.0488   YZ=             -0.1193

 Normal termination of Gaussian 16 at Fri Sep 22 17:14:33 2023.
