 Gaussian 16, Revision A.03,
 Gaussian 16:  ES64L-G16RevA.03 25-Dec-2016

 ----------
 # hf/3-21g
 ----------

 -----------------------
 tmpdir/M2_conf_10_1.gjf
 -----------------------
 Symbolic Z-matrix:
 Charge =  0 Multiplicity = 1

                         Standard orientation:
 ---------------------------------------------------------------------
 Center     Atomic      Atomic             Coordinates (Angstroms)
 Number     Number       Type             X           Y           Z
 ---------------------------------------------------------------------
      1          6           0       -0.031783   -0.000064    0.001264
      2          1           0       -0.306437   -0.028312    1.033060
      3          1           0       -0.343235   -0.878677   -0.530919
      4          1           0       -0.344918    0.905616   -0.482777
      5          1           0        1.185286    0.001757   -0.026947
 ---------------------------------------------------------------------

 SCF Done:  E(RHF) =  -39.9668785060     A.U. after    9 cycles

 The electronic state is 1-A.
 Alpha  occ. eigenvalues --  -11.15661  -0.93839  -0.55758  -0.55627  -0.50272
 Alpha virt. eigenvalues --    0.28337   0.32266   0.35686   0.35802   0.91679
 Alpha virt. eigenvalues --    0.91925   0.97617   1.25094   1.32657   1.36954
 Alpha virt. eigenvalues --    1.37309   1.94719

 Mulliken charges:
               1
     1  C   -0.771441
     2  H    0.207821
     3  H    0.206276
     4  H    0.206221
     5  H    0.151124
 Sum of Mulliken charges =  -0.00000

 Dipole moment (field-independent basis, Debye):
    X=             -0.0722    Y=             -0.0004    Z=              0.0048  Tot=              0.0724
 Quadrupole moment (field-independent basis, Debye-Ang):
   XX=             -8.6518   YY=             -8.3855   ZZ=             -8.3886
   XY=             -0.0005   XZ=              0.0075   YZ=             -0.0002

 Normal termination of Gaussian 16 at Fri Sep 22 17:14:22 2023.
