 Gaussian 16, Revision A.03,
 Gaussian 16:  ES64L-G16RevA.03 25-Dec-2016

 ----------
 # hf/3-21g
 ----------

 -----------------------
 tmpdir/M2_conf_41_5.gjf
 -----------------------
 Symbolic Z-matrix:
 Charge =  0 Multiplicity = 1

                         Standard orientation:
 ---------------------------------------------------------------------
 Center     Atomic      Atomic             Coordinates (Angstroms)
 Number     Number       Type             X           Y           Z
 ---------------------------------------------------------------------
      1          1           0       -0.410662   -0.247654    0.961526
      2          6           0       -0.024847    0.014412   -0.005250
      3          1           0       -0.592593   -0.521606   -0.742107
      4          1           0        0.030683    1.076573   -0.151329
      5          1           0        1.121651   -0.393782   -0.036593
 ---------------------------------------------------------------------

 SCF Done:  E(RHF) =  -39.9665294128     A.U. after    9 cycles

 The electronic state is 1-A.
 Alpha  occ. eigenvalues --  -11.15720  -0.93795  -0.56354  -0.54674  -0.50473
 Alpha virt. eigenvalues --    0.28282   0.32317   0.35319   0.35975   0.91106
 Alpha virt. eigenvalues --    0.92655   0.97908   1.24938   1.32678   1.36059
 Alpha virt. eigenvalues --    1.37732   1.94520

 Mulliken charges:
               1
     1  H    0.205315
     2  C   -0.771203
     3  H    0.206146
     4  H    0.207126
     5  H    0.152616
 Sum of Mulliken charges =  -0.00000

 Dipole moment (field-independent basis, Debye):
    X=             -0.0855    Y=              0.0103    Z=              0.0288  Tot=              0.0908
 Quadrupole moment (field-independent basis, Debye-Ang):
   XX=             -8.5306   YY=             -8.3513   ZZ=             -8.5520
   XY=              0.1513   XZ=              0.0197   YZ=             -0.0049

 Normal termination of Gaussian 16 at Fri Sep 22 17:15:09 2023.
