 Gaussian 16, Revision A.03,
 Gaussian 16:  ES64L-G16RevA.03 25-Dec-2016

 ----------
 # hf/3-21g
 ----------

 ------------------------
 tmpdir/M2_conf_155_1.gjf
 ------------------------
 Symbolic Z-matrix:
 Charge =  0 Multiplicity = 1

                         Standard orientation:
 ---------------------------------------------------------------------
 Center     Atomic      Atomic             Coordinates (Angstroms)
 Number     Number       Type             X           Y           Z
 ---------------------------------------------------------------------
      1          6           0       -0.031968   -0.000061    0.003446
      2          1           0       -0.268249   -0.008868    1.033661
      3          1           0       -0.360757   -0.888658   -0.501008
      4          1           0       -0.362580    0.896225   -0.486425
      5          1           0        1.183394    0.001668   -0.066901
 ---------------------------------------------------------------------

 SCF Done:  E(RHF) =  -39.9665995106     A.U. after    9 cycles

 The electronic state is 1-A.
 Alpha  occ. eigenvalues --  -11.15531  -0.93968  -0.56000  -0.55610  -0.50277
 Alpha virt. eigenvalues --    0.28372   0.32330   0.35686   0.36039   0.91179
 Alpha virt. eigenvalues --    0.91951   0.97588   1.25143   1.33006   1.36978
 Alpha virt. eigenvalues --    1.38140   1.94861

 Mulliken charges:
               1
     1  C   -0.772909
     2  H    0.210592
     3  H    0.205860
     4  H    0.205805
     5  H    0.150651
 Sum of Mulliken charges =  -0.00000

 Dipole moment (field-independent basis, Debye):
    X=             -0.0746    Y=             -0.0003    Z=              0.0139  Tot=              0.0759
 Quadrupole moment (field-independent basis, Debye-Ang):
   XX=             -8.6404   YY=             -8.3745   ZZ=             -8.3869
   XY=             -0.0005   XZ=              0.0178   YZ=             -0.0001

 Normal termination of Gaussian 16 at Fri Sep 22 17:17:59 2023.
