 Gaussian 16, Revision A.03,
 Gaussian 16:  ES64L-G16RevA.03 25-Dec-2016

 ----------
 # hf/3-21g
 ----------

 ------------------------
 tmpdir/M2_conf_220_2.gjf
 ------------------------
 Symbolic Z-matrix:
 Charge =  0 Multiplicity = 1

                         Standard orientation:
 ---------------------------------------------------------------------
 Center     Atomic      Atomic             Coordinates (Angstroms)
 Number     Number       Type             X           Y           Z
 ---------------------------------------------------------------------
      1          6           0        0.031139   -0.003279   -0.000013
      2          1           0        0.403139    1.017364   -0.019707
      3          1           0        0.299534   -0.520623    0.901385
      4          1           0        0.294121   -0.553717   -0.883461
      5          1           0       -1.183631    0.076648    0.001862
 ---------------------------------------------------------------------

 SCF Done:  E(RHF) =  -39.9669473464     A.U. after    9 cycles

 The electronic state is 1-A.
 Alpha  occ. eigenvalues --  -11.15876  -0.93635  -0.55659  -0.55358  -0.50261
 Alpha virt. eigenvalues --    0.28271   0.32140   0.35425   0.35688   0.91888
 Alpha virt. eigenvalues --    0.92483   0.97695   1.25002   1.31885   1.36200
 Alpha virt. eigenvalues --    1.36915   1.94494

 Mulliken charges:
               1
     1  C   -0.768831
     2  H    0.203106
     3  H    0.206941
     4  H    0.206892
     5  H    0.151892
 Sum of Mulliken charges =  -0.00000

 Dipole moment (field-independent basis, Debye):
    X=              0.0665    Y=             -0.0124    Z=              0.0001  Tot=              0.0677
 Quadrupole moment (field-independent basis, Debye-Ang):
   XX=             -8.6674   YY=             -8.3950   ZZ=             -8.4029
   XY=              0.0206   XZ=              0.0011   YZ=              0.0003

 Normal termination of Gaussian 16 at Fri Sep 22 17:19:42 2023.
