 Gaussian 16, Revision A.03,
 Gaussian 16:  ES64L-G16RevA.03 25-Dec-2016

 ----------
 # hf/3-21g
 ----------

 -----------------------
 tmpdir/M2_conf_65_6.gjf
 -----------------------
 Symbolic Z-matrix:
 Charge =  0 Multiplicity = 1

                         Standard orientation:
 ---------------------------------------------------------------------
 Center     Atomic      Atomic             Coordinates (Angstroms)
 Number     Number       Type             X           Y           Z
 ---------------------------------------------------------------------
      1          1           0       -1.340108   -0.009005    1.061109
      2          6           0       -1.202772    0.000047   -0.003431
      3         17           0        0.689124    0.000043   -0.006378
      4          1           0       -1.578960    0.896656   -0.458608
      5          1           0       -1.579399   -0.888662   -0.473493
 ---------------------------------------------------------------------

 SCF Done:  E(RHF) =  -496.686181754     A.U. after   11 cycles

 The electronic state is 1-A.
 Alpha  occ. eigenvalues -- -104.08805 -11.24990 -10.48196  -7.94570  -7.94166
 Alpha  occ. eigenvalues --   -7.94165  -1.11365  -0.93313  -0.63402  -0.63198
 Alpha  occ. eigenvalues --   -0.51201  -0.43842  -0.43573
 Alpha virt. eigenvalues --    0.16398   0.27348   0.31373   0.31424   0.73869
 Alpha virt. eigenvalues --    0.80198   0.81021   0.85610   0.92663   0.94747
 Alpha virt. eigenvalues --    0.99931   1.30880   1.31178   1.32352   1.91508

 Mulliken charges:
               1
     1  H    0.275637
     2  C   -0.703657
     3  Cl  -0.107094
     4  H    0.267566
     5  H    0.267547
 Sum of Mulliken charges =  -0.00000

 Dipole moment (field-independent basis, Debye):
    X=             -2.8560    Y=             -0.0007    Z=              0.0886  Tot=              2.8574
 Quadrupole moment (field-independent basis, Debye-Ang):
   XX=            -18.5594   YY=            -20.1824   ZZ=            -20.2213
   XY=             -0.0015   XZ=              0.2378   YZ=             -0.0002

 Normal termination of Gaussian 16 at Fri Sep 22 17:15:45 2023.
