 Gaussian 16, Revision A.03,
 Gaussian 16:  ES64L-G16RevA.03 25-Dec-2016

 ----------
 # hf/3-21g
 ----------

 ------------------------
 tmpdir/M2_conf_201_2.gjf
 ------------------------
 Symbolic Z-matrix:
 Charge =  0 Multiplicity = 1

                         Standard orientation:
 ---------------------------------------------------------------------
 Center     Atomic      Atomic             Coordinates (Angstroms)
 Number     Number       Type             X           Y           Z
 ---------------------------------------------------------------------
      1          6           0        0.032267    0.000014    0.011930
      2          1           0        0.166249   -0.003362    1.003816
      3          1           0        0.407989   -0.889966   -0.456010
      4          1           0        0.403704    0.895179   -0.449952
      5          1           0       -1.171544   -0.001933   -0.169436
 ---------------------------------------------------------------------

 SCF Done:  E(RHF) =  -39.9619552396     A.U. after    9 cycles

 The electronic state is 1-A.
 Alpha  occ. eigenvalues --  -11.14880  -0.94703  -0.57233  -0.55538  -0.50288
 Alpha virt. eigenvalues --    0.28509   0.32563   0.35684   0.37308   0.88612
 Alpha virt. eigenvalues --    0.92090   0.97551   1.25347   1.34000   1.37088
 Alpha virt. eigenvalues --    1.43632   1.95724

 Mulliken charges:
               1
     1  C   -0.779071
     2  H    0.223730
     3  H    0.203609
     4  H    0.203564
     5  H    0.148168
 Sum of Mulliken charges =  -0.00000

 Dipole moment (field-independent basis, Debye):
    X=              0.0827    Y=             -0.0001    Z=              0.0509  Tot=              0.0971
 Quadrupole moment (field-independent basis, Debye-Ang):
   XX=             -8.5796   YY=             -8.3171   ZZ=             -8.3790
   XY=             -0.0011   XZ=             -0.0415   YZ=             -0.0005

 Normal termination of Gaussian 16 at Fri Sep 22 17:19:14 2023.
