 Gaussian 16, Revision A.03,
 Gaussian 16:  ES64L-G16RevA.03 25-Dec-2016

 ----------
 # hf/3-21g
 ----------

 -----------------------
 tmpdir/M2_conf_27_1.gjf
 -----------------------
 Symbolic Z-matrix:
 Charge =  0 Multiplicity = 1

                         Standard orientation:
 ---------------------------------------------------------------------
 Center     Atomic      Atomic             Coordinates (Angstroms)
 Number     Number       Type             X           Y           Z
 ---------------------------------------------------------------------
      1          6           0       -0.007191   -0.029600    0.000059
      2          1           0       -1.134818    0.328094   -0.001348
      3          1           0        0.253081   -0.564117    0.893776
      4          1           0        0.254318   -0.568063   -0.891163
      5          1           0        0.670568    0.981684   -0.001619
 ---------------------------------------------------------------------

 SCF Done:  E(RHF) =  -39.9609814726     A.U. after    9 cycles

 The electronic state is 1-A.
 Alpha  occ. eigenvalues --  -11.16988  -0.92769  -0.55830  -0.53451  -0.50070
 Alpha virt. eigenvalues --    0.27653   0.31050   0.34034   0.35684   0.91686
 Alpha virt. eigenvalues --    0.95397   0.99456   1.23716   1.26502   1.34034
 Alpha virt. eigenvalues --    1.36660   1.93411

 Mulliken charges:
               1
     1  C   -0.751774
     2  H    0.176365
     3  H    0.209953
     4  H    0.209897
     5  H    0.155559
 Sum of Mulliken charges =  -0.00000

 Dipole moment (field-independent basis, Debye):
    X=              0.0422    Y=             -0.0737    Z=              0.0003  Tot=              0.0849
 Quadrupole moment (field-independent basis, Debye-Ang):
   XX=             -8.5058   YY=             -8.6621   ZZ=             -8.4932
   XY=             -0.1503   XZ=              0.0001   YZ=              0.0005

 Normal termination of Gaussian 16 at Fri Sep 22 17:14:47 2023.
