 Gaussian 16, Revision A.03,
 Gaussian 16:  ES64L-G16RevA.03 25-Dec-2016

 ----------
 # hf/3-21g
 ----------

 ------------------------
 tmpdir/M2_conf_154_0.gjf
 ------------------------
 Symbolic Z-matrix:
 Charge =  0 Multiplicity = 1

                         Standard orientation:
 ---------------------------------------------------------------------
 Center     Atomic      Atomic             Coordinates (Angstroms)
 Number     Number       Type             X           Y           Z
 ---------------------------------------------------------------------
      1          6           0       -0.026817   -0.014881   -0.000056
      2          1           0       -0.699982    0.879865   -0.002599
      3          1           0       -0.122903   -0.603853   -0.892526
      4          1           0       -0.128158   -0.602294    0.892849
      5          1           0        1.111944    0.415570    0.002611
 ---------------------------------------------------------------------

 SCF Done:  E(RHF) =  -39.9659735880     A.U. after    9 cycles

 The electronic state is 1-A.
 Alpha  occ. eigenvalues --  -11.16266  -0.93297  -0.55713  -0.54659  -0.50227
 Alpha virt. eigenvalues --    0.28118   0.31845   0.34823   0.35686   0.91823
 Alpha virt. eigenvalues --    0.93813   0.97981   1.24781   1.29969   1.35000
 Alpha virt. eigenvalues --    1.36825   1.94112

 Mulliken charges:
               1
     1  C   -0.763556
     2  H    0.194272
     3  H    0.208027
     4  H    0.208024
     5  H    0.153233
 Sum of Mulliken charges =   0.00000

 Dipole moment (field-independent basis, Debye):
    X=             -0.0435    Y=             -0.0478    Z=             -0.0001  Tot=              0.0646
 Quadrupole moment (field-independent basis, Debye-Ang):
   XX=             -8.6571   YY=             -8.4436   ZZ=             -8.4345
   XY=             -0.1034   XZ=             -0.0012   YZ=             -0.0002

 Normal termination of Gaussian 16 at Fri Sep 22 17:17:58 2023.
