 Gaussian 16, Revision A.03,
 Gaussian 16:  ES64L-G16RevA.03 25-Dec-2016

 ----------
 # hf/3-21g
 ----------

 ------------------------
 tmpdir/M2_conf_225_5.gjf
 ------------------------
 Symbolic Z-matrix:
 Charge =  0 Multiplicity = 1

                         Standard orientation:
 ---------------------------------------------------------------------
 Center     Atomic      Atomic             Coordinates (Angstroms)
 Number     Number       Type             X           Y           Z
 ---------------------------------------------------------------------
      1          1           0       -0.359786   -0.303019    0.971216
      2          6           0       -0.029487    0.006498   -0.002072
      3          1           0       -0.452282   -0.625300   -0.760156
      4          1           0       -0.186594    1.054318   -0.175279
      5          1           0        1.175586   -0.164986   -0.023348
 ---------------------------------------------------------------------

 SCF Done:  E(RHF) =  -39.9669557012     A.U. after    9 cycles

 The electronic state is 1-A.
 Alpha  occ. eigenvalues --  -11.15722  -0.93780  -0.55947  -0.55221  -0.50365
 Alpha virt. eigenvalues --    0.28305   0.32278   0.35528   0.35816   0.91533
 Alpha virt. eigenvalues --    0.92240   0.97742   1.25011   1.32570   1.36550
 Alpha virt. eigenvalues --    1.37267   1.94610

 Mulliken charges:
               1
     1  H    0.205916
     2  C   -0.770654
     3  H    0.206175
     4  H    0.206685
     5  H    0.151878
 Sum of Mulliken charges =  -0.00000

 Dipole moment (field-independent basis, Debye):
    X=             -0.0769    Y=              0.0029    Z=              0.0128  Tot=              0.0780
 Quadrupole moment (field-independent basis, Debye-Ang):
   XX=             -8.6217   YY=             -8.3532   ZZ=             -8.4605
   XY=              0.0669   XZ=              0.0121   YZ=             -0.0009

 Normal termination of Gaussian 16 at Fri Sep 22 17:19:50 2023.
