 Gaussian 16, Revision A.03,
 Gaussian 16:  ES64L-G16RevA.03 25-Dec-2016

 ----------
 # hf/3-21g
 ----------

 ------------------------
 tmpdir/M2_conf_286_9.gjf
 ------------------------
 Symbolic Z-matrix:
 Charge =  0 Multiplicity = 1

                         Standard orientation:
 ---------------------------------------------------------------------
 Center     Atomic      Atomic             Coordinates (Angstroms)
 Number     Number       Type             X           Y           Z
 ---------------------------------------------------------------------
      1          1           0        1.335850   -0.016705    1.061654
      2          6           0        1.202794    0.000063   -0.003537
      3         17           0       -0.689104    0.000097   -0.006538
      4          1           0        1.581208   -0.885090   -0.478409
      5          1           0        1.580954    0.899778   -0.450876
 ---------------------------------------------------------------------

 SCF Done:  E(RHF) =  -496.686003357     A.U. after   11 cycles

 The electronic state is 1-A.
 Alpha  occ. eigenvalues -- -104.08807 -11.24989 -10.48198  -7.94572  -7.94168
 Alpha  occ. eigenvalues --   -7.94167  -1.11370  -0.93312  -0.63407  -0.63198
 Alpha  occ. eigenvalues --   -0.51195  -0.43846  -0.43567
 Alpha virt. eigenvalues --    0.16387   0.27348   0.31372   0.31428   0.73871
 Alpha virt. eigenvalues --    0.80184   0.81027   0.85613   0.92654   0.94766
 Alpha virt. eigenvalues --    0.99950   1.30872   1.31184   1.32340   1.91480

 Mulliken charges:
               1
     1  H    0.275739
     2  C   -0.703696
     3  Cl  -0.107094
     4  H    0.267538
     5  H    0.267513
 Sum of Mulliken charges =  -0.00000

 Dipole moment (field-independent basis, Debye):
    X=              2.8554    Y=             -0.0015    Z=              0.0908  Tot=              2.8568
 Quadrupole moment (field-independent basis, Debye-Ang):
   XX=            -18.5588   YY=            -20.1831   ZZ=            -20.2229
   XY=              0.0034   XZ=             -0.2442   YZ=             -0.0001

 Normal termination of Gaussian 16 at Fri Sep 22 17:21:28 2023.
