 Gaussian 16, Revision A.03,
 Gaussian 16:  ES64L-G16RevA.03 25-Dec-2016

 ----------
 # hf/3-21g
 ----------

 ------------------------
 tmpdir/M2_conf_276_7.gjf
 ------------------------
 Symbolic Z-matrix:
 Charge =  0 Multiplicity = 1

                         Standard orientation:
 ---------------------------------------------------------------------
 Center     Atomic      Atomic             Coordinates (Angstroms)
 Number     Number       Type             X           Y           Z
 ---------------------------------------------------------------------
      1          1           0        0.342634   -0.320749    0.973628
      2          6           0        0.030579    0.003617   -0.001064
      3          1           0        0.400774   -0.650406   -0.767759
      4          1           0        0.256385    1.037307   -0.181812
      5          1           0       -1.183265   -0.087852   -0.017670
 ---------------------------------------------------------------------

 SCF Done:  E(RHF) =  -39.9669908067     A.U. after    9 cycles

 The electronic state is 1-A.
 Alpha  occ. eigenvalues --  -11.15724  -0.93778  -0.55812  -0.55402  -0.50325
 Alpha virt. eigenvalues --    0.28312   0.32260   0.35596   0.35762   0.91704
 Alpha virt. eigenvalues --    0.92089   0.97694   1.25036   1.32524   1.36712
 Alpha virt. eigenvalues --    1.37127   1.94631

 Mulliken charges:
               1
     1  H    0.206094
     2  C   -0.770613
     3  H    0.206256
     4  H    0.206616
     5  H    0.151647
 Sum of Mulliken charges =   0.00000

 Dipole moment (field-independent basis, Debye):
    X=              0.0742    Y=              0.0013    Z=              0.0074  Tot=              0.0745
 Quadrupole moment (field-independent basis, Debye-Ang):
   XX=             -8.6408   YY=             -8.3661   ZZ=             -8.4294
   XY=             -0.0358   XZ=             -0.0089   YZ=             -0.0002

 Normal termination of Gaussian 16 at Fri Sep 22 17:21:08 2023.
