 Gaussian 16, Revision A.03,
 Gaussian 16:  ES64L-G16RevA.03 25-Dec-2016

 ----------
 # hf/3-21g
 ----------

 ------------------------
 tmpdir/M2_conf_143_6.gjf
 ------------------------
 Symbolic Z-matrix:
 Charge =  0 Multiplicity = 1

                         Standard orientation:
 ---------------------------------------------------------------------
 Center     Atomic      Atomic             Coordinates (Angstroms)
 Number     Number       Type             X           Y           Z
 ---------------------------------------------------------------------
      1          1           0       -1.220432   -0.003561    1.066917
      2          6           0       -1.203588    0.000037   -0.006345
      3         17           0        0.688303    0.000026   -0.010667
      4          1           0       -1.629395    0.894138   -0.420933
      5          1           0       -1.629795   -0.891233   -0.426575
 ---------------------------------------------------------------------

 SCF Done:  E(RHF) =  -496.679362707     A.U. after   11 cycles

 The electronic state is 1-A.
 Alpha  occ. eigenvalues -- -104.08878 -11.24958 -10.48275  -7.94647  -7.94242
 Alpha  occ. eigenvalues --   -7.94239  -1.11552  -0.93265  -0.63639  -0.63171
 Alpha  occ. eigenvalues --   -0.50987  -0.43967  -0.43368
 Alpha virt. eigenvalues --    0.16007   0.27406   0.31395   0.31475   0.73949
 Alpha virt. eigenvalues --    0.79853   0.81045   0.85623   0.92431   0.95478
 Alpha virt. eigenvalues --    1.00528   1.30360   1.31163   1.32368   1.90493

 Mulliken charges:
               1
     1  H    0.279695
     2  C   -0.705076
     3  Cl  -0.107675
     4  H    0.266536
     5  H    0.266520
 Sum of Mulliken charges =  -0.00000

 Dipole moment (field-independent basis, Debye):
    X=             -2.8334    Y=             -0.0005    Z=              0.1559  Tot=              2.8377
 Quadrupole moment (field-independent basis, Debye-Ang):
   XX=            -18.5418   YY=            -20.1824   ZZ=            -20.3052
   XY=             -0.0009   XZ=              0.3975   YZ=             -0.0001

 Normal termination of Gaussian 16 at Fri Sep 22 17:17:41 2023.
