 Gaussian 16, Revision A.03,
 Gaussian 16:  ES64L-G16RevA.03 25-Dec-2016

 ----------
 # hf/3-21g
 ----------

 ------------------------
 tmpdir/M2_conf_183_6.gjf
 ------------------------
 Symbolic Z-matrix:
 Charge =  0 Multiplicity = 1

                         Standard orientation:
 ---------------------------------------------------------------------
 Center     Atomic      Atomic             Coordinates (Angstroms)
 Number     Number       Type             X           Y           Z
 ---------------------------------------------------------------------
      1          1           0       -0.946654   -0.001154    1.025392
      2          6           0       -1.207086    0.000029   -0.015934
      3         17           0        0.684811    0.000013   -0.018293
      4          1           0       -1.726162    0.893066   -0.308606
      5          1           0       -1.726453   -0.892313   -0.310200
 ---------------------------------------------------------------------

 SCF Done:  E(RHF) =  -496.646502909     A.U. after   11 cycles

 The electronic state is 1-A.
 Alpha  occ. eigenvalues -- -104.09290 -11.24696 -10.48744  -7.95108  -7.94696
 Alpha  occ. eigenvalues --   -7.94681  -1.12589  -0.93026  -0.64551  -0.63070
 Alpha  occ. eigenvalues --   -0.50455  -0.44496  -0.42343
 Alpha virt. eigenvalues --    0.14497   0.27895   0.31548   0.31663   0.74163
 Alpha virt. eigenvalues --    0.79014   0.80660   0.84879   0.93633   0.96938
 Alpha virt. eigenvalues --    1.02040   1.28502   1.31244   1.31855   1.86489

 Mulliken charges:
               1
     1  H    0.288181
     2  C   -0.708978
     3  Cl  -0.111988
     4  H    0.266397
     5  H    0.266387
 Sum of Mulliken charges =  -0.00000

 Dipole moment (field-independent basis, Debye):
    X=             -2.7047    Y=             -0.0003    Z=              0.3194  Tot=              2.7235
 Quadrupole moment (field-independent basis, Debye-Ang):
   XX=            -18.5137   YY=            -20.1699   ZZ=            -20.6619
   XY=             -0.0005   XZ=              0.6718   YZ=             -0.0001

 Normal termination of Gaussian 16 at Fri Sep 22 17:18:47 2023.
