 Gaussian 16, Revision A.03,
 Gaussian 16:  ES64L-G16RevA.03 25-Dec-2016

 ----------
 # hf/3-21g
 ----------

 ------------------------
 tmpdir/M2_conf_246_6.gjf
 ------------------------
 Symbolic Z-matrix:
 Charge =  0 Multiplicity = 1

                         Standard orientation:
 ---------------------------------------------------------------------
 Center     Atomic      Atomic             Coordinates (Angstroms)
 Number     Number       Type             X           Y           Z
 ---------------------------------------------------------------------
      1          1           0       -0.989994   -0.001325    1.037316
      2          6           0       -1.206375    0.000030   -0.014047
      3         17           0        0.685519    0.000014   -0.017343
      4          1           0       -1.712632    0.893140   -0.328165
      5          1           0       -1.712943   -0.892239   -0.330044
 ---------------------------------------------------------------------

 SCF Done:  E(RHF) =  -496.653632724     A.U. after   11 cycles

 The electronic state is 1-A.
 Alpha  occ. eigenvalues -- -104.09194 -11.24767 -10.48632  -7.94998  -7.94588
 Alpha  occ. eigenvalues --   -7.94575  -1.12347  -0.93080  -0.64372  -0.63096
 Alpha  occ. eigenvalues --   -0.50514  -0.44379  -0.42582
 Alpha virt. eigenvalues --    0.14786   0.27770   0.31510   0.31623   0.74137
 Alpha virt. eigenvalues --    0.79158   0.80740   0.85023   0.93379   0.96727
 Alpha virt. eigenvalues --    1.01817   1.28888   1.31215   1.31977   1.87234

 Mulliken charges:
               1
     1  H    0.286887
     2  C   -0.708174
     3  Cl  -0.111141
     4  H    0.266219
     5  H    0.266208
 Sum of Mulliken charges =  -0.00000

 Dipole moment (field-independent basis, Debye):
    X=             -2.7355    Y=             -0.0003    Z=              0.2922  Tot=              2.7511
 Quadrupole moment (field-independent basis, Debye-Ang):
   XX=            -18.5132   YY=            -20.1737   ZZ=            -20.5906
   XY=             -0.0005   XZ=              0.6400   YZ=             -0.0001

 Normal termination of Gaussian 16 at Fri Sep 22 17:20:22 2023.
