 Gaussian 16, Revision A.03,
 Gaussian 16:  ES64L-G16RevA.03 25-Dec-2016

 ----------
 # hf/3-21g
 ----------

 -----------------------
 tmpdir/M2_conf_12_2.gjf
 -----------------------
 Symbolic Z-matrix:
 Charge =  0 Multiplicity = 1

                         Standard orientation:
 ---------------------------------------------------------------------
 Center     Atomic      Atomic             Coordinates (Angstroms)
 Number     Number       Type             X           Y           Z
 ---------------------------------------------------------------------
      1          6           0        0.006801   -0.029698   -0.000016
      2          1           0        1.138936    0.321304   -0.002390
      3          1           0       -0.255119   -0.564834    0.892860
      4          1           0       -0.259761   -0.563930   -0.892295
      5          1           0       -0.664864    0.985645    0.001918
 ---------------------------------------------------------------------

 SCF Done:  E(RHF) =  -39.9607368442     A.U. after    9 cycles

 The electronic state is 1-A.
 Alpha  occ. eigenvalues --  -11.17014  -0.92752  -0.55838  -0.53405  -0.50063
 Alpha virt. eigenvalues --    0.27629   0.31020   0.34009   0.35686   0.91686
 Alpha virt. eigenvalues --    0.95419   0.99539   1.23641   1.26422   1.34005
 Alpha virt. eigenvalues --    1.36656   1.93384

 Mulliken charges:
               1
     1  C   -0.751301
     2  H    0.175688
     3  H    0.210015
     4  H    0.209964
     5  H    0.155635
 Sum of Mulliken charges =   0.00000

 Dipole moment (field-independent basis, Debye):
    X=             -0.0447    Y=             -0.0739    Z=              0.0002  Tot=              0.0863
 Quadrupole moment (field-independent basis, Debye-Ang):
   XX=             -8.5038   YY=             -8.6671   ZZ=             -8.4946
   XY=              0.1490   XZ=              0.0010   YZ=             -0.0007

 Normal termination of Gaussian 16 at Fri Sep 22 17:14:25 2023.
