 Gaussian 16, Revision A.03,
 Gaussian 16:  ES64L-G16RevA.03 25-Dec-2016

 ----------
 # hf/3-21g
 ----------

 -----------------------
 tmpdir/M2_conf_54_8.gjf
 -----------------------
 Symbolic Z-matrix:
 Charge =  0 Multiplicity = 1

                         Standard orientation:
 ---------------------------------------------------------------------
 Center     Atomic      Atomic             Coordinates (Angstroms)
 Number     Number       Type             X           Y           Z
 ---------------------------------------------------------------------
      1          1           0       -1.589699   -0.033032    1.002658
      2          6           0       -1.202486   -0.000070    0.001860
      3         17           0        0.689410   -0.000114    0.003549
      4          1           0       -1.457617   -0.874304   -0.566296
      5          1           0       -1.457734    0.909689   -0.507852
 ---------------------------------------------------------------------

 SCF Done:  E(RHF) =  -496.688525017     A.U. after   11 cycles

 The electronic state is 1-A.
 Alpha  occ. eigenvalues -- -104.08780 -11.24999 -10.48170  -7.94544  -7.94140
 Alpha  occ. eigenvalues --   -7.94140  -1.11303  -0.93330  -0.63280  -0.63244
 Alpha  occ. eigenvalues --   -0.51283  -0.43761  -0.43680
 Alpha virt. eigenvalues --    0.16539   0.27331   0.31364   0.31407   0.73837
 Alpha virt. eigenvalues --    0.80388   0.80957   0.85550   0.93039   0.94229
 Alpha virt. eigenvalues --    0.99701   1.31043   1.31264   1.32292   1.91874

 Mulliken charges:
               1
     1  H    0.266942
     2  C   -0.703092
     3  Cl  -0.106951
     4  H    0.271575
     5  H    0.271527
 Sum of Mulliken charges =  -0.00000

 Dipole moment (field-independent basis, Debye):
    X=             -2.8635    Y=              0.0014    Z=             -0.0459  Tot=              2.8639
 Quadrupole moment (field-independent basis, Debye-Ang):
   XX=            -18.5668   YY=            -20.1791   ZZ=            -20.1944
   XY=              0.0044   XZ=             -0.1327   YZ=              0.0002

 Normal termination of Gaussian 16 at Fri Sep 22 17:15:28 2023.
