 Gaussian 16, Revision A.03,
 Gaussian 16:  ES64L-G16RevA.03 25-Dec-2016

 ----------
 # hf/3-21g
 ----------

 ------------------------
 tmpdir/M2_conf_141_2.gjf
 ------------------------
 Symbolic Z-matrix:
 Charge =  0 Multiplicity = 1

                         Standard orientation:
 ---------------------------------------------------------------------
 Center     Atomic      Atomic             Coordinates (Angstroms)
 Number     Number       Type             X           Y           Z
 ---------------------------------------------------------------------
      1          6           0        0.030111   -0.007414   -0.000014
      2          1           0        0.502093    0.986246   -0.009678
      3          1           0        0.247412   -0.556307    0.896477
      4          1           0        0.241634   -0.571576   -0.888609
      5          1           0       -1.171803    0.186122    0.001894
 ---------------------------------------------------------------------

 SCF Done:  E(RHF) =  -39.9667079769     A.U. after    9 cycles

 The electronic state is 1-A.
 Alpha  occ. eigenvalues --  -11.16035  -0.93492  -0.55681  -0.55069  -0.50250
 Alpha virt. eigenvalues --    0.28214   0.32031   0.35166   0.35689   0.91858
 Alpha virt. eigenvalues --    0.93053   0.97785   1.24923   1.31162   1.35606
 Alpha virt. eigenvalues --    1.36882   1.94336

 Mulliken charges:
               1
     1  C   -0.766765
     2  H    0.199537
     3  H    0.207415
     4  H    0.207366
     5  H    0.152447
 Sum of Mulliken charges =  -0.00000

 Dipole moment (field-independent basis, Debye):
    X=              0.0599    Y=             -0.0264    Z=              0.0001  Tot=              0.0655
 Quadrupole moment (field-independent basis, Debye-Ang):
   XX=             -8.6727   YY=             -8.4054   ZZ=             -8.4160
   XY=              0.0490   XZ=              0.0012   YZ=              0.0002

 Normal termination of Gaussian 16 at Fri Sep 22 17:17:38 2023.
