 Gaussian 16, Revision A.03,
 Gaussian 16:  ES64L-G16RevA.03 25-Dec-2016

 ----------
 # hf/3-21g
 ----------

 ------------------------
 tmpdir/M2_conf_203_3.gjf
 ------------------------
 Symbolic Z-matrix:
 Charge =  0 Multiplicity = 1

                         Standard orientation:
 ---------------------------------------------------------------------
 Center     Atomic      Atomic             Coordinates (Angstroms)
 Number     Number       Type             X           Y           Z
 ---------------------------------------------------------------------
      1          6           0       -1.936691    0.000010    0.000009
      2         17           0        1.078309   -0.000009   -0.000002
      3          1           0       -2.237059   -0.278193    0.992266
      4          1           0       -2.236746    0.998719   -0.255262
      5          1           0       -2.237298   -0.720435   -0.737023
 ---------------------------------------------------------------------

 SCF Done:  E(RHF) =  -496.564470525     A.U. after   10 cycles

 The electronic state is 1-A.
 Alpha  occ. eigenvalues -- -104.03258 -11.35081 -10.41913  -7.88229  -7.88021
 Alpha  occ. eigenvalues --   -7.88021  -1.03512  -0.96402  -0.68524  -0.68519
 Alpha  occ. eigenvalues --   -0.38275  -0.38275  -0.36318
 Alpha virt. eigenvalues --   -0.05270   0.22438   0.27223   0.27226   0.72446
 Alpha virt. eigenvalues --    0.79218   0.79227   0.85814   0.90371   0.90376
 Alpha virt. eigenvalues --    0.98095   1.18999   1.24424   1.24434   1.69947

 Mulliken charges:
               1
     1  C   -0.360841
     2  Cl  -0.514907
     3  H    0.291922
     4  H    0.291928
     5  H    0.291897
 Sum of Mulliken charges =  -0.00000

 Dipole moment (field-independent basis, Debye):
    X=             -7.8319    Y=              0.0001    Z=              0.0001  Tot=              7.8319
 Quadrupole moment (field-independent basis, Debye-Ang):
   XX=            -10.6029   YY=            -20.4128   ZZ=            -20.4144
   XY=              0.0003   XZ=             -0.0000   YZ=             -0.0001

 Normal termination of Gaussian 16 at Fri Sep 22 17:19:17 2023.
