 Gaussian 16, Revision A.03,
 Gaussian 16:  ES64L-G16RevA.03 25-Dec-2016

 ----------
 # hf/3-21g
 ----------

 ------------------------
 tmpdir/M2_conf_193_0.gjf
 ------------------------
 Symbolic Z-matrix:
 Charge =  0 Multiplicity = 1

                         Standard orientation:
 ---------------------------------------------------------------------
 Center     Atomic      Atomic             Coordinates (Angstroms)
 Number     Number       Type             X           Y           Z
 ---------------------------------------------------------------------
      1          6           0        0.021800   -0.021313    0.000056
      2          1           0        0.882525    0.719914    0.001941
      3          1           0       -0.009583   -0.616752    0.892856
      4          1           0       -0.004735   -0.617305   -0.892521
      5          1           0       -0.999008    0.642024   -0.002612
 ---------------------------------------------------------------------

 SCF Done:  E(RHF) =  -39.9650487144     A.U. after    9 cycles

 The electronic state is 1-A.
 Alpha  occ. eigenvalues --  -11.16453  -0.93149  -0.55742  -0.54331  -0.50202
 Alpha virt. eigenvalues --    0.28025   0.31668   0.34575   0.35686   0.91789
 Alpha virt. eigenvalues --    0.94359   0.98224   1.24628   1.28948   1.34658
 Alpha virt. eigenvalues --    1.36783   1.93933

 Mulliken charges:
               1
     1  C   -0.760752
     2  H    0.189812
     3  H    0.208543
     4  H    0.208541
     5  H    0.153857
 Sum of Mulliken charges =  -0.00000

 Dipole moment (field-independent basis, Debye):
    X=              0.0220    Y=             -0.0627    Z=              0.0001  Tot=              0.0665
 Quadrupole moment (field-independent basis, Debye-Ang):
   XX=             -8.6132   YY=             -8.5054   ZZ=             -8.4497
   XY=              0.1442   XZ=             -0.0012   YZ=              0.0004

 Normal termination of Gaussian 16 at Fri Sep 22 17:19:02 2023.
