 Gaussian 16, Revision A.03,
 Gaussian 16:  ES64L-G16RevA.03 25-Dec-2016

 ----------
 # hf/3-21g
 ----------

 ------------------------
 tmpdir/M2_conf_156_9.gjf
 ------------------------
 Symbolic Z-matrix:
 Charge =  0 Multiplicity = 1

                         Standard orientation:
 ---------------------------------------------------------------------
 Center     Atomic      Atomic             Coordinates (Angstroms)
 Number     Number       Type             X           Y           Z
 ---------------------------------------------------------------------
      1          1           0        1.389457   -0.035151    1.054257
      2          6           0        1.202560    0.000087   -0.002363
      3         17           0       -0.689340    0.000143   -0.004493
      4          1           0        1.557121   -0.875952   -0.511320
      5          1           0        1.556837    0.908154   -0.452370
 ---------------------------------------------------------------------

 SCF Done:  E(RHF) =  -496.687885128     A.U. after   11 cycles

 The electronic state is 1-A.
 Alpha  occ. eigenvalues -- -104.08788 -11.24996 -10.48178  -7.94552  -7.94148
 Alpha  occ. eigenvalues --   -7.94148  -1.11320  -0.93326  -0.63333  -0.63211
 Alpha  occ. eigenvalues --   -0.51262  -0.43802  -0.43633
 Alpha virt. eigenvalues --    0.16503   0.27338   0.31368   0.31409   0.73846
 Alpha virt. eigenvalues --    0.80341   0.80957   0.85564   0.92919   0.94422
 Alpha virt. eigenvalues --    0.99740   1.31053   1.31196   1.32289   1.91767

 Mulliken charges:
               1
     1  H    0.273862
     2  C   -0.703167
     3  Cl  -0.107030
     4  H    0.268179
     5  H    0.268156
 Sum of Mulliken charges =  -0.00000

 Dipole moment (field-independent basis, Debye):
    X=              2.8613    Y=             -0.0021    Z=              0.0612  Tot=              2.8620
 Quadrupole moment (field-independent basis, Debye-Ang):
   XX=            -18.5646   YY=            -20.1825   ZZ=            -20.1994
   XY=              0.0051   XZ=             -0.1679   YZ=             -0.0002

 Normal termination of Gaussian 16 at Fri Sep 22 17:18:01 2023.
