 Gaussian 16, Revision A.03,
 Gaussian 16:  ES64L-G16RevA.03 25-Dec-2016

 ----------
 # hf/3-21g
 ----------

 ------------------------
 tmpdir/M2_conf_151_3.gjf
 ------------------------
 Symbolic Z-matrix:
 Charge =  0 Multiplicity = 1

                         Standard orientation:
 ---------------------------------------------------------------------
 Center     Atomic      Atomic             Coordinates (Angstroms)
 Number     Number       Type             X           Y           Z
 ---------------------------------------------------------------------
      1          6           0       -1.509207    0.000014    0.000010
      2         17           0        0.851993   -0.000011   -0.000003
      3          1           0       -1.809575   -0.278188    0.992268
      4          1           0       -1.809257    0.998725   -0.255260
      5          1           0       -1.809818   -0.720428   -0.737022
 ---------------------------------------------------------------------

 SCF Done:  E(RHF) =  -496.647466324     A.U. after   10 cycles

 The electronic state is 1-A.
 Alpha  occ. eigenvalues -- -104.07432 -11.29803 -10.46120  -7.92442  -7.92180
 Alpha  occ. eigenvalues --   -7.92180  -1.03637  -0.97158  -0.64490  -0.64485
 Alpha  occ. eigenvalues --   -0.43791  -0.41969  -0.41969
 Alpha virt. eigenvalues --    0.04100   0.25416   0.30182   0.30186   0.73273
 Alpha virt. eigenvalues --    0.78837   0.78842   0.88748   0.93331   0.93340
 Alpha virt. eigenvalues --    1.00928   1.27281   1.28481   1.28490   1.80639

 Mulliken charges:
               1
     1  C   -0.474419
     2  Cl  -0.341641
     3  H    0.272035
     4  H    0.272030
     5  H    0.271996
 Sum of Mulliken charges =  -0.00000

 Dipole moment (field-independent basis, Debye):
    X=             -4.7387    Y=              0.0001    Z=              0.0001  Tot=              4.7387
 Quadrupole moment (field-independent basis, Debye-Ang):
   XX=            -15.3590   YY=            -20.4067   ZZ=            -20.4081
   XY=              0.0005   XZ=             -0.0001   YZ=             -0.0001

 Normal termination of Gaussian 16 at Fri Sep 22 17:17:53 2023.
