 Gaussian 16, Revision A.03,
 Gaussian 16:  ES64L-G16RevA.03 25-Dec-2016

 ----------
 # hf/3-21g
 ----------

 -----------------------
 tmpdir/M2_conf_51_9.gjf
 -----------------------
 Symbolic Z-matrix:
 Charge =  0 Multiplicity = 1

                         Standard orientation:
 ---------------------------------------------------------------------
 Center     Atomic      Atomic             Coordinates (Angstroms)
 Number     Number       Type             X           Y           Z
 ---------------------------------------------------------------------
      1          1           0        1.533395   -0.401335    0.939817
      2          6           0        1.202373   -0.000236    0.000582
      3         17           0       -0.689530   -0.000498    0.001143
      4          1           0        1.487369   -0.615314   -0.831675
      5          1           0        1.487005    1.026534   -0.131071
 ---------------------------------------------------------------------

 SCF Done:  E(RHF) =  -496.689365695     A.U. after   11 cycles

 The electronic state is 1-A.
 Alpha  occ. eigenvalues -- -104.08773 -11.25001 -10.48163  -7.94537  -7.94134
 Alpha  occ. eigenvalues --   -7.94134  -1.11283  -0.93336  -0.63257  -0.63236
 Alpha  occ. eigenvalues --   -0.51319  -0.43743  -0.43710
 Alpha virt. eigenvalues --    0.16598   0.27332   0.31373   0.31385   0.73826
 Alpha virt. eigenvalues --    0.80584   0.80777   0.85504   0.93446   0.93874
 Alpha virt. eigenvalues --    0.99546   1.31193   1.31242   1.32209   1.91991

 Mulliken charges:
               1
     1  H    0.268814
     2  C   -0.702663
     3  Cl  -0.107043
     4  H    0.270457
     5  H    0.270435
 Sum of Mulliken charges =   0.00000

 Dipole moment (field-independent basis, Debye):
    X=              2.8660    Y=              0.0064    Z=             -0.0150  Tot=              2.8660
 Quadrupole moment (field-independent basis, Debye-Ang):
   XX=            -18.5696   YY=            -20.1799   ZZ=            -20.1827
   XY=             -0.0189   XZ=              0.0426   YZ=              0.0004

 Normal termination of Gaussian 16 at Fri Sep 22 17:15:23 2023.
