 Gaussian 16, Revision A.03,
 Gaussian 16:  ES64L-G16RevA.03 25-Dec-2016

 ----------
 # hf/3-21g
 ----------

 -----------------------
 tmpdir/M2_conf_10_7.gjf
 -----------------------
 Symbolic Z-matrix:
 Charge =  0 Multiplicity = 1

                         Standard orientation:
 ---------------------------------------------------------------------
 Center     Atomic      Atomic             Coordinates (Angstroms)
 Number     Number       Type             X           Y           Z
 ---------------------------------------------------------------------
      1          1           0        0.438805   -0.211926    0.954367
      2          6           0        0.021113    0.018411   -0.007452
      3          1           0        0.662016   -0.449060   -0.730864
      4          1           0       -0.156539    1.069018   -0.137212
      5          1           0       -1.070961   -0.518497   -0.041578
 ---------------------------------------------------------------------

 SCF Done:  E(RHF) =  -39.9659962173     A.U. after    9 cycles

 The electronic state is 1-A.
 Alpha  occ. eigenvalues --  -11.15720  -0.93810  -0.56621  -0.54311  -0.50537
 Alpha virt. eigenvalues --    0.28263   0.32333   0.35179   0.36072   0.90874
 Alpha virt. eigenvalues --    0.92911   0.98037   1.24890   1.32724   1.35746
 Alpha virt. eigenvalues --    1.38062   1.94437

 Mulliken charges:
               1
     1  H    0.204919
     2  C   -0.771868
     3  H    0.206277
     4  H    0.207533
     5  H    0.153139
 Sum of Mulliken charges =   0.00000

 Dipole moment (field-independent basis, Debye):
    X=              0.0916    Y=              0.0155    Z=              0.0394  Tot=              0.1009
 Quadrupole moment (field-independent basis, Debye-Ang):
   XX=             -8.4535   YY=             -8.3685   ZZ=             -8.6117
   XY=             -0.1893   XZ=             -0.0228   YZ=             -0.0079

 Normal termination of Gaussian 16 at Fri Sep 22 17:14:22 2023.
