 Gaussian 16, Revision A.03,
 Gaussian 16:  ES64L-G16RevA.03 25-Dec-2016

 ----------
 # hf/3-21g
 ----------

 -----------------------
 tmpdir/M2_conf_27_6.gjf
 -----------------------
 Symbolic Z-matrix:
 Charge =  0 Multiplicity = 1

                         Standard orientation:
 ---------------------------------------------------------------------
 Center     Atomic      Atomic             Coordinates (Angstroms)
 Number     Number       Type             X           Y           Z
 ---------------------------------------------------------------------
      1          1           0       -1.331154   -0.008220    1.062036
      2          6           0       -1.202821    0.000046   -0.003633
      3         17           0        0.689078    0.000041   -0.006713
      4          1           0       -1.582906    0.896290   -0.456284
      5          1           0       -1.583342   -0.889039   -0.469831
 ---------------------------------------------------------------------

 SCF Done:  E(RHF) =  -496.685805113     A.U. after   11 cycles

 The electronic state is 1-A.
 Alpha  occ. eigenvalues -- -104.08809 -11.24988 -10.48200  -7.94574  -7.94169
 Alpha  occ. eigenvalues --   -7.94168  -1.11375  -0.93311  -0.63416  -0.63196
 Alpha  occ. eigenvalues --   -0.51188  -0.43850  -0.43561
 Alpha virt. eigenvalues --    0.16375   0.27350   0.31374   0.31427   0.73874
 Alpha virt. eigenvalues --    0.80172   0.81030   0.85617   0.92626   0.94803
 Alpha virt. eigenvalues --    0.99971   1.30846   1.31176   1.32359   1.91450

 Mulliken charges:
               1
     1  H    0.275949
     2  C   -0.703752
     3  Cl  -0.107115
     4  H    0.267469
     5  H    0.267450
 Sum of Mulliken charges =  -0.00000

 Dipole moment (field-independent basis, Debye):
    X=             -2.8548    Y=             -0.0007    Z=              0.0935  Tot=              2.8563
 Quadrupole moment (field-independent basis, Debye-Ang):
   XX=            -18.5583   YY=            -20.1824   ZZ=            -20.2260
   XY=             -0.0014   XZ=              0.2503   YZ=             -0.0002

 Normal termination of Gaussian 16 at Fri Sep 22 17:14:48 2023.
