 Gaussian 16, Revision A.03,
 Gaussian 16:  ES64L-G16RevA.03 25-Dec-2016

 ----------
 # hf/3-21g
 ----------

 ----------------------
 tmpdir/M2_conf_5_9.gjf
 ----------------------
 Symbolic Z-matrix:
 Charge =  0 Multiplicity = 1

                         Standard orientation:
 ---------------------------------------------------------------------
 Center     Atomic      Atomic             Coordinates (Angstroms)
 Number     Number       Type             X           Y           Z
 ---------------------------------------------------------------------
      1          1           0        1.326332   -0.015034    1.062615
      2          6           0        1.202844    0.000060   -0.003752
      3         17           0       -0.689054    0.000091   -0.006894
      4          1           0        1.585381   -0.885893   -0.473805
      5          1           0        1.585132    0.899016   -0.449105
 ---------------------------------------------------------------------

 SCF Done:  E(RHF) =  -496.685591724     A.U. after   11 cycles

 The electronic state is 1-A.
 Alpha  occ. eigenvalues -- -104.08811 -11.24987 -10.48203  -7.94576  -7.94172
 Alpha  occ. eigenvalues --   -7.94171  -1.11381  -0.93310  -0.63423  -0.63195
 Alpha  occ. eigenvalues --   -0.51180  -0.43855  -0.43554
 Alpha virt. eigenvalues --    0.16362   0.27351   0.31373   0.31432   0.73876
 Alpha virt. eigenvalues --    0.80156   0.81035   0.85620   0.92616   0.94826
 Alpha virt. eigenvalues --    0.99992   1.30836   1.31182   1.32346   1.91418

 Mulliken charges:
               1
     1  H    0.276069
     2  C   -0.703800
     3  Cl  -0.107117
     4  H    0.267436
     5  H    0.267412
 Sum of Mulliken charges =  -0.00000

 Dipole moment (field-independent basis, Debye):
    X=              2.8540    Y=             -0.0014    Z=              0.0961  Tot=              2.8557
 Quadrupole moment (field-independent basis, Debye-Ang):
   XX=            -18.5576   YY=            -20.1832   ZZ=            -20.2281
   XY=              0.0032   XZ=             -0.2574   YZ=             -0.0001

 Normal termination of Gaussian 16 at Fri Sep 22 17:14:15 2023.
