 Gaussian 16, Revision A.03,
 Gaussian 16:  ES64L-G16RevA.03 25-Dec-2016

 ----------
 # hf/3-21g
 ----------

 -----------------------
 tmpdir/M2_conf_93_9.gjf
 -----------------------
 Symbolic Z-matrix:
 Charge =  0 Multiplicity = 1

                         Standard orientation:
 ---------------------------------------------------------------------
 Center     Atomic      Atomic             Coordinates (Angstroms)
 Number     Number       Type             X           Y           Z
 ---------------------------------------------------------------------
      1          1           0        1.571588   -0.080463    1.006364
      2          6           0        1.202433   -0.000102    0.001434
      3         17           0       -0.689465   -0.000234    0.002798
      4          1           0        1.467549   -0.847197   -0.602171
      5          1           0        1.467165    0.932242   -0.460364
 ---------------------------------------------------------------------

 SCF Done:  E(RHF) =  -496.688885563     A.U. after   11 cycles

 The electronic state is 1-A.
 Alpha  occ. eigenvalues -- -104.08778 -11.24999 -10.48167  -7.94542  -7.94138
 Alpha  occ. eigenvalues --   -7.94138  -1.11294  -0.93333  -0.63273  -0.63237
 Alpha  occ. eigenvalues --   -0.51299  -0.43757  -0.43690
 Alpha virt. eigenvalues --    0.16565   0.27332   0.31368   0.31398   0.73833
 Alpha virt. eigenvalues --    0.80452   0.80898   0.85530   0.93174   0.94119
 Alpha virt. eigenvalues --    0.99634   1.31102   1.31258   1.32257   1.91923

 Mulliken charges:
               1
     1  H    0.267528
     2  C   -0.702901
     3  Cl  -0.106987
     4  H    0.271190
     5  H    0.271170
 Sum of Mulliken charges =  -0.00000

 Dipole moment (field-independent basis, Debye):
    X=              2.8645    Y=              0.0029    Z=             -0.0362  Tot=              2.8647
 Quadrupole moment (field-independent basis, Debye-Ang):
   XX=            -18.5678   YY=            -20.1791   ZZ=            -20.1898
   XY=             -0.0090   XZ=              0.1046   YZ=              0.0002

 Normal termination of Gaussian 16 at Fri Sep 22 17:16:26 2023.
