 Gaussian 16, Revision A.03,
 Gaussian 16:  ES64L-G16RevA.03 25-Dec-2016

 ----------
 # hf/3-21g
 ----------

 -----------------------
 tmpdir/M2_conf_30_0.gjf
 -----------------------
 Symbolic Z-matrix:
 Charge =  0 Multiplicity = 1

                         Standard orientation:
 ---------------------------------------------------------------------
 Center     Atomic      Atomic             Coordinates (Angstroms)
 Number     Number       Type             X           Y           Z
 ---------------------------------------------------------------------
      1          6           0       -0.028938   -0.010639   -0.000056
      2          1           0       -0.584349    0.949482   -0.003346
      3          1           0       -0.195009   -0.584408   -0.892151
      4          1           0       -0.200344   -0.580972    0.893222
      5          1           0        1.153327    0.279732    0.002609
 ---------------------------------------------------------------------

 SCF Done:  E(RHF) =  -39.9664230359     A.U. after    9 cycles

 The electronic state is 1-A.
 Alpha  occ. eigenvalues --  -11.16144  -0.93399  -0.55695  -0.54876  -0.50241
 Alpha virt. eigenvalues --    0.28171   0.31948   0.35001   0.35686   0.91845
 Alpha virt. eigenvalues --    0.93417   0.97865   1.24861   1.30620   1.35288
 Alpha virt. eigenvalues --    1.36852   1.94230

 Mulliken charges:
               1
     1  C   -0.765289
     2  H    0.197112
     3  H    0.207680
     4  H    0.207677
     5  H    0.152820
 Sum of Mulliken charges =  -0.00000

 Dipole moment (field-independent basis, Debye):
    X=             -0.0536    Y=             -0.0361    Z=             -0.0001  Tot=              0.0646
 Quadrupole moment (field-independent basis, Debye-Ang):
   XX=             -8.6705   YY=             -8.4185   ZZ=             -8.4246
   XY=             -0.0720   XZ=             -0.0012   YZ=             -0.0000

 Normal termination of Gaussian 16 at Fri Sep 22 17:14:52 2023.
