 Gaussian 16, Revision A.03,
 Gaussian 16:  ES64L-G16RevA.03 25-Dec-2016

 ----------
 # hf/3-21g
 ----------

 ------------------------
 tmpdir/M2_conf_107_9.gjf
 ------------------------
 Symbolic Z-matrix:
 Charge =  0 Multiplicity = 1

                         Standard orientation:
 ---------------------------------------------------------------------
 Center     Atomic      Atomic             Coordinates (Angstroms)
 Number     Number       Type             X           Y           Z
 ---------------------------------------------------------------------
      1          1           0        1.420032   -0.065060    1.047586
      2          6           0        1.202463    0.000116   -0.001715
      3         17           0       -0.689433    0.000197   -0.003297
      4          1           0        1.542930   -0.860332   -0.545689
      5          1           0        1.542628    0.921348   -0.435564
 ---------------------------------------------------------------------

 SCF Done:  E(RHF) =  -496.688632023     A.U. after   11 cycles

 The electronic state is 1-A.
 Alpha  occ. eigenvalues -- -104.08780 -11.24998 -10.48170  -7.94545  -7.94141
 Alpha  occ. eigenvalues --   -7.94140  -1.11301  -0.93331  -0.63299  -0.63219
 Alpha  occ. eigenvalues --   -0.51291  -0.43780  -0.43664
 Alpha virt. eigenvalues --    0.16550   0.27334   0.31368   0.31400   0.73836
 Alpha virt. eigenvalues --    0.80431   0.80899   0.85536   0.93104   0.94221
 Alpha virt. eigenvalues --    0.99646   1.31134   1.31204   1.32254   1.91880

 Mulliken charges:
               1
     1  H    0.272783
     2  C   -0.702927
     3  Cl  -0.107025
     4  H    0.268596
     5  H    0.268573
 Sum of Mulliken charges =  -0.00000

 Dipole moment (field-independent basis, Debye):
    X=              2.8637    Y=             -0.0028    Z=              0.0444  Tot=              2.8640
 Quadrupole moment (field-independent basis, Debye-Ang):
   XX=            -18.5671   YY=            -20.1820   ZZ=            -20.1901
   XY=              0.0071   XZ=             -0.1233   YZ=             -0.0002

 Normal termination of Gaussian 16 at Fri Sep 22 17:16:47 2023.
