 Gaussian 16, Revision A.03,
 Gaussian 16:  ES64L-G16RevA.03 25-Dec-2016

 ----------
 # hf/3-21g
 ----------

 -----------------------
 tmpdir/M2_conf_34_6.gjf
 -----------------------
 Symbolic Z-matrix:
 Charge =  0 Multiplicity = 1

                         Standard orientation:
 ---------------------------------------------------------------------
 Center     Atomic      Atomic             Coordinates (Angstroms)
 Number     Number       Type             X           Y           Z
 ---------------------------------------------------------------------
      1          1           0       -1.701484   -0.002397    0.955171
      2          6           0       -1.203043    0.000010    0.004519
      3         17           0        0.688854   -0.000034    0.008104
      4          1           0       -1.395129    0.894146   -0.557829
      5          1           0       -1.395652   -0.891228   -0.562230
 ---------------------------------------------------------------------

 SCF Done:  E(RHF) =  -496.684328637     A.U. after   11 cycles

 The electronic state is 1-A.
 Alpha  occ. eigenvalues -- -104.08816 -11.24988 -10.48206  -7.94579  -7.94175
 Alpha  occ. eigenvalues --   -7.94174  -1.11401  -0.93299  -0.63345  -0.63323
 Alpha  occ. eigenvalues --   -0.51107  -0.43755  -0.43630
 Alpha virt. eigenvalues --    0.16236   0.27320   0.31362   0.31486   0.73883
 Alpha virt. eigenvalues --    0.80000   0.81334   0.85766   0.92217   0.94685
 Alpha virt. eigenvalues --    1.00544   1.30553   1.31317   1.32560   1.91327

 Mulliken charges:
               1
     1  H    0.263704
     2  C   -0.705584
     3  Cl  -0.106166
     4  H    0.274035
     5  H    0.274010
 Sum of Mulliken charges =   0.00000

 Dipole moment (field-independent basis, Debye):
    X=             -2.8513    Y=              0.0003    Z=             -0.1025  Tot=              2.8531
 Quadrupole moment (field-independent basis, Debye-Ang):
   XX=            -18.5500   YY=            -20.1755   ZZ=            -20.2535
   XY=              0.0014   XZ=             -0.3050   YZ=             -0.0001

 Normal termination of Gaussian 16 at Fri Sep 22 17:14:58 2023.
