 Gaussian 16, Revision A.03,
 Gaussian 16:  ES64L-G16RevA.03 25-Dec-2016

 ----------
 # hf/3-21g
 ----------

 -----------------------
 tmpdir/M2_conf_44_2.gjf
 -----------------------
 Symbolic Z-matrix:
 Charge =  0 Multiplicity = 1

                         Standard orientation:
 ---------------------------------------------------------------------
 Center     Atomic      Atomic             Coordinates (Angstroms)
 Number     Number       Type             X           Y           Z
 ---------------------------------------------------------------------
      1          6           0        0.004330   -0.030273   -0.000016
      2          1           0        1.162394    0.274109   -0.002167
      3          1           0       -0.280838   -0.553581    0.892749
      4          1           0       -0.285107   -0.552276   -0.892407
      5          1           0       -0.622428    1.013388    0.001919
 ---------------------------------------------------------------------

 SCF Done:  E(RHF) =  -39.9593905432     A.U. after    9 cycles

 The electronic state is 1-A.
 Alpha  occ. eigenvalues --  -11.17150  -0.92665  -0.55862  -0.53200  -0.50009
 Alpha virt. eigenvalues --    0.27498   0.30851   0.33909   0.35685   0.91664
 Alpha virt. eigenvalues --    0.95554   0.99971   1.23204   1.26059   1.33883
 Alpha virt. eigenvalues --    1.36622   1.93244

 Mulliken charges:
               1
     1  C   -0.748778
     2  H    0.172123
     3  H    0.210331
     4  H    0.210279
     5  H    0.156045
 Sum of Mulliken charges =  -0.00000

 Dipole moment (field-independent basis, Debye):
    X=             -0.0583    Y=             -0.0735    Z=              0.0002  Tot=              0.0938
 Quadrupole moment (field-independent basis, Debye-Ang):
   XX=             -8.4943   YY=             -8.6891   ZZ=             -8.5053
   XY=              0.1437   XZ=              0.0010   YZ=             -0.0008

 Normal termination of Gaussian 16 at Fri Sep 22 17:15:13 2023.
