 Gaussian 16, Revision A.03,
 Gaussian 16:  ES64L-G16RevA.03 25-Dec-2016

 ----------
 # hf/3-21g
 ----------

 ------------------------
 tmpdir/M2_conf_255_8.gjf
 ------------------------
 Symbolic Z-matrix:
 Charge =  0 Multiplicity = 1

                         Standard orientation:
 ---------------------------------------------------------------------
 Center     Atomic      Atomic             Coordinates (Angstroms)
 Number     Number       Type             X           Y           Z
 ---------------------------------------------------------------------
      1          1           0        0.488787    0.000036    0.736719
      2          6           0        1.219040    0.000018   -0.050267
      3         17           0       -0.672597   -0.000010   -0.018855
      4          1           0        1.815385    0.892488   -0.057302
      5          1           0        1.815737   -0.892462   -0.057276
 ---------------------------------------------------------------------

 SCF Done:  E(RHF) =  -496.492050956     A.U. after   12 cycles

 The electronic state is 1-A.
 Alpha  occ. eigenvalues -- -104.12272 -11.21644 -10.52325  -7.98696  -7.98166
 Alpha  occ. eigenvalues --   -7.98097  -1.20251  -0.91481  -0.67695  -0.61836
 Alpha  occ. eigenvalues --   -0.52418  -0.47571  -0.36178
 Alpha virt. eigenvalues --    0.10863   0.31472   0.32974   0.34057   0.73226
 Alpha virt. eigenvalues --    0.76570   0.78755   0.82517   0.91124   0.98802
 Alpha virt. eigenvalues --    1.04402   1.19909   1.32243   1.32885   1.81063

 Mulliken charges:
               1
     1  H    0.286471
     2  C   -0.765318
     3  Cl  -0.063070
     4  H    0.270977
     5  H    0.270941
 Sum of Mulliken charges =  -0.00000

 Dipole moment (field-independent basis, Debye):
    X=              1.5734    Y=              0.0001    Z=              0.7645  Tot=              1.7493
 Quadrupole moment (field-independent basis, Debye-Ang):
   XX=            -18.9883   YY=            -19.9459   ZZ=            -21.7283
   XY=             -0.0003   XZ=             -0.2864   YZ=              0.0000

 Normal termination of Gaussian 16 at Fri Sep 22 17:20:36 2023.
