 Gaussian 16, Revision A.03,
 Gaussian 16:  ES64L-G16RevA.03 25-Dec-2016

 ----------
 # hf/3-21g
 ----------

 ------------------------
 tmpdir/M2_conf_277_8.gjf
 ------------------------
 Symbolic Z-matrix:
 Charge =  0 Multiplicity = 1

                         Standard orientation:
 ---------------------------------------------------------------------
 Center     Atomic      Atomic             Coordinates (Angstroms)
 Number     Number       Type             X           Y           Z
 ---------------------------------------------------------------------
      1          1           0       -0.644319   -0.000119    0.875168
      2          6           0       -1.213915   -0.000015   -0.034875
      3         17           0        0.677932    0.000012   -0.021088
      4          1           0       -1.798352   -0.892469   -0.153773
      5          1           0       -1.798689    0.892481   -0.153653
 ---------------------------------------------------------------------

 SCF Done:  E(RHF) =  -496.566142669     A.U. after   12 cycles

 The electronic state is 1-A.
 Alpha  occ. eigenvalues -- -104.10600 -11.23422 -10.50338  -7.96691  -7.96241
 Alpha  occ. eigenvalues --   -7.96190  -1.15980  -0.92308  -0.66276  -0.62573
 Alpha  occ. eigenvalues --   -0.51023  -0.45992  -0.39191
 Alpha virt. eigenvalues --    0.12113   0.29711   0.32224   0.32298   0.73972
 Alpha virt. eigenvalues --    0.77706   0.80073   0.84513   0.93479   0.98193
 Alpha virt. eigenvalues --    1.03404   1.23113   1.31132   1.31886   1.81667

 Mulliken charges:
               1
     1  H    0.295200
     2  C   -0.728039
     3  Cl  -0.105691
     4  H    0.269285
     5  H    0.269245
 Sum of Mulliken charges =   0.00000

 Dipole moment (field-independent basis, Debye):
    X=             -2.2310    Y=             -0.0002    Z=              0.5522  Tot=              2.2984
 Quadrupole moment (field-independent basis, Debye-Ang):
   XX=            -18.6880   YY=            -20.0886   ZZ=            -21.3005
   XY=             -0.0003   XZ=              0.6580   YZ=              0.0000

 Normal termination of Gaussian 16 at Fri Sep 22 17:21:10 2023.
