 Gaussian 16, Revision A.03,
 Gaussian 16:  ES64L-G16RevA.03 25-Dec-2016

 ----------
 # hf/3-21g
 ----------

 ------------------------
 tmpdir/M2_conf_122_6.gjf
 ------------------------
 Symbolic Z-matrix:
 Charge =  0 Multiplicity = 1

                         Standard orientation:
 ---------------------------------------------------------------------
 Center     Atomic      Atomic             Coordinates (Angstroms)
 Number     Number       Type             X           Y           Z
 ---------------------------------------------------------------------
      1          1           0       -1.227337   -0.003711    1.066968
      2          6           0       -1.203535    0.000037   -0.006162
      3         17           0        0.688365    0.000026   -0.010432
      4          1           0       -1.626626    0.894206   -0.423377
      5          1           0       -1.627029   -0.891164   -0.429271
 ---------------------------------------------------------------------

 SCF Done:  E(RHF) =  -496.679864449     A.U. after   11 cycles

 The electronic state is 1-A.
 Alpha  occ. eigenvalues -- -104.08873 -11.24961 -10.48269  -7.94641  -7.94236
 Alpha  occ. eigenvalues --   -7.94233  -1.11538  -0.93269  -0.63622  -0.63172
 Alpha  occ. eigenvalues --   -0.51001  -0.43959  -0.43383
 Alpha virt. eigenvalues --    0.16034   0.27401   0.31394   0.31472   0.73944
 Alpha virt. eigenvalues --    0.79872   0.81048   0.85629   0.92428   0.95437
 Alpha virt. eigenvalues --    1.00491   1.30394   1.31164   1.32372   1.90566

 Mulliken charges:
               1
     1  H    0.279468
     2  C   -0.704985
     3  Cl  -0.107626
     4  H    0.266580
     5  H    0.266563
 Sum of Mulliken charges =   0.00000

 Dipole moment (field-independent basis, Debye):
    X=             -2.8351    Y=             -0.0005    Z=              0.1520  Tot=              2.8392
 Quadrupole moment (field-independent basis, Debye-Ang):
   XX=            -18.5429   YY=            -20.1825   ZZ=            -20.2991
   XY=             -0.0009   XZ=              0.3888   YZ=             -0.0001

 Normal termination of Gaussian 16 at Fri Sep 22 17:17:09 2023.
