 Gaussian 16, Revision A.03,
 Gaussian 16:  ES64L-G16RevA.03 25-Dec-2016

 ----------
 # hf/3-21g
 ----------

 -----------------------
 tmpdir/M2_conf_96_0.gjf
 -----------------------
 Symbolic Z-matrix:
 Charge =  0 Multiplicity = 1

                         Standard orientation:
 ---------------------------------------------------------------------
 Center     Atomic      Atomic             Coordinates (Angstroms)
 Number     Number       Type             X           Y           Z
 ---------------------------------------------------------------------
      1          6           0        0.000310   -0.030930    0.000057
      2          1           0        1.196398    0.211450    0.000866
      3          1           0       -0.317445   -0.534522    0.893394
      4          1           0       -0.315126   -0.538243   -0.891985
      5          1           0       -0.565688    1.046897   -0.002615
 ---------------------------------------------------------------------

 SCF Done:  E(RHF) =  -39.9565718360     A.U. after    9 cycles

 The electronic state is 1-A.
 Alpha  occ. eigenvalues --  -11.17407  -0.92511  -0.55908  -0.52845  -0.49877
 Alpha virt. eigenvalues --    0.27204   0.30538   0.33748   0.35680   0.91631
 Alpha virt. eigenvalues --    0.95724   1.00848   1.22223   1.25613   1.33661
 Alpha virt. eigenvalues --    1.36546   1.92967

 Mulliken charges:
               1
     1  C   -0.743749
     2  H    0.165243
     3  H    0.210850
     4  H    0.210850
     5  H    0.156806
 Sum of Mulliken charges =   0.00000

 Dipole moment (field-independent basis, Debye):
    X=             -0.0830    Y=             -0.0720    Z=              0.0001  Tot=              0.1099
 Quadrupole moment (field-independent basis, Debye-Ang):
   XX=             -8.4847   YY=             -8.7227   ZZ=             -8.5249
   XY=              0.1353   XZ=             -0.0008   YZ=              0.0009

 Normal termination of Gaussian 16 at Fri Sep 22 17:16:31 2023.
