 Gaussian 16, Revision A.03,
 Gaussian 16:  ES64L-G16RevA.03 25-Dec-2016

 ----------
 # hf/3-21g
 ----------

 ------------------------
 tmpdir/M2_conf_209_0.gjf
 ------------------------
 Symbolic Z-matrix:
 Charge =  0 Multiplicity = 1

                         Standard orientation:
 ---------------------------------------------------------------------
 Center     Atomic      Atomic             Coordinates (Angstroms)
 Number     Number       Type             X           Y           Z
 ---------------------------------------------------------------------
      1          6           0       -0.031976    0.000056    0.003490
      2          1           0       -0.269167   -0.006491    1.032691
      3          1           0       -0.358661    0.897059   -0.487720
      4          1           0       -0.363755   -0.888276   -0.499892
      5          1           0        1.183439   -0.002629   -0.066018
 ---------------------------------------------------------------------

 SCF Done:  E(RHF) =  -39.9665738195     A.U. after    9 cycles

 The electronic state is 1-A.
 Alpha  occ. eigenvalues --  -11.15524  -0.93975  -0.56011  -0.55610  -0.50278
 Alpha virt. eigenvalues --    0.28374   0.32333   0.35685   0.36053   0.91140
 Alpha virt. eigenvalues --    0.91964   0.97588   1.25145   1.33018   1.36974
 Alpha virt. eigenvalues --    1.38197   1.94869

 Mulliken charges:
               1
     1  C   -0.772980
     2  H    0.210789
     3  H    0.205785
     4  H    0.205780
     5  H    0.150626
 Sum of Mulliken charges =   0.00000

 Dipole moment (field-independent basis, Debye):
    X=             -0.0748    Y=              0.0001    Z=              0.0144  Tot=              0.0762
 Quadrupole moment (field-independent basis, Debye-Ang):
   XX=             -8.6398   YY=             -8.3731   ZZ=             -8.3876
   XY=              0.0012   XZ=              0.0168   YZ=             -0.0003

 Normal termination of Gaussian 16 at Fri Sep 22 17:19:26 2023.
