 Gaussian 16, Revision A.03,
 Gaussian 16:  ES64L-G16RevA.03 25-Dec-2016

 ----------
 # hf/3-21g
 ----------

 ------------------------
 tmpdir/M2_conf_219_9.gjf
 ------------------------
 Symbolic Z-matrix:
 Charge =  0 Multiplicity = 1

                         Standard orientation:
 ---------------------------------------------------------------------
 Center     Atomic      Atomic             Coordinates (Angstroms)
 Number     Number       Type             X           Y           Z
 ---------------------------------------------------------------------
      1          1           0        1.163492   -0.004386    1.064872
      2          6           0        1.204126    0.000035   -0.007950
      3         17           0       -0.687766    0.000048   -0.012539
      4          1           0        1.651963   -0.890854   -0.405386
      5          1           0        1.651810    0.894213   -0.398627
 ---------------------------------------------------------------------

 SCF Done:  E(RHF) =  -496.674677675     A.U. after   11 cycles

 The electronic state is 1-A.
 Alpha  occ. eigenvalues -- -104.08932 -11.24932 -10.48334  -7.94705  -7.94299
 Alpha  occ. eigenvalues --   -7.94294  -1.11687  -0.93233  -0.63785  -0.63158
 Alpha  occ. eigenvalues --   -0.50865  -0.44044  -0.43232
 Alpha virt. eigenvalues --    0.15759   0.27457   0.31414   0.31507   0.73995
 Alpha virt. eigenvalues --    0.79686   0.81003   0.85543   0.92534   0.95798
 Alpha virt. eigenvalues --    1.00847   1.30074   1.31171   1.32299   1.89830

 Mulliken charges:
               1
     1  H    0.281491
     2  C   -0.705780
     3  Cl  -0.108234
     4  H    0.266275
     5  H    0.266247
 Sum of Mulliken charges =  -0.00000

 Dipole moment (field-independent basis, Debye):
    X=              2.8170    Y=             -0.0008    Z=              0.1885  Tot=              2.8233
 Quadrupole moment (field-independent basis, Debye-Ang):
   XX=            -18.5323   YY=            -20.1823   ZZ=            -20.3603
   XY=              0.0016   XZ=             -0.4672   YZ=             -0.0001

 Normal termination of Gaussian 16 at Fri Sep 22 17:19:41 2023.
