 Gaussian 16, Revision A.03,
 Gaussian 16:  ES64L-G16RevA.03 25-Dec-2016

 ----------
 # hf/3-21g
 ----------

 -----------------------
 tmpdir/M2_conf_75_8.gjf
 -----------------------
 Symbolic Z-matrix:
 Charge =  0 Multiplicity = 1

                         Standard orientation:
 ---------------------------------------------------------------------
 Center     Atomic      Atomic             Coordinates (Angstroms)
 Number     Number       Type             X           Y           Z
 ---------------------------------------------------------------------
      1          1           0       -1.423338   -0.041276    1.048207
      2          6           0       -1.202458    0.000052   -0.001613
      3         17           0        0.689436    0.000129   -0.003170
      4          1           0       -1.541079   -0.872409   -0.527279
      5          1           0       -1.541248    0.911171   -0.457356
 ---------------------------------------------------------------------

 SCF Done:  E(RHF) =  -496.688700058     A.U. after   11 cycles

 The electronic state is 1-A.
 Alpha  occ. eigenvalues -- -104.08779 -11.24999 -10.48169  -7.94544  -7.94140
 Alpha  occ. eigenvalues --   -7.94139  -1.11300  -0.93331  -0.63299  -0.63218
 Alpha  occ. eigenvalues --   -0.51293  -0.43777  -0.43667
 Alpha virt. eigenvalues --    0.16555   0.27334   0.31369   0.31398   0.73835
 Alpha virt. eigenvalues --    0.80441   0.80893   0.85533   0.93128   0.94195
 Alpha virt. eigenvalues --    0.99637   1.31146   1.31203   1.32248   1.91890

 Mulliken charges:
               1
     1  H    0.272672
     2  C   -0.702902
     3  Cl  -0.107036
     4  H    0.268657
     5  H    0.268609
 Sum of Mulliken charges =  -0.00000

 Dipole moment (field-independent basis, Debye):
    X=             -2.8639    Y=             -0.0018    Z=              0.0425  Tot=              2.8642
 Quadrupole moment (field-independent basis, Debye-Ang):
   XX=            -18.5677   YY=            -20.1825   ZZ=            -20.1886
   XY=             -0.0047   XZ=              0.1187   YZ=             -0.0001

 Normal termination of Gaussian 16 at Fri Sep 22 17:15:59 2023.
