 Gaussian 16, Revision A.03,
 Gaussian 16:  ES64L-G16RevA.03 25-Dec-2016

 ----------
 # hf/3-21g
 ----------

 -----------------------
 tmpdir/M2_conf_91_4.gjf
 -----------------------
 Symbolic Z-matrix:
 Charge =  0 Multiplicity = 1

                         Standard orientation:
 ---------------------------------------------------------------------
 Center     Atomic      Atomic             Coordinates (Angstroms)
 Number     Number       Type             X           Y           Z
 ---------------------------------------------------------------------
      1          1           0        0.400098   -0.258045    0.964243
      2          6           0        0.025939    0.012887   -0.004668
      3          1           0        0.564765   -0.548682   -0.744212
      4          1           0        0.016537    1.075330   -0.158721
      5          1           0       -1.137033   -0.345928   -0.033301
 ---------------------------------------------------------------------

 SCF Done:  E(RHF) =  -39.9666543482     A.U. after    9 cycles

 The electronic state is 1-A.
 Alpha  occ. eigenvalues --  -11.15720  -0.93791  -0.56272  -0.54782  -0.50455
 Alpha virt. eigenvalues --    0.28287   0.32312   0.35360   0.35944   0.91184
 Alpha virt. eigenvalues --    0.92573   0.97872   1.24952   1.32662   1.36154
 Alpha virt. eigenvalues --    1.37636   1.94542

 Mulliken charges:
               1
     1  H    0.205419
     2  C   -0.771045
     3  H    0.206132
     4  H    0.207027
     5  H    0.152467
 Sum of Mulliken charges =  -0.00000

 Dipole moment (field-independent basis, Debye):
    X=              0.0839    Y=              0.0083    Z=              0.0256  Tot=              0.0881
 Quadrupole moment (field-independent basis, Debye-Ang):
   XX=             -8.5538   YY=             -8.3464   ZZ=             -8.5339
   XY=             -0.1349   XZ=             -0.0181   YZ=             -0.0038

 Normal termination of Gaussian 16 at Fri Sep 22 17:16:23 2023.
