 Gaussian 16, Revision A.03,
 Gaussian 16:  ES64L-G16RevA.03 25-Dec-2016

 ----------
 # hf/3-21g
 ----------

 ------------------------
 tmpdir/M2_conf_271_4.gjf
 ------------------------
 Symbolic Z-matrix:
 Charge =  0 Multiplicity = 1

                         Standard orientation:
 ---------------------------------------------------------------------
 Center     Atomic      Atomic             Coordinates (Angstroms)
 Number     Number       Type             X           Y           Z
 ---------------------------------------------------------------------
      1          1           0        0.373586   -0.286035    0.969626
      2          6           0        0.028367    0.008821   -0.003036
      3          1           0        0.492437   -0.603823   -0.752658
      4          1           0        0.129464    1.064204   -0.172001
      5          1           0       -1.165690   -0.227270   -0.026750
 ---------------------------------------------------------------------

 SCF Done:  E(RHF) =  -39.9668837629     A.U. after    9 cycles

 The electronic state is 1-A.
 Alpha  occ. eigenvalues --  -11.15722  -0.93783  -0.56065  -0.55062  -0.50400
 Alpha virt. eigenvalues --    0.28299   0.32292   0.35467   0.35863   0.91401
 Alpha virt. eigenvalues --    0.92360   0.97787   1.24990   1.32608   1.36404
 Alpha virt. eigenvalues --    1.37397   1.94589

 Mulliken charges:
               1
     1  H    0.205723
     2  C   -0.770747
     3  H    0.206138
     4  H    0.206797
     5  H    0.152088
 Sum of Mulliken charges =  -0.00000

 Dipole moment (field-independent basis, Debye):
    X=              0.0794    Y=              0.0044    Z=              0.0174  Tot=              0.0814
 Quadrupole moment (field-independent basis, Debye-Ang):
   XX=             -8.6015   YY=             -8.3463   ZZ=             -8.4871
   XY=             -0.0911   XZ=             -0.0143   YZ=             -0.0017

 Normal termination of Gaussian 16 at Fri Sep 22 17:21:01 2023.
