 Gaussian 16, Revision A.03,
 Gaussian 16:  ES64L-G16RevA.03 25-Dec-2016

 ----------
 # hf/3-21g
 ----------

 ------------------------
 tmpdir/M2_conf_277_9.gjf
 ------------------------
 Symbolic Z-matrix:
 Charge =  0 Multiplicity = 1

                         Standard orientation:
 ---------------------------------------------------------------------
 Center     Atomic      Atomic             Coordinates (Angstroms)
 Number     Number       Type             X           Y           Z
 ---------------------------------------------------------------------
      1          1           0        1.268425   -0.008796    1.066458
      2          6           0        1.203212    0.000047   -0.005123
      3         17           0       -0.688687    0.000069   -0.009002
      4          1           0        1.610098   -0.888842   -0.448423
      5          1           0        1.609883    0.896182   -0.434270
 ---------------------------------------------------------------------

 SCF Done:  E(RHF) =  -496.682568175     A.U. after   11 cycles

 The electronic state is 1-A.
 Alpha  occ. eigenvalues -- -104.08843 -11.24974 -10.48237  -7.94610  -7.94205
 Alpha  occ. eigenvalues --   -7.94203  -1.11462  -0.93288  -0.63531  -0.63182
 Alpha  occ. eigenvalues --   -0.51082  -0.43912  -0.43462
 Alpha virt. eigenvalues --    0.16185   0.27374   0.31383   0.31455   0.73913
 Alpha virt. eigenvalues --    0.79989   0.81058   0.85644   0.92462   0.95183
 Alpha virt. eigenvalues --    1.00273   1.30596   1.31173   1.32365   1.90963

 Mulliken charges:
               1
     1  H    0.278048
     2  C   -0.704474
     3  Cl  -0.107343
     4  H    0.266898
     5  H    0.266872
 Sum of Mulliken charges =   0.00000

 Dipole moment (field-independent basis, Debye):
    X=              2.8441    Y=             -0.0011    Z=              0.1285  Tot=              2.8470
 Quadrupole moment (field-independent basis, Debye-Ang):
   XX=            -18.5493   YY=            -20.1833   ZZ=            -20.2656
   XY=              0.0023   XZ=             -0.3359   YZ=             -0.0001

 Normal termination of Gaussian 16 at Fri Sep 22 17:21:09 2023.
