 Gaussian 16, Revision A.03,
 Gaussian 16:  ES64L-G16RevA.03 25-Dec-2016

 ----------
 # hf/3-21g
 ----------

 ------------------------
 tmpdir/M2_conf_137_9.gjf
 ------------------------
 Symbolic Z-matrix:
 Charge =  0 Multiplicity = 1

                         Standard orientation:
 ---------------------------------------------------------------------
 Center     Atomic      Atomic             Coordinates (Angstroms)
 Number     Number       Type             X           Y           Z
 ---------------------------------------------------------------------
      1          1           0        1.085265   -0.002956    1.056454
      2          6           0        1.205024    0.000029   -0.010442
      3         17           0       -0.686867    0.000039   -0.014888
      4          1           0        1.680718   -0.891481   -0.372548
      5          1           0        1.680613    0.893594   -0.368160
 ---------------------------------------------------------------------

 SCF Done:  E(RHF) =  -496.666549085     A.U. after   11 cycles

 The electronic state is 1-A.
 Alpha  occ. eigenvalues -- -104.09029 -11.24876 -10.48443  -7.94812  -7.94405
 Alpha  occ. eigenvalues --   -7.94397  -1.11931  -0.93175  -0.64024  -0.63136
 Alpha  occ. eigenvalues --   -0.50694  -0.44173  -0.42991
 Alpha virt. eigenvalues --    0.15359   0.27565   0.31448   0.31554   0.74062
 Alpha virt. eigenvalues --    0.79454   0.80903   0.85342   0.92845   0.96228
 Alpha virt. eigenvalues --    1.01294   1.29603   1.31183   1.32177   1.88753

 Mulliken charges:
               1
     1  H    0.283944
     2  C   -0.706779
     3  Cl  -0.109352
     4  H    0.266108
     5  H    0.266079
 Sum of Mulliken charges =  -0.00000

 Dipole moment (field-independent basis, Debye):
    X=              2.7871    Y=             -0.0007    Z=              0.2343  Tot=              2.7969
 Quadrupole moment (field-independent basis, Debye-Ang):
   XX=            -18.5208   YY=            -20.1799   ZZ=            -20.4528
   XY=              0.0013   XZ=             -0.5532   YZ=             -0.0001

 Normal termination of Gaussian 16 at Fri Sep 22 17:17:32 2023.
