 Gaussian 16, Revision A.03,
 Gaussian 16:  ES64L-G16RevA.03 25-Dec-2016

 ----------
 # hf/3-21g
 ----------

 ------------------------
 tmpdir/M2_conf_116_6.gjf
 ------------------------
 Symbolic Z-matrix:
 Charge =  0 Multiplicity = 1

                         Standard orientation:
 ---------------------------------------------------------------------
 Center     Atomic      Atomic             Coordinates (Angstroms)
 Number     Number       Type             X           Y           Z
 ---------------------------------------------------------------------
      1          1           0       -1.277754   -0.005200    1.065906
      2          6           0       -1.203147    0.000041   -0.004885
      3         17           0        0.688751    0.000032   -0.008668
      4          1           0       -1.605853    0.894889   -0.440415
      5          1           0       -1.606272   -0.890471   -0.448831
 ---------------------------------------------------------------------

 SCF Done:  E(RHF) =  -496.683118527     A.U. after   11 cycles

 The electronic state is 1-A.
 Alpha  occ. eigenvalues -- -104.08837 -11.24977 -10.48230  -7.94603  -7.94199
 Alpha  occ. eigenvalues --   -7.94197  -1.11448  -0.93292  -0.63513  -0.63184
 Alpha  occ. eigenvalues --   -0.51099  -0.43902  -0.43478
 Alpha virt. eigenvalues --    0.16217   0.27371   0.31382   0.31449   0.73907
 Alpha virt. eigenvalues --    0.80018   0.81056   0.85643   0.92469   0.95134
 Alpha virt. eigenvalues --    1.00225   1.30627   1.31168   1.32381   1.91046

 Mulliken charges:
               1
     1  H    0.277780
     2  C   -0.704369
     3  Cl  -0.107306
     4  H    0.266956
     5  H    0.266938
 Sum of Mulliken charges =  -0.00000

 Dipole moment (field-independent basis, Debye):
    X=             -2.8460    Y=             -0.0006    Z=              0.1234  Tot=              2.8487
 Quadrupole moment (field-independent basis, Debye-Ang):
   XX=            -18.5508   YY=            -20.1826   ZZ=            -20.2594
   XY=             -0.0011   XZ=              0.3231   YZ=             -0.0001

 Normal termination of Gaussian 16 at Fri Sep 22 17:17:01 2023.
