 Gaussian 16, Revision A.03,
 Gaussian 16:  ES64L-G16RevA.03 25-Dec-2016

 ----------
 # hf/3-21g
 ----------

 -----------------------
 tmpdir/M2_conf_76_8.gjf
 -----------------------
 Symbolic Z-matrix:
 Charge =  0 Multiplicity = 1

                         Standard orientation:
 ---------------------------------------------------------------------
 Center     Atomic      Atomic             Coordinates (Angstroms)
 Number     Number       Type             X           Y           Z
 ---------------------------------------------------------------------
      1          1           0       -1.453027   -0.126823    1.035199
      2          6           0       -1.202404    0.000111   -0.000992
      3         17           0        0.689501    0.000247   -0.001981
      4          1           0       -1.526950   -0.824892   -0.606152
      5          1           0       -1.527110    0.946850   -0.389411
 ---------------------------------------------------------------------

 SCF Done:  E(RHF) =  -496.689176584     A.U. after   11 cycles

 The electronic state is 1-A.
 Alpha  occ. eigenvalues -- -104.08775 -11.25000 -10.48164  -7.94539  -7.94135
 Alpha  occ. eigenvalues --   -7.94135  -1.11287  -0.93335  -0.63274  -0.63227
 Alpha  occ. eigenvalues --   -0.51311  -0.43757  -0.43693
 Alpha virt. eigenvalues --    0.16586   0.27332   0.31371   0.31390   0.73829
 Alpha virt. eigenvalues --    0.80530   0.80824   0.85513   0.93324   0.93996
 Alpha virt. eigenvalues --    0.99571   1.31199   1.31214   1.32218   1.91962

 Mulliken charges:
               1
     1  H    0.271623
     2  C   -0.702726
     3  Cl  -0.107052
     4  H    0.269101
     5  H    0.269054
 Sum of Mulliken charges =   0.00000

 Dipole moment (field-independent basis, Debye):
    X=             -2.8654    Y=             -0.0033    Z=              0.0263  Tot=              2.8655
 Quadrupole moment (field-independent basis, Debye-Ang):
   XX=            -18.5693   YY=            -20.1819   ZZ=            -20.1829
   XY=             -0.0091   XZ=              0.0743   YZ=             -0.0002

 Normal termination of Gaussian 16 at Fri Sep 22 17:16:01 2023.
