 Gaussian 16, Revision A.03,
 Gaussian 16:  ES64L-G16RevA.03 25-Dec-2016

 ----------
 # hf/3-21g
 ----------

 ------------------------
 tmpdir/M2_conf_207_6.gjf
 ------------------------
 Symbolic Z-matrix:
 Charge =  0 Multiplicity = 1

                         Standard orientation:
 ---------------------------------------------------------------------
 Center     Atomic      Atomic             Coordinates (Angstroms)
 Number     Number       Type             X           Y           Z
 ---------------------------------------------------------------------
      1          1           0       -1.173715   -0.002765    1.065324
      2          6           0       -1.204026    0.000035   -0.007644
      3         17           0        0.687870    0.000022   -0.012210
      4          1           0       -1.647764    0.893777   -0.403792
      5          1           0       -1.648147   -0.891598   -0.408090
 ---------------------------------------------------------------------

 SCF Done:  E(RHF) =  -496.675592637     A.U. after   11 cycles

 The electronic state is 1-A.
 Alpha  occ. eigenvalues -- -104.08921 -11.24937 -10.48322  -7.94693  -7.94287
 Alpha  occ. eigenvalues --   -7.94283  -1.11660  -0.93239  -0.63758  -0.63160
 Alpha  occ. eigenvalues --   -0.50887  -0.44029  -0.43259
 Alpha virt. eigenvalues --    0.15806   0.27448   0.31410   0.31499   0.73987
 Alpha virt. eigenvalues --    0.79717   0.81012   0.85561   0.92500   0.95748
 Alpha virt. eigenvalues --    1.00789   1.30118   1.31164   1.32329   1.89957

 Mulliken charges:
               1
     1  H    0.281214
     2  C   -0.705656
     3  Cl  -0.108133
     4  H    0.266295
     5  H    0.266280
 Sum of Mulliken charges =  -0.00000

 Dipole moment (field-independent basis, Debye):
    X=             -2.8203    Y=             -0.0004    Z=              0.1827  Tot=              2.8262
 Quadrupole moment (field-independent basis, Debye-Ang):
   XX=            -18.5341   YY=            -20.1818   ZZ=            -20.3501
   XY=             -0.0008   XZ=              0.4547   YZ=             -0.0001

 Normal termination of Gaussian 16 at Fri Sep 22 17:19:23 2023.
