 Gaussian 16, Revision A.03,
 Gaussian 16:  ES64L-G16RevA.03 25-Dec-2016

 ----------
 # hf/3-21g
 ----------

 ----------------------
 tmpdir/M2_conf_0_1.gjf
 ----------------------
 Symbolic Z-matrix:
 Charge =  0 Multiplicity = 1

                         Standard orientation:
 ---------------------------------------------------------------------
 Center     Atomic      Atomic             Coordinates (Angstroms)
 Number     Number       Type             X           Y           Z
 ---------------------------------------------------------------------
      1          6           0       -0.031837   -0.000063    0.001820
      2          1           0       -0.296255   -0.018481    1.033721
      3          1           0       -0.347962   -0.883763   -0.519063
      4          1           0       -0.349682    0.900907   -0.487908
      5          1           0        1.184919    0.001712   -0.037668
 ---------------------------------------------------------------------

 SCF Done:  E(RHF) =  -39.9668277739     A.U. after    9 cycles

 The electronic state is 1-A.
 Alpha  occ. eigenvalues --  -11.15629  -0.93870  -0.55817  -0.55623  -0.50274
 Alpha virt. eigenvalues --    0.28346   0.32282   0.35686   0.35859   0.91558
 Alpha virt. eigenvalues --    0.91931   0.97609   1.25107   1.32749   1.36960
 Alpha virt. eigenvalues --    1.37500   1.94753

 Mulliken charges:
               1
     1  C   -0.771806
     2  H    0.208500
     3  H    0.206176
     4  H    0.206121
     5  H    0.151010
 Sum of Mulliken charges =  -0.00000

 Dipole moment (field-independent basis, Debye):
    X=             -0.0728    Y=             -0.0004    Z=              0.0071  Tot=              0.0732
 Quadrupole moment (field-independent basis, Debye-Ang):
   XX=             -8.6491   YY=             -8.3828   ZZ=             -8.3882
   XY=             -0.0005   XZ=              0.0103   YZ=             -0.0001

 Normal termination of Gaussian 16 at Fri Sep 22 17:14:07 2023.
