 Gaussian 16, Revision A.03,
 Gaussian 16:  ES64L-G16RevA.03 25-Dec-2016

 ----------
 # hf/3-21g
 ----------

 ------------------------
 tmpdir/M2_conf_291_8.gjf
 ------------------------
 Symbolic Z-matrix:
 Charge =  0 Multiplicity = 1

                         Standard orientation:
 ---------------------------------------------------------------------
 Center     Atomic      Atomic             Coordinates (Angstroms)
 Number     Number       Type             X           Y           Z
 ---------------------------------------------------------------------
      1          1           0        0.326389   -0.000009    0.512227
      2          6           0        1.226338    0.000023   -0.073187
      3         17           0       -0.664566   -0.000009   -0.011983
      4          1           0        1.806427    0.892488    0.065307
      5          1           0        1.806780   -0.892462    0.065295
 ---------------------------------------------------------------------

 SCF Done:  E(RHF) =  -496.357974675     A.U. after   13 cycles

 The electronic state is 1-A.
 Alpha  occ. eigenvalues -- -104.15811 -11.18513 -10.56297  -8.02773  -8.01990
 Alpha  occ. eigenvalues --   -8.01948  -1.29631  -0.90330  -0.70018  -0.60788
 Alpha  occ. eigenvalues --   -0.55012  -0.49928  -0.32211
 Alpha virt. eigenvalues --    0.10261   0.33218   0.34447   0.39333   0.65434
 Alpha virt. eigenvalues --    0.72231   0.74589   0.78291   0.94074   0.99659
 Alpha virt. eigenvalues --    1.06228   1.24851   1.34802   1.38114   1.83720

 Mulliken charges:
               1
     1  H    0.218800
     2  C   -0.842118
     3  Cl   0.086521
     4  H    0.268413
     5  H    0.268383
 Sum of Mulliken charges =   0.00000

 Dipole moment (field-independent basis, Debye):
    X=              0.2066    Y=             -0.0000    Z=              1.2621  Tot=              1.2789
 Quadrupole moment (field-independent basis, Debye-Ang):
   XX=            -19.3338   YY=            -19.6278   ZZ=            -22.3596
   XY=             -0.0003   XZ=              0.9200   YZ=              0.0001

 Normal termination of Gaussian 16 at Fri Sep 22 17:21:35 2023.
