 Gaussian 16, Revision A.03,
 Gaussian 16:  ES64L-G16RevA.03 25-Dec-2016

 ----------
 # hf/3-21g
 ----------

 -----------------------
 tmpdir/M2_conf_77_0.gjf
 -----------------------
 Symbolic Z-matrix:
 Charge =  0 Multiplicity = 1

                         Standard orientation:
 ---------------------------------------------------------------------
 Center     Atomic      Atomic             Coordinates (Angstroms)
 Number     Number       Type             X           Y           Z
 ---------------------------------------------------------------------
      1          6           0        0.001543   -0.030759    0.000057
      2          1           0        1.186213    0.228934    0.000909
      3          1           0       -0.308218   -0.539345    0.893372
      4          1           0       -0.305775   -0.542992   -0.892006
      5          1           0       -0.581478    1.037956   -0.002615
 ---------------------------------------------------------------------

 SCF Done:  E(RHF) =  -39.9575402158     A.U. after    9 cycles

 The electronic state is 1-A.
 Alpha  occ. eigenvalues --  -11.17323  -0.92559  -0.55892  -0.52957  -0.49925
 Alpha virt. eigenvalues --    0.27308   0.30639   0.33796   0.35681   0.91644
 Alpha virt. eigenvalues --    0.95679   1.00552   1.22560   1.25732   1.33728
 Alpha virt. eigenvalues --    1.36569   1.93059

 Mulliken charges:
               1
     1  C   -0.745429
     2  H    0.167528
     3  H    0.210669
     4  H    0.210669
     5  H    0.156563
 Sum of Mulliken charges =   0.00000

 Dipole moment (field-independent basis, Debye):
    X=             -0.0749    Y=             -0.0725    Z=              0.0001  Tot=              0.1042
 Quadrupole moment (field-independent basis, Debye-Ang):
   XX=             -8.4872   YY=             -8.7125   ZZ=             -8.5184
   XY=              0.1378   XZ=             -0.0008   YZ=              0.0009

 Normal termination of Gaussian 16 at Fri Sep 22 17:16:03 2023.
