 Gaussian 16, Revision A.03,
 Gaussian 16:  ES64L-G16RevA.03 25-Dec-2016

 ----------
 # hf/3-21g
 ----------

 ------------------------
 tmpdir/M2_conf_261_0.gjf
 ------------------------
 Symbolic Z-matrix:
 Charge =  0 Multiplicity = 1

                         Standard orientation:
 ---------------------------------------------------------------------
 Center     Atomic      Atomic             Coordinates (Angstroms)
 Number     Number       Type             X           Y           Z
 ---------------------------------------------------------------------
      1          6           0        0.007207   -0.029585    0.000056
      2          1           0        1.134488    0.330186    0.001134
      3          1           0       -0.254073   -0.564883    0.893260
      4          1           0       -0.250982   -0.568070   -0.892118
      5          1           0       -0.672676    0.980278   -0.002614
 ---------------------------------------------------------------------

 SCF Done:  E(RHF) =  -39.9609524478     A.U. after    9 cycles

 The electronic state is 1-A.
 Alpha  occ. eigenvalues --  -11.16994  -0.92764  -0.55832  -0.53438  -0.50071
 Alpha virt. eigenvalues --    0.27648   0.31047   0.34025   0.35683   0.91697
 Alpha virt. eigenvalues --    0.95397   0.99469   1.23703   1.26492   1.34014
 Alpha virt. eigenvalues --    1.36654   1.93404

 Mulliken charges:
               1
     1  C   -0.751680
     2  H    0.176272
     3  H    0.209917
     4  H    0.209916
     5  H    0.155576
 Sum of Mulliken charges =  -0.00000

 Dipole moment (field-independent basis, Debye):
    X=             -0.0422    Y=             -0.0738    Z=              0.0001  Tot=              0.0850
 Quadrupole moment (field-independent basis, Debye-Ang):
   XX=             -8.5065   YY=             -8.6629   ZZ=             -8.4927
   XY=              0.1499   XZ=             -0.0009   YZ=              0.0009

 Normal termination of Gaussian 16 at Fri Sep 22 17:20:45 2023.
