 Gaussian 16, Revision A.03,
 Gaussian 16:  ES64L-G16RevA.03 25-Dec-2016

 ----------
 # hf/3-21g
 ----------

 ------------------------
 tmpdir/M2_conf_121_8.gjf
 ------------------------
 Symbolic Z-matrix:
 Charge =  0 Multiplicity = 1

                         Standard orientation:
 ---------------------------------------------------------------------
 Center     Atomic      Atomic             Coordinates (Angstroms)
 Number     Number       Type             X           Y           Z
 ---------------------------------------------------------------------
      1          1           0       -1.353169   -0.010605    1.059839
      2          6           0       -1.202713    0.000019   -0.003113
      3         17           0        0.689186    0.000064   -0.005887
      4          1           0       -1.573262   -0.887730   -0.479320
      5          1           0       -1.573451    0.897134   -0.461760
 ---------------------------------------------------------------------

 SCF Done:  E(RHF) =  -496.686694293     A.U. after   11 cycles

 The electronic state is 1-A.
 Alpha  occ. eigenvalues -- -104.08799 -11.24992 -10.48190  -7.94564  -7.94160
 Alpha  occ. eigenvalues --   -7.94159  -1.11351  -0.93317  -0.63384  -0.63200
 Alpha  occ. eigenvalues --   -0.51218  -0.43831  -0.43590
 Alpha virt. eigenvalues --    0.16429   0.27343   0.31371   0.31421   0.73862
 Alpha virt. eigenvalues --    0.80234   0.81010   0.85598   0.92732   0.94652
 Alpha virt. eigenvalues --    0.99877   1.30939   1.31185   1.32323   1.91584

 Mulliken charges:
               1
     1  H    0.275142
     2  C   -0.703505
     3  Cl  -0.107076
     4  H    0.267744
     5  H    0.267696
 Sum of Mulliken charges =   0.00000

 Dipole moment (field-independent basis, Debye):
    X=             -2.8576    Y=             -0.0009    Z=              0.0810  Tot=              2.8588
 Quadrupole moment (field-independent basis, Debye-Ang):
   XX=            -18.5611   YY=            -20.1834   ZZ=            -20.2137
   XY=             -0.0022   XZ=              0.2201   YZ=              0.0000

 Normal termination of Gaussian 16 at Fri Sep 22 17:17:08 2023.
