 Gaussian 16, Revision A.03,
 Gaussian 16:  ES64L-G16RevA.03 25-Dec-2016

 ----------
 # hf/3-21g
 ----------

 ------------------------
 tmpdir/M2_conf_143_7.gjf
 ------------------------
 Symbolic Z-matrix:
 Charge =  0 Multiplicity = 1

                         Standard orientation:
 ---------------------------------------------------------------------
 Center     Atomic      Atomic             Coordinates (Angstroms)
 Number     Number       Type             X           Y           Z
 ---------------------------------------------------------------------
      1          1           0       -1.067491    0.016331   -0.298565
      2          6           0       -0.028571   -0.029773   -0.031850
      3          1           0        0.817177   -0.184958   -0.674692
      4          1           0        0.160594   -0.723867    0.764783
      5          1           0        0.261146    1.071134    0.399574
 ---------------------------------------------------------------------

 SCF Done:  E(RHF) =  -39.9569998857     A.U. after    9 cycles

 The electronic state is 1-A.
 Alpha  occ. eigenvalues --  -11.15778  -0.93946  -0.58595  -0.53588  -0.48974
 Alpha virt. eigenvalues --    0.28275   0.31135   0.34772   0.36799   0.90113
 Alpha virt. eigenvalues --    0.96379   0.97282   1.25342   1.31081   1.35314
 Alpha virt. eigenvalues --    1.40250   1.94439

 Mulliken charges:
               1
     1  H    0.215732
     2  C   -0.787573
     3  H    0.216865
     4  H    0.206397
     5  H    0.148579
 Sum of Mulliken charges =   0.00000

 Dipole moment (field-independent basis, Debye):
    X=              0.0684    Y=             -0.0641    Z=              0.0370  Tot=              0.1008
 Quadrupole moment (field-independent basis, Debye-Ang):
   XX=             -7.8768   YY=             -8.6714   ZZ=             -8.9340
   XY=             -0.1033   XZ=             -0.0258   YZ=             -0.1565

 Normal termination of Gaussian 16 at Fri Sep 22 17:17:41 2023.
