 Gaussian 16, Revision A.03,
 Gaussian 16:  ES64L-G16RevA.03 25-Dec-2016

 ----------
 # hf/3-21g
 ----------

 -----------------------
 tmpdir/M2_conf_24_1.gjf
 -----------------------
 Symbolic Z-matrix:
 Charge =  0 Multiplicity = 1

                         Standard orientation:
 ---------------------------------------------------------------------
 Center     Atomic      Atomic             Coordinates (Angstroms)
 Number     Number       Type             X           Y           Z
 ---------------------------------------------------------------------
      1          6           0       -0.031329   -0.002152    0.000057
      2          1           0       -0.375477    1.024499   -0.014849
      3          1           0       -0.310106   -0.515805    0.900404
      4          1           0       -0.311533   -0.542461   -0.884340
      5          1           0        1.185088    0.046682   -0.001557
 ---------------------------------------------------------------------

 SCF Done:  E(RHF) =  -39.9669705439     A.U. after    9 cycles

 The electronic state is 1-A.
 Alpha  occ. eigenvalues --  -11.15834  -0.93674  -0.55650  -0.55439  -0.50264
 Alpha virt. eigenvalues --    0.28285   0.32166   0.35498   0.35687   0.91891
 Alpha virt. eigenvalues --    0.92332   0.97676   1.25022   1.32056   1.36392
 Alpha virt. eigenvalues --    1.36920   1.94537

 Mulliken charges:
               1
     1  C   -0.769361
     2  H    0.204044
     3  H    0.206814
     4  H    0.206759
     5  H    0.151744
 Sum of Mulliken charges =   0.00000

 Dipole moment (field-independent basis, Debye):
    X=             -0.0679    Y=             -0.0084    Z=              0.0003  Tot=              0.0685
 Quadrupole moment (field-independent basis, Debye-Ang):
   XX=             -8.6651   YY=             -8.3926   ZZ=             -8.4000
   XY=             -0.0117   XZ=              0.0004   YZ=              0.0001

 Normal termination of Gaussian 16 at Fri Sep 22 17:14:43 2023.
