 Gaussian 16, Revision A.03,
 Gaussian 16:  ES64L-G16RevA.03 25-Dec-2016

 ----------
 # hf/3-21g
 ----------

 ------------------------
 tmpdir/M2_conf_135_8.gjf
 ------------------------
 Symbolic Z-matrix:
 Charge =  0 Multiplicity = 1

                         Standard orientation:
 ---------------------------------------------------------------------
 Center     Atomic      Atomic             Coordinates (Angstroms)
 Number     Number       Type             X           Y           Z
 ---------------------------------------------------------------------
      1          1           0       -1.343473   -0.009297    1.060970
      2          6           0       -1.202757    0.000017   -0.003328
      3         17           0        0.689138    0.000060   -0.006254
      4          1           0       -1.577569   -0.888354   -0.475018
      5          1           0       -1.577761    0.896530   -0.459676
 ---------------------------------------------------------------------

 SCF Done:  E(RHF) =  -496.686318622     A.U. after   11 cycles

 The electronic state is 1-A.
 Alpha  occ. eigenvalues -- -104.08803 -11.24990 -10.48194  -7.94568  -7.94164
 Alpha  occ. eigenvalues --   -7.94163  -1.11361  -0.93314  -0.63399  -0.63197
 Alpha  occ. eigenvalues --   -0.51205  -0.43839  -0.43578
 Alpha virt. eigenvalues --    0.16406   0.27346   0.31372   0.31424   0.73867
 Alpha virt. eigenvalues --    0.80206   0.81020   0.85607   0.92688   0.94713
 Alpha virt. eigenvalues --    0.99917   1.30905   1.31183   1.32331   1.91527

 Mulliken charges:
               1
     1  H    0.275480
     2  C   -0.703609
     3  Cl  -0.107089
     4  H    0.267633
     5  H    0.267585
 Sum of Mulliken charges =  -0.00000

 Dipole moment (field-independent basis, Debye):
    X=             -2.8564    Y=             -0.0009    Z=              0.0864  Tot=              2.8577
 Quadrupole moment (field-independent basis, Debye-Ang):
   XX=            -18.5600   YY=            -20.1835   ZZ=            -20.2184
   XY=             -0.0021   XZ=              0.2337   YZ=              0.0000

 Normal termination of Gaussian 16 at Fri Sep 22 17:17:29 2023.
