 Gaussian 16, Revision A.03,
 Gaussian 16:  ES64L-G16RevA.03 25-Dec-2016

 ----------
 # hf/3-21g
 ----------

 -----------------------
 tmpdir/M2_conf_21_4.gjf
 -----------------------
 Symbolic Z-matrix:
 Charge =  0 Multiplicity = 1

                         Standard orientation:
 ---------------------------------------------------------------------
 Center     Atomic      Atomic             Coordinates (Angstroms)
 Number     Number       Type             X           Y           Z
 ---------------------------------------------------------------------
      1          1           0       -0.746858    0.717630   -0.348910
      2          6           0       -0.032944   -0.011138   -0.015127
      3          1           0        0.315562   -0.745981   -0.715958
      4          1           0       -0.346114   -0.511937    0.881382
      5          1           0        0.975074    0.607114    0.274247
 ---------------------------------------------------------------------

 SCF Done:  E(RHF) =  -39.9652063524     A.U. after    9 cycles

 The electronic state is 1-A.
 Alpha  occ. eigenvalues --  -11.15740  -0.93800  -0.56824  -0.54761  -0.49908
 Alpha virt. eigenvalues --    0.28331   0.31983   0.35292   0.36143   0.91068
 Alpha virt. eigenvalues --    0.93296   0.97420   1.25224   1.31987   1.36135
 Alpha virt. eigenvalues --    1.38154   1.94649

 Mulliken charges:
               1
     1  H    0.208849
     2  C   -0.773454
     3  H    0.208500
     4  H    0.206047
     5  H    0.150058
 Sum of Mulliken charges =  -0.00000

 Dipole moment (field-independent basis, Debye):
    X=             -0.0325    Y=             -0.0572    Z=              0.0071  Tot=              0.0662
 Quadrupole moment (field-independent basis, Debye-Ang):
   XX=             -8.5108   YY=             -8.3513   ZZ=             -8.5875
   XY=             -0.2299   XZ=             -0.0916   YZ=             -0.0621

 Normal termination of Gaussian 16 at Fri Sep 22 17:14:39 2023.
