 Gaussian 16, Revision A.03,
 Gaussian 16:  ES64L-G16RevA.03 25-Dec-2016

 ----------
 # hf/3-21g
 ----------

 ------------------------
 tmpdir/M2_conf_181_0.gjf
 ------------------------
 Symbolic Z-matrix:
 Charge =  0 Multiplicity = 1

                         Standard orientation:
 ---------------------------------------------------------------------
 Center     Atomic      Atomic             Coordinates (Angstroms)
 Number     Number       Type             X           Y           Z
 ---------------------------------------------------------------------
      1          6           0       -0.032112    0.000056    0.005902
      2          1           0       -0.232680   -0.003589    1.028716
      3          1           0       -0.374992    0.895620   -0.476821
      4          1           0       -0.380022   -0.889743   -0.483812
      5          1           0        1.180364   -0.002623   -0.103497
 ---------------------------------------------------------------------

 SCF Done:  E(RHF) =  -39.9659319906     A.U. after    9 cycles

 The electronic state is 1-A.
 Alpha  occ. eigenvalues --  -11.15362  -0.94145  -0.56315  -0.55590  -0.50282
 Alpha virt. eigenvalues --    0.28413   0.32403   0.35684   0.36360   0.90506
 Alpha virt. eigenvalues --    0.91997   0.97565   1.25202   1.33352   1.37003
 Alpha virt. eigenvalues --    1.39395   1.95059

 Mulliken charges:
               1
     1  C   -0.774697
     2  H    0.214179
     3  H    0.205249
     4  H    0.205245
     5  H    0.150024
 Sum of Mulliken charges =   0.00000

 Dipole moment (field-independent basis, Debye):
    X=             -0.0772    Y=              0.0001    Z=              0.0247  Tot=              0.0811
 Quadrupole moment (field-independent basis, Debye-Ang):
   XX=             -8.6250   YY=             -8.3592   ZZ=             -8.3857
   XY=              0.0012   XZ=              0.0262   YZ=             -0.0004

 Normal termination of Gaussian 16 at Fri Sep 22 17:18:39 2023.
