 Gaussian 16, Revision A.03,
 Gaussian 16:  ES64L-G16RevA.03 25-Dec-2016

 ----------
 # hf/3-21g
 ----------

 ------------------------
 tmpdir/M2_conf_269_6.gjf
 ------------------------
 Symbolic Z-matrix:
 Charge =  0 Multiplicity = 1

                         Standard orientation:
 ---------------------------------------------------------------------
 Center     Atomic      Atomic             Coordinates (Angstroms)
 Number     Number       Type             X           Y           Z
 ---------------------------------------------------------------------
      1          1           0       -1.201798   -0.003204    1.066543
      2          6           0       -1.203756    0.000036   -0.006850
      3         17           0        0.688139    0.000024   -0.011293
      4          1           0       -1.636813    0.893976   -0.414215
      5          1           0       -1.637207   -0.891397   -0.419253
 ---------------------------------------------------------------------

 SCF Done:  E(RHF) =  -496.677937627     A.U. after   11 cycles

 The electronic state is 1-A.
 Alpha  occ. eigenvalues -- -104.08894 -11.24951 -10.48292  -7.94664  -7.94259
 Alpha  occ. eigenvalues --   -7.94255  -1.11593  -0.93255  -0.63685  -0.63167
 Alpha  occ. eigenvalues --   -0.50948  -0.43991  -0.43327
 Alpha virt. eigenvalues --    0.15930   0.27421   0.31401   0.31484   0.73964
 Alpha virt. eigenvalues --    0.79799   0.81034   0.85604   0.92448   0.95587
 Alpha virt. eigenvalues --    1.00631   1.30266   1.31163   1.32355   1.90288

 Mulliken charges:
               1
     1  H    0.280306
     2  C   -0.705305
     3  Cl  -0.107843
     4  H    0.266429
     5  H    0.266413
 Sum of Mulliken charges =  -0.00000

 Dipole moment (field-independent basis, Debye):
    X=             -2.8285    Y=             -0.0005    Z=              0.1666  Tot=              2.8334
 Quadrupole moment (field-independent basis, Debye-Ang):
   XX=            -18.5387   YY=            -20.1822   ZZ=            -20.3223
   XY=             -0.0008   XZ=              0.4207   YZ=             -0.0001

 Normal termination of Gaussian 16 at Fri Sep 22 17:20:57 2023.
