 Gaussian 16, Revision A.03,
 Gaussian 16:  ES64L-G16RevA.03 25-Dec-2016

 ----------
 # hf/3-21g
 ----------

 ------------------------
 tmpdir/M2_conf_264_7.gjf
 ------------------------
 Symbolic Z-matrix:
 Charge =  0 Multiplicity = 1

                         Standard orientation:
 ---------------------------------------------------------------------
 Center     Atomic      Atomic             Coordinates (Angstroms)
 Number     Number       Type             X           Y           Z
 ---------------------------------------------------------------------
      1          1           0        0.465713   -0.174215    0.945280
      2          6           0        0.016736    0.021715   -0.010046
      3          1           0        0.719563   -0.375209   -0.717929
      4          1           0       -0.274322    1.048560   -0.124284
      5          1           0       -1.011370   -0.629427   -0.042794
 ---------------------------------------------------------------------

 SCF Done:  E(RHF) =  -39.9651314063     A.U. after    9 cycles

 The electronic state is 1-A.
 Alpha  occ. eigenvalues --  -11.15720  -0.93833  -0.56926  -0.53894  -0.50601
 Alpha virt. eigenvalues --    0.28236   0.32340   0.35022   0.36174   0.90634
 Alpha virt. eigenvalues --    0.93208   0.98205   1.24836   1.32729   1.35422
 Alpha virt. eigenvalues --    1.38454   1.94312

 Mulliken charges:
               1
     1  H    0.204566
     2  C   -0.772889
     3  H    0.206548
     4  H    0.208004
     5  H    0.153771
 Sum of Mulliken charges =  -0.00000

 Dipole moment (field-independent basis, Debye):
    X=              0.0994    Y=              0.0207    Z=              0.0518  Tot=              0.1140
 Quadrupole moment (field-independent basis, Debye-Ang):
   XX=             -8.3607   YY=             -8.3930   ZZ=             -8.6808
   XY=             -0.2160   XZ=             -0.0240   YZ=             -0.0107

 Normal termination of Gaussian 16 at Fri Sep 22 17:20:50 2023.
