 Gaussian 16, Revision A.03,
 Gaussian 16:  ES64L-G16RevA.03 25-Dec-2016

 ----------
 # hf/3-21g
 ----------

 -----------------------
 tmpdir/M2_conf_67_6.gjf
 -----------------------
 Symbolic Z-matrix:
 Charge =  0 Multiplicity = 1

                         Standard orientation:
 ---------------------------------------------------------------------
 Center     Atomic      Atomic             Coordinates (Angstroms)
 Number     Number       Type             X           Y           Z
 ---------------------------------------------------------------------
      1          1           0       -1.360046   -0.011260    1.058753
      2          6           0       -1.202679    0.000050   -0.002989
      3         17           0        0.689219    0.000048   -0.005624
      4          1           0       -1.570081    0.897710   -0.463243
      5          1           0       -1.570526   -0.887572   -0.481972
 ---------------------------------------------------------------------

 SCF Done:  E(RHF) =  -496.686945634     A.U. after   11 cycles

 The electronic state is 1-A.
 Alpha  occ. eigenvalues -- -104.08797 -11.24993 -10.48188  -7.94562  -7.94158
 Alpha  occ. eigenvalues --   -7.94157  -1.11345  -0.93319  -0.63372  -0.63203
 Alpha  occ. eigenvalues --   -0.51228  -0.43825  -0.43599
 Alpha virt. eigenvalues --    0.16444   0.27343   0.31371   0.31417   0.73859
 Alpha virt. eigenvalues --    0.80256   0.80999   0.85592   0.92754   0.94620
 Alpha virt. eigenvalues --    0.99849   1.30951   1.31182   1.32334   1.91624

 Mulliken charges:
               1
     1  H    0.274941
     2  C   -0.703448
     3  Cl  -0.107063
     4  H    0.267795
     5  H    0.267775
 Sum of Mulliken charges =  -0.00000

 Dipole moment (field-independent basis, Debye):
    X=             -2.8584    Y=             -0.0008    Z=              0.0775  Tot=              2.8595
 Quadrupole moment (field-independent basis, Debye-Ang):
   XX=            -18.5618   YY=            -20.1822   ZZ=            -20.2117
   XY=             -0.0017   XZ=              0.2097   YZ=             -0.0002

 Normal termination of Gaussian 16 at Fri Sep 22 17:15:48 2023.
