 Gaussian 16, Revision A.03,
 Gaussian 16:  ES64L-G16RevA.03 25-Dec-2016

 ----------
 # hf/3-21g
 ----------

 ------------------------
 tmpdir/M2_conf_246_5.gjf
 ------------------------
 Symbolic Z-matrix:
 Charge =  0 Multiplicity = 1

                         Standard orientation:
 ---------------------------------------------------------------------
 Center     Atomic      Atomic             Coordinates (Angstroms)
 Number     Number       Type             X           Y           Z
 ---------------------------------------------------------------------
      1          1           0       -0.401612   -0.258464    0.963440
      2          6           0       -0.025816    0.013115   -0.004656
      3          1           0       -0.569821   -0.541952   -0.745309
      4          1           0       -0.008113    1.075962   -0.155164
      5          1           0        1.134440   -0.354234   -0.035033
 ---------------------------------------------------------------------

 SCF Done:  E(RHF) =  -39.9666420369     A.U. after    9 cycles

 The electronic state is 1-A.
 Alpha  occ. eigenvalues --  -11.15720  -0.93791  -0.56280  -0.54773  -0.50455
 Alpha virt. eigenvalues --    0.28287   0.32312   0.35356   0.35947   0.91177
 Alpha virt. eigenvalues --    0.92580   0.97875   1.24951   1.32662   1.36145
 Alpha virt. eigenvalues --    1.37645   1.94539

 Mulliken charges:
               1
     1  H    0.205414
     2  C   -0.771059
     3  H    0.206129
     4  H    0.207038
     5  H    0.152478
 Sum of Mulliken charges =  -0.00000

 Dipole moment (field-independent basis, Debye):
    X=             -0.0839    Y=              0.0088    Z=              0.0259  Tot=              0.0882
 Quadrupole moment (field-independent basis, Debye-Ang):
   XX=             -8.5504   YY=             -8.3482   ZZ=             -8.5355
   XY=              0.1378   XZ=              0.0188   YZ=             -0.0041

 Normal termination of Gaussian 16 at Fri Sep 22 17:20:22 2023.
