 Gaussian 16, Revision A.03,
 Gaussian 16:  ES64L-G16RevA.03 25-Dec-2016

 ----------
 # hf/3-21g
 ----------

 ------------------------
 tmpdir/M2_conf_172_1.gjf
 ------------------------
 Symbolic Z-matrix:
 Charge =  0 Multiplicity = 1

                         Standard orientation:
 ---------------------------------------------------------------------
 Center     Atomic      Atomic             Coordinates (Angstroms)
 Number     Number       Type             X           Y           Z
 ---------------------------------------------------------------------
      1          6           0       -0.031891   -0.000062    0.002437
      2          1           0       -0.285309   -0.013206    1.033983
      3          1           0       -0.352998   -0.886459   -0.510760
      4          1           0       -0.354759    0.898347   -0.488708
      5          1           0        1.184412    0.001688   -0.049138
 ---------------------------------------------------------------------

 SCF Done:  E(RHF) =  -39.9667560844     A.U. after    9 cycles

 The electronic state is 1-A.
 Alpha  occ. eigenvalues --  -11.15593  -0.93906  -0.55884  -0.55618  -0.50275
 Alpha virt. eigenvalues --    0.28356   0.32300   0.35686   0.35925   0.91418
 Alpha virt. eigenvalues --    0.91938   0.97601   1.25120   1.32849   1.36966
 Alpha virt. eigenvalues --    1.37728   1.94792

 Mulliken charges:
               1
     1  C   -0.772218
     2  H    0.209276
     3  H    0.206060
     4  H    0.206005
     5  H    0.150878
 Sum of Mulliken charges =  -0.00000

 Dipole moment (field-independent basis, Debye):
    X=             -0.0735    Y=             -0.0003    Z=              0.0097  Tot=              0.0742
 Quadrupole moment (field-independent basis, Debye-Ang):
   XX=             -8.6459   YY=             -8.3798   ZZ=             -8.3876
   XY=             -0.0005   XZ=              0.0133   YZ=             -0.0001

 Normal termination of Gaussian 16 at Fri Sep 22 17:18:25 2023.
