 Gaussian 16, Revision A.03,
 Gaussian 16:  ES64L-G16RevA.03 25-Dec-2016

 ----------
 # hf/3-21g
 ----------

 -----------------------
 tmpdir/M2_conf_20_8.gjf
 -----------------------
 Symbolic Z-matrix:
 Charge =  0 Multiplicity = 1

                         Standard orientation:
 ---------------------------------------------------------------------
 Center     Atomic      Atomic             Coordinates (Angstroms)
 Number     Number       Type             X           Y           Z
 ---------------------------------------------------------------------
      1          1           0       -1.470640   -0.449933    0.936424
      2          6           0       -1.202376    0.000266   -0.000577
      3         17           0        0.689521    0.000563   -0.001163
      4          1           0       -1.518403   -0.585123   -0.842970
      5          1           0       -1.518558    1.023886   -0.070223
 ---------------------------------------------------------------------

 SCF Done:  E(RHF) =  -496.689355754     A.U. after   11 cycles

 The electronic state is 1-A.
 Alpha  occ. eigenvalues -- -104.08773 -11.25001 -10.48163  -7.94537  -7.94133
 Alpha  occ. eigenvalues --   -7.94133  -1.11283  -0.93336  -0.63263  -0.63232
 Alpha  occ. eigenvalues --   -0.51318  -0.43746  -0.43706
 Alpha virt. eigenvalues --    0.16598   0.27332   0.31373   0.31385   0.73826
 Alpha virt. eigenvalues --    0.80583   0.80777   0.85504   0.93445   0.93877
 Alpha virt. eigenvalues --    0.99545   1.31214   1.31225   1.32205   1.91989

 Mulliken charges:
               1
     1  H    0.271002
     2  C   -0.702662
     3  Cl  -0.107055
     4  H    0.269381
     5  H    0.269333
 Sum of Mulliken charges =  -0.00000

 Dipole moment (field-independent basis, Debye):
    X=             -2.8659    Y=             -0.0075    Z=              0.0153  Tot=              2.8660
 Quadrupole moment (field-independent basis, Debye-Ang):
   XX=            -18.5699   YY=            -20.1812   ZZ=            -20.1812
   XY=             -0.0210   XZ=              0.0437   YZ=             -0.0005

 Normal termination of Gaussian 16 at Fri Sep 22 17:14:37 2023.
