 Gaussian 16, Revision A.03,
 Gaussian 16:  ES64L-G16RevA.03 25-Dec-2016

 ----------
 # hf/3-21g
 ----------

 ------------------------
 tmpdir/M2_conf_243_7.gjf
 ------------------------
 Symbolic Z-matrix:
 Charge =  0 Multiplicity = 1

                         Standard orientation:
 ---------------------------------------------------------------------
 Center     Atomic      Atomic             Coordinates (Angstroms)
 Number     Number       Type             X           Y           Z
 ---------------------------------------------------------------------
      1          1           0        0.425268   -0.229889    0.957967
      2          6           0        0.022942    0.016626   -0.006388
      3          1           0        0.631003   -0.483417   -0.736340
      4          1           0       -0.097546    1.074449   -0.143015
      5          1           0       -1.096378   -0.460901   -0.040285
 ---------------------------------------------------------------------

 SCF Done:  E(RHF) =  -39.9662785991     A.U. after    9 cycles

 The electronic state is 1-A.
 Alpha  occ. eigenvalues --  -11.15720  -0.93802  -0.56494  -0.54484  -0.50508
 Alpha virt. eigenvalues --    0.28272   0.32327   0.35245   0.36028   0.90985
 Alpha virt. eigenvalues --    0.92783   0.97973   1.24913   1.32709   1.35888
 Alpha virt. eigenvalues --    1.37904   1.94480

 Mulliken charges:
               1
     1  H    0.205076
     2  C   -0.771520
     3  H    0.206200
     4  H    0.207357
     5  H    0.152887
 Sum of Mulliken charges =  -0.00000

 Dipole moment (field-independent basis, Debye):
    X=              0.0886    Y=              0.0130    Z=              0.0344  Tot=              0.0959
 Quadrupole moment (field-independent basis, Debye-Ang):
   XX=             -8.4918   YY=             -8.3589   ZZ=             -8.5830
   XY=             -0.1726   XZ=             -0.0219   YZ=             -0.0065

 Normal termination of Gaussian 16 at Fri Sep 22 17:20:17 2023.
