 Gaussian 16, Revision A.03,
 Gaussian 16:  ES64L-G16RevA.03 25-Dec-2016

 ----------
 # hf/3-21g
 ----------

 ------------------------
 tmpdir/M2_conf_226_0.gjf
 ------------------------
 Symbolic Z-matrix:
 Charge =  0 Multiplicity = 1

                         Standard orientation:
 ---------------------------------------------------------------------
 Center     Atomic      Atomic             Coordinates (Angstroms)
 Number     Number       Type             X           Y           Z
 ---------------------------------------------------------------------
      1          6           0       -0.032211    0.000055    0.009148
      2          1           0       -0.192516   -0.002111    1.017583
      3          1           0       -0.392404    0.894885   -0.462197
      4          1           0       -0.397355   -0.890487   -0.466465
      5          1           0        1.175543   -0.002619   -0.143807
 ---------------------------------------------------------------------

 SCF Done:  E(RHF) =  -39.9643083400     A.U. after    9 cycles

 The electronic state is 1-A.
 Alpha  occ. eigenvalues --  -11.15115  -0.94420  -0.56783  -0.55562  -0.50286
 Alpha virt. eigenvalues --    0.28466   0.32492   0.35683   0.36841   0.89535
 Alpha virt. eigenvalues --    0.92048   0.97550   1.25280   1.33725   1.37044
 Alpha virt. eigenvalues --    1.41461   1.95377

 Mulliken charges:
               1
     1  C   -0.777067
     2  H    0.219178
     3  H    0.204404
     4  H    0.204399
     5  H    0.149087
 Sum of Mulliken charges =   0.00000

 Dipole moment (field-independent basis, Debye):
    X=             -0.0802    Y=              0.0002    Z=              0.0390  Tot=              0.0892
 Quadrupole moment (field-independent basis, Debye-Ang):
   XX=             -8.6018   YY=             -8.3377   ZZ=             -8.3827
   XY=              0.0012   XZ=              0.0359   YZ=             -0.0004

 Normal termination of Gaussian 16 at Fri Sep 22 17:19:52 2023.
