 Gaussian 16, Revision A.03,
 Gaussian 16:  ES64L-G16RevA.03 25-Dec-2016

 ----------
 # hf/3-21g
 ----------

 ------------------------
 tmpdir/M2_conf_126_6.gjf
 ------------------------
 Symbolic Z-matrix:
 Charge =  0 Multiplicity = 1

                         Standard orientation:
 ---------------------------------------------------------------------
 Center     Atomic      Atomic             Coordinates (Angstroms)
 Number     Number       Type             X           Y           Z
 ---------------------------------------------------------------------
      1          1           0       -1.282606   -0.005394    1.065671
      2          6           0       -1.203110    0.000041   -0.004767
      3         17           0        0.688782    0.000032   -0.008493
      4          1           0       -1.603802    0.894979   -0.441968
      5          1           0       -1.604223   -0.890380   -0.450713
 ---------------------------------------------------------------------

 SCF Done:  E(RHF) =  -496.683394511     A.U. after   11 cycles

 The electronic state is 1-A.
 Alpha  occ. eigenvalues -- -104.08834 -11.24978 -10.48227  -7.94600  -7.94196
 Alpha  occ. eigenvalues --   -7.94194  -1.11440  -0.93294  -0.63503  -0.63185
 Alpha  occ. eigenvalues --   -0.51108  -0.43897  -0.43487
 Alpha virt. eigenvalues --    0.16233   0.27369   0.31381   0.31447   0.73903
 Alpha virt. eigenvalues --    0.80032   0.81055   0.85642   0.92479   0.95105
 Alpha virt. eigenvalues --    1.00200   1.30648   1.31169   1.32381   1.91087

 Mulliken charges:
               1
     1  H    0.277616
     2  C   -0.704315
     3  Cl  -0.107278
     4  H    0.266998
     5  H    0.266980
 Sum of Mulliken charges =  -0.00000

 Dipole moment (field-independent basis, Debye):
    X=             -2.8469    Y=             -0.0006    Z=              0.1207  Tot=              2.8495
 Quadrupole moment (field-independent basis, Debye-Ang):
   XX=            -18.5516   YY=            -20.1826   ZZ=            -20.2559
   XY=             -0.0011   XZ=              0.3167   YZ=             -0.0001

 Normal termination of Gaussian 16 at Fri Sep 22 17:17:16 2023.
