 Gaussian 16, Revision A.03,
 Gaussian 16:  ES64L-G16RevA.03 25-Dec-2016

 ----------
 # hf/3-21g
 ----------

 ------------------------
 tmpdir/M2_conf_211_2.gjf
 ------------------------
 Symbolic Z-matrix:
 Charge =  0 Multiplicity = 1

                         Standard orientation:
 ---------------------------------------------------------------------
 Center     Atomic      Atomic             Coordinates (Angstroms)
 Number     Number       Type             X           Y           Z
 ---------------------------------------------------------------------
      1          6           0        0.032267    0.000014    0.011970
      2          1           0        0.165901   -0.003347    1.003600
      3          1           0        0.408133   -0.889974   -0.455841
      4          1           0        0.403850    0.895172   -0.449809
      5          1           0       -1.171487   -0.001933   -0.169770
 ---------------------------------------------------------------------

 SCF Done:  E(RHF) =  -39.9619139087     A.U. after    9 cycles

 The electronic state is 1-A.
 Alpha  occ. eigenvalues --  -11.14876  -0.94707  -0.57239  -0.55537  -0.50288
 Alpha virt. eigenvalues --    0.28510   0.32563   0.35684   0.37315   0.88599
 Alpha virt. eigenvalues --    0.92091   0.97551   1.25348   1.34004   1.37088
 Alpha virt. eigenvalues --    1.43665   1.95730

 Mulliken charges:
               1
     1  C   -0.779098
     2  H    0.223797
     3  H    0.203596
     4  H    0.203551
     5  H    0.148154
 Sum of Mulliken charges =  -0.00000

 Dipole moment (field-independent basis, Debye):
    X=              0.0827    Y=             -0.0001    Z=              0.0510  Tot=              0.0972
 Quadrupole moment (field-independent basis, Debye-Ang):
   XX=             -8.5793   YY=             -8.3168   ZZ=             -8.3789
   XY=             -0.0011   XZ=             -0.0415   YZ=             -0.0005

 Normal termination of Gaussian 16 at Fri Sep 22 17:19:29 2023.
