 Gaussian 16, Revision A.03,
 Gaussian 16:  ES64L-G16RevA.03 25-Dec-2016

 ----------
 # hf/3-21g
 ----------

 -----------------------
 tmpdir/M2_conf_20_1.gjf
 -----------------------
 Symbolic Z-matrix:
 Charge =  0 Multiplicity = 1

                         Standard orientation:
 ---------------------------------------------------------------------
 Center     Atomic      Atomic             Coordinates (Angstroms)
 Number     Number       Type             X           Y           Z
 ---------------------------------------------------------------------
      1          6           0       -0.032098   -0.000060    0.005766
      2          1           0       -0.232933   -0.004850    1.029950
      3          1           0       -0.376468   -0.890681   -0.484524
      4          1           0       -0.378421    0.894245   -0.476815
      5          1           0        1.180411    0.001649   -0.103206
 ---------------------------------------------------------------------

 SCF Done:  E(RHF) =  -39.9660094984     A.U. after    9 cycles

 The electronic state is 1-A.
 Alpha  occ. eigenvalues --  -11.15376  -0.94130  -0.56291  -0.55591  -0.50282
 Alpha virt. eigenvalues --    0.28410   0.32399   0.35685   0.36331   0.90573
 Alpha virt. eigenvalues --    0.91982   0.97565   1.25198   1.33334   1.37006
 Alpha virt. eigenvalues --    1.39273   1.95042

 Mulliken charges:
               1
     1  C   -0.774561
     2  H    0.213842
     3  H    0.205349
     4  H    0.205294
     5  H    0.150076
 Sum of Mulliken charges =  -0.00000

 Dipole moment (field-independent basis, Debye):
    X=             -0.0770    Y=             -0.0003    Z=              0.0238  Tot=              0.0806
 Quadrupole moment (field-independent basis, Debye-Ang):
   XX=             -8.6261   YY=             -8.3612   ZZ=             -8.3851
   XY=             -0.0005   XZ=              0.0269   YZ=             -0.0001

 Normal termination of Gaussian 16 at Fri Sep 22 17:14:37 2023.
