 Gaussian 16, Revision A.03,
 Gaussian 16:  ES64L-G16RevA.03 25-Dec-2016

 ----------
 # hf/3-21g
 ----------

 ------------------------
 tmpdir/M2_conf_133_5.gjf
 ------------------------
 Symbolic Z-matrix:
 Charge =  0 Multiplicity = 1

                         Standard orientation:
 ---------------------------------------------------------------------
 Center     Atomic      Atomic             Coordinates (Angstroms)
 Number     Number       Type             X           Y           Z
 ---------------------------------------------------------------------
      1          1           0        1.071004    0.014485   -0.291483
      2          6           0        0.029998   -0.029702   -0.033528
      3          1           0       -0.823548   -0.174405   -0.668457
      4          1           0       -0.168388   -0.730195    0.755498
      5          1           0       -0.259054    1.068326    0.405611
 ---------------------------------------------------------------------

 SCF Done:  E(RHF) =  -39.9556880294     A.U. after    9 cycles

 The electronic state is 1-A.
 Alpha  occ. eigenvalues --  -11.15783  -0.93970  -0.58784  -0.53478  -0.48839
 Alpha virt. eigenvalues --    0.28262   0.31007   0.34723   0.36868   0.90054
 Alpha virt. eigenvalues --    0.96752   0.97301   1.25334   1.30998   1.35239
 Alpha virt. eigenvalues --    1.40503   1.94415

 Mulliken charges:
               1
     1  H    0.216824
     2  C   -0.789898
     3  H    0.218223
     4  H    0.206405
     5  H    0.148447
 Sum of Mulliken charges =  -0.00000

 Dipole moment (field-independent basis, Debye):
    X=             -0.0745    Y=             -0.0641    Z=              0.0407  Tot=              0.1064
 Quadrupole moment (field-independent basis, Debye-Ang):
   XX=             -7.8402   YY=             -8.6749   ZZ=             -8.9718
   XY=              0.1022   XZ=              0.0254   YZ=             -0.1587

 Normal termination of Gaussian 16 at Fri Sep 22 17:17:26 2023.
