 Gaussian 16, Revision A.03,
 Gaussian 16:  ES64L-G16RevA.03 25-Dec-2016

 ----------
 # hf/3-21g
 ----------

 ------------------------
 tmpdir/M2_conf_283_2.gjf
 ------------------------
 Symbolic Z-matrix:
 Charge =  0 Multiplicity = 1

                         Standard orientation:
 ---------------------------------------------------------------------
 Center     Atomic      Atomic             Coordinates (Angstroms)
 Number     Number       Type             X           Y           Z
 ---------------------------------------------------------------------
      1          6           0        0.032276    0.000013    0.013846
      2          1           0        0.150693   -0.002770    0.992806
      3          1           0        0.414375   -0.890264   -0.448328
      4          1           0        0.410177    0.894885   -0.443339
      5          1           0       -1.168900   -0.001931   -0.184218
 ---------------------------------------------------------------------

 SCF Done:  E(RHF) =  -39.9596778134     A.U. after    9 cycles

 The electronic state is 1-A.
 Alpha  occ. eigenvalues --  -11.14710  -0.94920  -0.57561  -0.55520  -0.50289
 Alpha virt. eigenvalues --    0.28536   0.32605   0.35683   0.37651   0.87943
 Alpha virt. eigenvalues --    0.92127   0.97560   1.25392   1.34161   1.37111
 Alpha virt. eigenvalues --    1.45321   1.96011

 Mulliken charges:
               1
     1  C   -0.780341
     2  H    0.226941
     3  H    0.202978
     4  H    0.202933
     5  H    0.147489
 Sum of Mulliken charges =   0.00000

 Dipole moment (field-independent basis, Debye):
    X=              0.0842    Y=             -0.0001    Z=              0.0590  Tot=              0.1028
 Quadrupole moment (field-independent basis, Debye-Ang):
   XX=             -8.5632   YY=             -8.3017   ZZ=             -8.3763
   XY=             -0.0011   XZ=             -0.0446   YZ=             -0.0005

 Normal termination of Gaussian 16 at Fri Sep 22 17:21:18 2023.
