 Gaussian 16, Revision A.03,
 Gaussian 16:  ES64L-G16RevA.03 25-Dec-2016

 ----------
 # hf/3-21g
 ----------

 -----------------------
 tmpdir/M2_conf_32_7.gjf
 -----------------------
 Symbolic Z-matrix:
 Charge =  0 Multiplicity = 1

                         Standard orientation:
 ---------------------------------------------------------------------
 Center     Atomic      Atomic             Coordinates (Angstroms)
 Number     Number       Type             X           Y           Z
 ---------------------------------------------------------------------
      1          1           0        0.474095   -0.162336    0.941740
      2          6           0        0.015153    0.022654   -0.011029
      3          1           0        0.736107   -0.351373   -0.713128
      4          1           0       -0.310138    1.039781   -0.119717
      5          1           0       -0.990984   -0.661995   -0.042724
 ---------------------------------------------------------------------

 SCF Done:  E(RHF) =  -39.9647394997     A.U. after    9 cycles

 The electronic state is 1-A.
 Alpha  occ. eigenvalues --  -11.15720  -0.93844  -0.57040  -0.53737  -0.50624
 Alpha virt. eigenvalues --    0.28225   0.32340   0.34964   0.36209   0.90554
 Alpha virt. eigenvalues --    0.93317   0.98274   1.24815   1.32719   1.35309
 Alpha virt. eigenvalues --    1.38606   1.94258

 Mulliken charges:
               1
     1  H    0.204439
     2  C   -0.773333
     3  H    0.206677
     4  H    0.208199
     5  H    0.154017
 Sum of Mulliken charges =   0.00000

 Dipole moment (field-independent basis, Debye):
    X=              0.1026    Y=              0.0223    Z=              0.0566  Tot=              0.1193
 Quadrupole moment (field-independent basis, Debye-Ang):
   XX=             -8.3269   YY=             -8.4014   ZZ=             -8.7068
   XY=             -0.2222   XZ=             -0.0243   YZ=             -0.0115

 Normal termination of Gaussian 16 at Fri Sep 22 17:14:55 2023.
