 Gaussian 16, Revision A.03,
 Gaussian 16:  ES64L-G16RevA.03 25-Dec-2016

 ----------
 # hf/3-21g
 ----------

 ------------------------
 tmpdir/M2_conf_262_6.gjf
 ------------------------
 Symbolic Z-matrix:
 Charge =  0 Multiplicity = 1

                         Standard orientation:
 ---------------------------------------------------------------------
 Center     Atomic      Atomic             Coordinates (Angstroms)
 Number     Number       Type             X           Y           Z
 ---------------------------------------------------------------------
      1          1           0       -1.231254   -0.003800    1.066975
      2          6           0       -1.203497    0.000038   -0.006059
      3         17           0        0.688395    0.000026   -0.010298
      4          1           0       -1.625036    0.894247   -0.424755
      5          1           0       -1.625440   -0.891123   -0.430801
 ---------------------------------------------------------------------

 SCF Done:  E(RHF) =  -496.680143410     A.U. after   11 cycles

 The electronic state is 1-A.
 Alpha  occ. eigenvalues -- -104.08869 -11.24962 -10.48265  -7.94638  -7.94233
 Alpha  occ. eigenvalues --   -7.94230  -1.11530  -0.93271  -0.63613  -0.63173
 Alpha  occ. eigenvalues --   -0.51009  -0.43954  -0.43391
 Alpha virt. eigenvalues --    0.16049   0.27398   0.31393   0.31470   0.73941
 Alpha virt. eigenvalues --    0.79884   0.81050   0.85632   0.92428   0.95414
 Alpha virt. eigenvalues --    1.00469   1.30413   1.31164   1.32373   1.90607

 Mulliken charges:
               1
     1  H    0.279338
     2  C   -0.704941
     3  Cl  -0.107591
     4  H    0.266605
     5  H    0.266588
 Sum of Mulliken charges =  -0.00000

 Dipole moment (field-independent basis, Debye):
    X=             -2.8361    Y=             -0.0005    Z=              0.1497  Tot=              2.8400
 Quadrupole moment (field-independent basis, Debye-Ang):
   XX=            -18.5435   YY=            -20.1825   ZZ=            -20.2957
   XY=             -0.0009   XZ=              0.3838   YZ=             -0.0001

 Normal termination of Gaussian 16 at Fri Sep 22 17:20:47 2023.
