 Gaussian 16, Revision A.03,
 Gaussian 16:  ES64L-G16RevA.03 25-Dec-2016

 ----------
 # hf/3-21g
 ----------

 ------------------------
 tmpdir/M2_conf_139_6.gjf
 ------------------------
 Symbolic Z-matrix:
 Charge =  0 Multiplicity = 1

                         Standard orientation:
 ---------------------------------------------------------------------
 Center     Atomic      Atomic             Coordinates (Angstroms)
 Number     Number       Type             X           Y           Z
 ---------------------------------------------------------------------
      1          1           0       -1.309503   -0.006719    1.063946
      2          6           0       -1.202939    0.000043   -0.004130
      3         17           0        0.688953    0.000037   -0.007515
      4          1           0       -1.592322    0.895592   -0.450207
      5          1           0       -1.592751   -0.889754   -0.461202
 ---------------------------------------------------------------------

 SCF Done:  E(RHF) =  -496.684807703     A.U. after   11 cycles

 The electronic state is 1-A.
 Alpha  occ. eigenvalues -- -104.08819 -11.24984 -10.48211  -7.94584  -7.94180
 Alpha  occ. eigenvalues --   -7.94179  -1.11402  -0.93304  -0.63453  -0.63191
 Alpha  occ. eigenvalues --   -0.51154  -0.43870  -0.43530
 Alpha virt. eigenvalues --    0.16315   0.27357   0.31376   0.31436   0.73886
 Alpha virt. eigenvalues --    0.80109   0.81045   0.85632   0.92549   0.94939
 Alpha virt. eigenvalues --    1.00070   1.30761   1.31173   1.32372   1.91300

 Mulliken charges:
               1
     1  H    0.276696
     2  C   -0.703999
     3  Cl  -0.107172
     4  H    0.267247
     5  H    0.267228
 Sum of Mulliken charges =  -0.00000

 Dipole moment (field-independent basis, Debye):
    X=             -2.8515    Y=             -0.0006    Z=              0.1056  Tot=              2.8535
 Quadrupole moment (field-independent basis, Debye-Ang):
   XX=            -18.5555   YY=            -20.1826   ZZ=            -20.2384
   XY=             -0.0013   XZ=              0.2802   YZ=             -0.0001

 Normal termination of Gaussian 16 at Fri Sep 22 17:17:35 2023.
