 Gaussian 16, Revision A.03,
 Gaussian 16:  ES64L-G16RevA.03 25-Dec-2016

 ----------
 # hf/3-21g
 ----------

 ------------------------
 tmpdir/M2_conf_210_9.gjf
 ------------------------
 Symbolic Z-matrix:
 Charge =  0 Multiplicity = 1

                         Standard orientation:
 ---------------------------------------------------------------------
 Center     Atomic      Atomic             Coordinates (Angstroms)
 Number     Number       Type             X           Y           Z
 ---------------------------------------------------------------------
      1          1           0        1.048579   -0.002512    1.050316
      2          6           0        1.205513    0.000027   -0.011749
      3         17           0       -0.686383    0.000036   -0.015891
      4          1           0        1.693471   -0.891671   -0.356666
      5          1           0        1.693388    0.893405   -0.353008
 ---------------------------------------------------------------------

 SCF Done:  E(RHF) =  -496.661995950     A.U. after   11 cycles

 The electronic state is 1-A.
 Alpha  occ. eigenvalues -- -104.09086 -11.24841 -10.48507  -7.94875  -7.94467
 Alpha  occ. eigenvalues --   -7.94458  -1.12074  -0.93142  -0.64150  -0.63123
 Alpha  occ. eigenvalues --   -0.50619  -0.44245  -0.42850
 Alpha virt. eigenvalues --    0.15149   0.27632   0.31469   0.31580   0.74092
 Alpha virt. eigenvalues --    0.79341   0.80845   0.85224   0.93041   0.96421
 Alpha virt. eigenvalues --    1.01500   1.29351   1.31194   1.32101   1.88191

 Mulliken charges:
               1
     1  H    0.285068
     2  C   -0.707275
     3  Cl  -0.109997
     4  H    0.266117
     5  H    0.266087
 Sum of Mulliken charges =  -0.00000

 Dipole moment (field-independent basis, Debye):
    X=              2.7695    Y=             -0.0007    Z=              0.2563  Tot=              2.7813
 Quadrupole moment (field-independent basis, Debye-Ang):
   XX=            -18.5166   YY=            -20.1782   ZZ=            -20.5025
   XY=              0.0012   XZ=             -0.5894   YZ=             -0.0001

 Normal termination of Gaussian 16 at Fri Sep 22 17:19:27 2023.
