 Gaussian 16, Revision A.03,
 Gaussian 16:  ES64L-G16RevA.03 25-Dec-2016

 ----------
 # hf/3-21g
 ----------

 ------------------------
 tmpdir/M2_conf_255_4.gjf
 ------------------------
 Symbolic Z-matrix:
 Charge =  0 Multiplicity = 1

                         Standard orientation:
 ---------------------------------------------------------------------
 Center     Atomic      Atomic             Coordinates (Angstroms)
 Number     Number       Type             X           Y           Z
 ---------------------------------------------------------------------
      1          1           0       -0.826026    0.626485   -0.347842
      2          6           0       -0.031728   -0.014646   -0.015835
      3          1           0        0.408723   -0.699455   -0.715587
      4          1           0       -0.286615   -0.556140    0.875468
      5          1           0        0.894285    0.716986    0.282973
 ---------------------------------------------------------------------

 SCF Done:  E(RHF) =  -39.9650269891     A.U. after    9 cycles

 The electronic state is 1-A.
 Alpha  occ. eigenvalues --  -11.15741  -0.93803  -0.56891  -0.54713  -0.49883
 Alpha virt. eigenvalues --    0.28331   0.31963   0.35270   0.36169   0.91023
 Alpha virt. eigenvalues --    0.93388   0.97411   1.25232   1.31956   1.36095
 Alpha virt. eigenvalues --    1.38225   1.94645

 Mulliken charges:
               1
     1  H    0.209026
     2  C   -0.773748
     3  H    0.208688
     4  H    0.206041
     5  H    0.149992
 Sum of Mulliken charges =  -0.00000

 Dipole moment (field-independent basis, Debye):
    X=             -0.0240    Y=             -0.0617    Z=              0.0080  Tot=              0.0667
 Quadrupole moment (field-independent basis, Debye-Ang):
   XX=             -8.4480   YY=             -8.4025   ZZ=             -8.6000
   XY=             -0.2482   XZ=             -0.0861   YZ=             -0.0748

 Normal termination of Gaussian 16 at Fri Sep 22 17:20:36 2023.
