 Gaussian 16, Revision A.03,
 Gaussian 16:  ES64L-G16RevA.03 25-Dec-2016

 ----------
 # hf/3-21g
 ----------

 -----------------------
 tmpdir/M2_conf_58_5.gjf
 -----------------------
 Symbolic Z-matrix:
 Charge =  0 Multiplicity = 1

                         Standard orientation:
 ---------------------------------------------------------------------
 Center     Atomic      Atomic             Coordinates (Angstroms)
 Number     Number       Type             X           Y           Z
 ---------------------------------------------------------------------
      1          1           0       -0.531230   -0.094573    0.905664
      2          6           0       -0.002349    0.027217   -0.020424
      3          1           0       -0.825080   -0.210281   -0.667983
      4          1           0        0.507127    0.970241   -0.081653
      5          1           0        0.863279   -0.828690   -0.033481
 ---------------------------------------------------------------------

 SCF Done:  E(RHF) =  -39.9592290692     A.U. after    9 cycles

 The electronic state is 1-A.
 Alpha  occ. eigenvalues --  -11.15732  -0.93990  -0.58112  -0.52234  -0.50790
 Alpha virt. eigenvalues --    0.28087   0.32289   0.34421   0.36471   0.90028
 Alpha virt. eigenvalues --    0.94216   0.99100   1.24613   1.32220   1.34529
 Alpha virt. eigenvalues --    1.40132   1.93483

 Mulliken charges:
               1
     1  H    0.203155
     2  C   -0.778597
     3  H    0.208358
     4  H    0.210479
     5  H    0.156605
 Sum of Mulliken charges =   0.00000

 Dipole moment (field-independent basis, Debye):
    X=             -0.1405    Y=              0.0309    Z=              0.1050  Tot=              0.1781
 Quadrupole moment (field-independent basis, Debye-Ang):
   XX=             -8.0450   YY=             -8.4466   ZZ=             -8.9564
   XY=              0.2381   XZ=              0.0237   YZ=             -0.0146

 Normal termination of Gaussian 16 at Fri Sep 22 17:15:34 2023.
