 Gaussian 16, Revision A.03,
 Gaussian 16:  ES64L-G16RevA.03 25-Dec-2016

 ----------
 # hf/3-21g
 ----------

 ------------------------
 tmpdir/M2_conf_254_8.gjf
 ------------------------
 Symbolic Z-matrix:
 Charge =  0 Multiplicity = 1

                         Standard orientation:
 ---------------------------------------------------------------------
 Center     Atomic      Atomic             Coordinates (Angstroms)
 Number     Number       Type             X           Y           Z
 ---------------------------------------------------------------------
      1          1           0        0.518944    0.000049    0.768002
      2          6           0        1.217933    0.000018   -0.046879
      3         17           0       -0.673765   -0.000010   -0.019552
      4          1           0        1.813551    0.892486   -0.077189
      5          1           0        1.813901   -0.892464   -0.077151
 ---------------------------------------------------------------------

 SCF Done:  E(RHF) =  -496.509059962     A.U. after   12 cycles

 The electronic state is 1-A.
 Alpha  occ. eigenvalues -- -104.11845 -11.22085 -10.51829  -7.98193  -7.97686
 Alpha  occ. eigenvalues --   -7.97618  -1.19175  -0.91677  -0.67373  -0.62017
 Alpha  occ. eigenvalues --   -0.52071  -0.47204  -0.36845
 Alpha virt. eigenvalues --    0.11085   0.31116   0.32784   0.33520   0.73444
 Alpha virt. eigenvalues --    0.76835   0.79265   0.83479   0.91370   0.98675
 Alpha virt. eigenvalues --    1.04166   1.20163   1.31841   1.32630   1.80988

 Mulliken charges:
               1
     1  H    0.290307
     2  C   -0.755381
     3  Cl  -0.076351
     4  H    0.270731
     5  H    0.270694
 Sum of Mulliken charges =  -0.00000

 Dipole moment (field-independent basis, Debye):
    X=              1.7416    Y=              0.0001    Z=              0.7124  Tot=              1.8817
 Quadrupole moment (field-independent basis, Debye-Ang):
   XX=            -18.9167   YY=            -19.9838   ZZ=            -21.6380
   XY=             -0.0003   XZ=             -0.3966   YZ=              0.0000

 Normal termination of Gaussian 16 at Fri Sep 22 17:20:35 2023.
