 Gaussian 16, Revision A.03,
 Gaussian 16:  ES64L-G16RevA.03 25-Dec-2016

 ----------
 # hf/3-21g
 ----------

 ------------------------
 tmpdir/M2_conf_103_0.gjf
 ------------------------
 Symbolic Z-matrix:
 Charge =  0 Multiplicity = 1

                         Standard orientation:
 ---------------------------------------------------------------------
 Center     Atomic      Atomic             Coordinates (Angstroms)
 Number     Number       Type             X           Y           Z
 ---------------------------------------------------------------------
      1          6           0       -0.032258    0.000055    0.014881
      2          1           0       -0.142436   -0.001119    0.986453
      3          1           0       -0.413312    0.894391   -0.440734
      4          1           0       -0.418154   -0.890985   -0.443089
      5          1           0        1.167450   -0.002617   -0.191917
 ---------------------------------------------------------------------

 SCF Done:  E(RHF) =  -39.9581789278     A.U. after    9 cycles

 The electronic state is 1-A.
 Alpha  occ. eigenvalues --  -11.14619  -0.95044  -0.57741  -0.55509  -0.50289
 Alpha virt. eigenvalues --    0.28550   0.32625   0.35680   0.37843   0.87570
 Alpha virt. eigenvalues --    0.92156   0.97570   1.25415   1.34231   1.37115
 Alpha virt. eigenvalues --    1.46300   1.96184

 Mulliken charges:
               1
     1  C   -0.780959
     2  H    0.228703
     3  H    0.202576
     4  H    0.202569
     5  H    0.147110
 Sum of Mulliken charges =  -0.00000

 Dipole moment (field-independent basis, Debye):
    X=             -0.0850    Y=              0.0002    Z=              0.0636  Tot=              0.1061
 Quadrupole moment (field-independent basis, Debye-Ang):
   XX=             -8.5539   YY=             -8.2929   ZZ=             -8.3753
   XY=              0.0011   XZ=              0.0464   YZ=             -0.0004

 Normal termination of Gaussian 16 at Fri Sep 22 17:16:41 2023.
