 Gaussian 16, Revision A.03,
 Gaussian 16:  ES64L-G16RevA.03 25-Dec-2016

 ----------
 # hf/3-21g
 ----------

 -----------------------
 tmpdir/M2_conf_70_6.gjf
 -----------------------
 Symbolic Z-matrix:
 Charge =  0 Multiplicity = 1

                         Standard orientation:
 ---------------------------------------------------------------------
 Center     Atomic      Atomic             Coordinates (Angstroms)
 Number     Number       Type             X           Y           Z
 ---------------------------------------------------------------------
      1          1           0       -1.445630   -0.052125    1.043007
      2          6           0       -1.202411    0.000078   -0.001171
      3         17           0        0.689489    0.000102   -0.002288
      4          1           0       -1.530378    0.916543   -0.454095
      5          1           0       -1.530847   -0.866622   -0.542991
 ---------------------------------------------------------------------

 SCF Done:  E(RHF) =  -496.689078420     A.U. after   11 cycles

 The electronic state is 1-A.
 Alpha  occ. eigenvalues -- -104.08776 -11.25000 -10.48166  -7.94540  -7.94136
 Alpha  occ. eigenvalues --   -7.94136  -1.11290  -0.93334  -0.63278  -0.63226
 Alpha  occ. eigenvalues --   -0.51308  -0.43762  -0.43687
 Alpha virt. eigenvalues --    0.16579   0.27333   0.31371   0.31390   0.73830
 Alpha virt. eigenvalues --    0.80509   0.80840   0.85517   0.93263   0.94058
 Alpha virt. eigenvalues --    0.99586   1.31185   1.31205   1.32234   1.91948

 Mulliken charges:
               1
     1  H    0.271922
     2  C   -0.702770
     3  Cl  -0.107041
     4  H    0.268955
     5  H    0.268934
 Sum of Mulliken charges =  -0.00000

 Dipole moment (field-independent basis, Debye):
    X=             -2.8651    Y=             -0.0015    Z=              0.0307  Tot=              2.8653
 Quadrupole moment (field-independent basis, Debye-Ang):
   XX=            -18.5688   YY=            -20.1810   ZZ=            -20.1852
   XY=             -0.0037   XZ=              0.0852   YZ=             -0.0002

 Normal termination of Gaussian 16 at Fri Sep 22 17:15:52 2023.
