 Gaussian 16, Revision A.03,
 Gaussian 16:  ES64L-G16RevA.03 25-Dec-2016

 ----------
 # hf/3-21g
 ----------

 ------------------------
 tmpdir/M2_conf_219_0.gjf
 ------------------------
 Symbolic Z-matrix:
 Charge =  0 Multiplicity = 1

                         Standard orientation:
 ---------------------------------------------------------------------
 Center     Atomic      Atomic             Coordinates (Angstroms)
 Number     Number       Type             X           Y           Z
 ---------------------------------------------------------------------
      1          6           0       -0.031545   -0.000736   -0.000052
      2          1           0       -0.346978    1.027798   -0.041126
      3          1           0       -0.322142   -0.554749   -0.872547
      4          1           0       -0.327349   -0.484737    0.911456
      5          1           0        1.185740    0.016106    0.002530
 ---------------------------------------------------------------------

 SCF Done:  E(RHF) =  -39.9669708778     A.U. after    9 cycles

 The electronic state is 1-A.
 Alpha  occ. eigenvalues --  -11.15763  -0.93740  -0.55642  -0.55568  -0.50268
 Alpha virt. eigenvalues --    0.28307   0.32209   0.35622   0.35686   0.91917
 Alpha virt. eigenvalues --    0.92053   0.97650   1.25052   1.32325   1.36745
 Alpha virt. eigenvalues --    1.36929   1.94611

 Mulliken charges:
               1
     1  C   -0.770232
     2  H    0.205661
     3  H    0.206542
     4  H    0.206538
     5  H    0.151490
 Sum of Mulliken charges =  -0.00000

 Dipole moment (field-independent basis, Debye):
    X=             -0.0699    Y=             -0.0027    Z=             -0.0001  Tot=              0.0700
 Quadrupole moment (field-independent basis, Debye-Ang):
   XX=             -8.6599   YY=             -8.3916   ZZ=             -8.3932
   XY=             -0.0044   XZ=             -0.0012   YZ=              0.0003

 Normal termination of Gaussian 16 at Fri Sep 22 17:19:41 2023.
