 Gaussian 16, Revision A.03,
 Gaussian 16:  ES64L-G16RevA.03 25-Dec-2016

 ----------
 # hf/3-21g
 ----------

 ------------------------
 tmpdir/M2_conf_204_6.gjf
 ------------------------
 Symbolic Z-matrix:
 Charge =  0 Multiplicity = 1

                         Standard orientation:
 ---------------------------------------------------------------------
 Center     Atomic      Atomic             Coordinates (Angstroms)
 Number     Number       Type             X           Y           Z
 ---------------------------------------------------------------------
      1          1           0       -1.250668   -0.004299    1.066789
      2          6           0       -1.203346    0.000039   -0.005558
      3         17           0        0.688553    0.000028   -0.009626
      4          1           0       -1.617120    0.894475   -0.431453
      5          1           0       -1.617531   -0.890892   -0.438343
 ---------------------------------------------------------------------

 SCF Done:  E(RHF) =  -496.681459377     A.U. after   11 cycles

 The electronic state is 1-A.
 Alpha  occ. eigenvalues -- -104.08855 -11.24969 -10.48250  -7.94622  -7.94217
 Alpha  occ. eigenvalues --   -7.94215  -1.11493  -0.93280  -0.63570  -0.63178
 Alpha  occ. eigenvalues --   -0.51048  -0.43931  -0.43429
 Alpha virt. eigenvalues --    0.16122   0.27386   0.31388   0.31461   0.73926
 Alpha virt. eigenvalues --    0.79940   0.81055   0.85641   0.92434   0.95298
 Alpha virt. eigenvalues --    1.00365   1.30505   1.31165   1.32380   1.90800

 Mulliken charges:
               1
     1  H    0.278692
     2  C   -0.704697
     3  Cl  -0.107459
     4  H    0.266741
     5  H    0.266723
 Sum of Mulliken charges =   0.00000

 Dipole moment (field-independent basis, Debye):
    X=             -2.8405    Y=             -0.0005    Z=              0.1387  Tot=              2.8439
 Quadrupole moment (field-independent basis, Debye-Ang):
   XX=            -18.5466   YY=            -20.1826   ZZ=            -20.2797
   XY=             -0.0010   XZ=              0.3588   YZ=             -0.0001

 Normal termination of Gaussian 16 at Fri Sep 22 17:19:18 2023.
