 Gaussian 16, Revision A.03,
 Gaussian 16:  ES64L-G16RevA.03 25-Dec-2016

 ----------
 # hf/3-21g
 ----------

 ------------------------
 tmpdir/M2_conf_164_9.gjf
 ------------------------
 Symbolic Z-matrix:
 Charge =  0 Multiplicity = 1

                         Standard orientation:
 ---------------------------------------------------------------------
 Center     Atomic      Atomic             Coordinates (Angstroms)
 Number     Number       Type             X           Y           Z
 ---------------------------------------------------------------------
      1          1           0        1.013110   -0.002168    1.043015
      2          6           0        1.206026    0.000025   -0.013108
      3         17           0       -0.685876    0.000034   -0.016795
      4          1           0        1.705344   -0.891816   -0.340975
      5          1           0        1.705284    0.893261   -0.337879
 ---------------------------------------------------------------------

 SCF Done:  E(RHF) =  -496.657102027     A.U. after   11 cycles

 The electronic state is 1-A.
 Alpha  occ. eigenvalues -- -104.09149 -11.24799 -10.48579  -7.94946  -7.94537
 Alpha  occ. eigenvalues --   -7.94526  -1.12231  -0.93106  -0.64281  -0.63108
 Alpha  occ. eigenvalues --   -0.50552  -0.44324  -0.42695
 Alpha virt. eigenvalues --    0.14933   0.27710   0.31493   0.31607   0.74120
 Alpha virt. eigenvalues --    0.79230   0.80783   0.85104   0.93246   0.96603
 Alpha virt. eigenvalues --    1.01695   1.29085   1.31209   1.32019   1.87619

 Mulliken charges:
               1
     1  H    0.286142
     2  C   -0.707794
     3  Cl  -0.110671
     4  H    0.266176
     5  H    0.266146
 Sum of Mulliken charges =  -0.00000

 Dipole moment (field-independent basis, Debye):
    X=              2.7498    Y=             -0.0006    Z=              0.2778  Tot=              2.7638
 Quadrupole moment (field-independent basis, Debye-Ang):
   XX=            -18.5139   YY=            -20.1761   ZZ=            -20.5544
   XY=              0.0011   XZ=             -0.6214   YZ=             -0.0001

 Normal termination of Gaussian 16 at Fri Sep 22 17:18:13 2023.
