 Gaussian 16, Revision A.03,
 Gaussian 16:  ES64L-G16RevA.03 25-Dec-2016

 ----------
 # hf/3-21g
 ----------

 ------------------------
 tmpdir/M2_conf_227_8.gjf
 ------------------------
 Symbolic Z-matrix:
 Charge =  0 Multiplicity = 1

                         Standard orientation:
 ---------------------------------------------------------------------
 Center     Atomic      Atomic             Coordinates (Angstroms)
 Number     Number       Type             X           Y           Z
 ---------------------------------------------------------------------
      1          1           0       -0.632668   -0.000111    0.866560
      2          6           0       -1.214257   -0.000015   -0.035865
      3         17           0        0.677587    0.000012   -0.021027
      4          1           0       -1.800215   -0.892471   -0.147011
      5          1           0       -1.800554    0.892479   -0.146901
 ---------------------------------------------------------------------

 SCF Done:  E(RHF) =  -496.561607780     A.U. after   12 cycles

 The electronic state is 1-A.
 Alpha  occ. eigenvalues -- -104.10688 -11.23327 -10.50445  -7.96799  -7.96345
 Alpha  occ. eigenvalues --   -7.96292  -1.16209  -0.92261  -0.66365  -0.62534
 Alpha  occ. eigenvalues --   -0.51095  -0.46085  -0.39002
 Alpha virt. eigenvalues --    0.12014   0.29828   0.32263   0.32367   0.73940
 Alpha virt. eigenvalues --    0.77637   0.80035   0.84511   0.93322   0.98237
 Alpha virt. eigenvalues --    1.03463   1.22791   1.31151   1.31937   1.81548

 Mulliken charges:
               1
     1  H    0.295188
     2  C   -0.729800
     3  Cl  -0.104207
     4  H    0.269429
     5  H    0.269390
 Sum of Mulliken charges =   0.00000

 Dipole moment (field-independent basis, Debye):
    X=             -2.1969    Y=             -0.0001    Z=              0.5644  Tot=              2.2682
 Quadrupole moment (field-independent basis, Debye-Ang):
   XX=            -18.7043   YY=            -20.0817   ZZ=            -21.3299
   XY=             -0.0003   XZ=              0.6437   YZ=              0.0000

 Normal termination of Gaussian 16 at Fri Sep 22 17:19:53 2023.
