 Gaussian 16, Revision A.03,
 Gaussian 16:  ES64L-G16RevA.03 25-Dec-2016

 ----------
 # hf/3-21g
 ----------

 ------------------------
 tmpdir/M2_conf_122_2.gjf
 ------------------------
 Symbolic Z-matrix:
 Charge =  0 Multiplicity = 1

                         Standard orientation:
 ---------------------------------------------------------------------
 Center     Atomic      Atomic             Coordinates (Angstroms)
 Number     Number       Type             X           Y           Z
 ---------------------------------------------------------------------
      1          6           0        0.031783    0.000018    0.001079
      2          1           0        0.312888   -0.047987    1.030613
      3          1           0        0.343431   -0.866613   -0.550307
      4          1           0        0.338407    0.916568   -0.466402
      5          1           0       -1.185424   -0.002075   -0.020376
 ---------------------------------------------------------------------

 SCF Done:  E(RHF) =  -39.9668819926     A.U. after    9 cycles

 The electronic state is 1-A.
 Alpha  occ. eigenvalues --  -11.15664  -0.93836  -0.55750  -0.55630  -0.50272
 Alpha virt. eigenvalues --    0.28336   0.32264   0.35688   0.35796   0.91684
 Alpha virt. eigenvalues --    0.91929   0.97618   1.25093   1.32649   1.36956
 Alpha virt. eigenvalues --    1.37291   1.94716

 Mulliken charges:
               1
     1  C   -0.771412
     2  H    0.207764
     3  H    0.206281
     4  H    0.206233
     5  H    0.151133
 Sum of Mulliken charges =  -0.00000

 Dipole moment (field-independent basis, Debye):
    X=              0.0722    Y=             -0.0001    Z=              0.0042  Tot=              0.0723
 Quadrupole moment (field-independent basis, Debye-Ang):
   XX=             -8.6521   YY=             -8.3851   ZZ=             -8.3892
   XY=             -0.0012   XZ=             -0.0048   YZ=             -0.0004

 Normal termination of Gaussian 16 at Fri Sep 22 17:17:09 2023.
