 Gaussian 16, Revision A.03,
 Gaussian 16:  ES64L-G16RevA.03 25-Dec-2016

 ----------
 # hf/3-21g
 ----------

 -----------------------
 tmpdir/M2_conf_30_9.gjf
 -----------------------
 Symbolic Z-matrix:
 Charge =  0 Multiplicity = 1

                         Standard orientation:
 ---------------------------------------------------------------------
 Center     Atomic      Atomic             Coordinates (Angstroms)
 Number     Number       Type             X           Y           Z
 ---------------------------------------------------------------------
      1          1           0        1.656110   -0.013973    0.976441
      2          6           0        1.202759   -0.000033    0.003356
      3         17           0       -0.689144   -0.000101    0.006265
      4          1           0        1.421605   -0.884509   -0.564099
      5          1           0        1.421178    0.900394   -0.538981
 ---------------------------------------------------------------------

 SCF Done:  E(RHF) =  -496.686460165     A.U. after   11 cycles

 The electronic state is 1-A.
 Alpha  occ. eigenvalues -- -104.08798 -11.24994 -10.48188  -7.94562  -7.94158
 Alpha  occ. eigenvalues --   -7.94158  -1.11352  -0.93315  -0.63317  -0.63278
 Alpha  occ. eigenvalues --   -0.51197  -0.43765  -0.43650
 Alpha virt. eigenvalues --    0.16391   0.27328   0.31362   0.31445   0.73861
 Alpha virt. eigenvalues --    0.80152   0.81177   0.85660   0.92554   0.94543
 Alpha virt. eigenvalues --    1.00116   1.30759   1.31298   1.32446   1.91597

 Mulliken charges:
               1
     1  H    0.264897
     2  C   -0.704259
     3  Cl  -0.106603
     4  H    0.272992
     5  H    0.272973
 Sum of Mulliken charges =  -0.00000

 Dipole moment (field-independent basis, Debye):
    X=              2.8575    Y=              0.0011    Z=             -0.0798  Tot=              2.8586
 Quadrupole moment (field-independent basis, Debye-Ang):
   XX=            -18.5582   YY=            -20.1772   ZZ=            -20.2239
   XY=             -0.0041   XZ=              0.2350   YZ=              0.0000

 Normal termination of Gaussian 16 at Fri Sep 22 17:14:52 2023.
