 Gaussian 16, Revision A.03,
 Gaussian 16:  ES64L-G16RevA.03 25-Dec-2016

 ----------
 # hf/3-21g
 ----------

 ------------------------
 tmpdir/M2_conf_229_7.gjf
 ------------------------
 Symbolic Z-matrix:
 Charge =  0 Multiplicity = 1

                         Standard orientation:
 ---------------------------------------------------------------------
 Center     Atomic      Atomic             Coordinates (Angstroms)
 Number     Number       Type             X           Y           Z
 ---------------------------------------------------------------------
      1          1           0       -1.078081    0.007423   -0.277739
      2          6           0       -0.032562   -0.029757   -0.036651
      3          1           0        0.836331   -0.154372   -0.654804
      4          1           0        0.185220   -0.739407    0.738682
      5          1           0        0.251901    1.064895    0.413770
 ---------------------------------------------------------------------

 SCF Done:  E(RHF) =  -39.9528482757     A.U. after    9 cycles

 The electronic state is 1-A.
 Alpha  occ. eigenvalues --  -11.15794  -0.94023  -0.59139  -0.53292  -0.48546
 Alpha virt. eigenvalues --    0.28234   0.30726   0.34652   0.36992   0.89943
 Alpha virt. eigenvalues --    0.97165   0.97734   1.25297   1.30810   1.35142
 Alpha virt. eigenvalues --    1.41007   1.94351

 Mulliken charges:
               1
     1  H    0.219027
     2  C   -0.794928
     3  H    0.221105
     4  H    0.206597
     5  H    0.148199
 Sum of Mulliken charges =  -0.00000

 Dipole moment (field-independent basis, Debye):
    X=              0.0868    Y=             -0.0643    Z=              0.0490  Tot=              0.1186
 Quadrupole moment (field-independent basis, Debye-Ang):
   XX=             -7.7677   YY=             -8.6812   ZZ=             -9.0475
   XY=             -0.0991   XZ=             -0.0241   YZ=             -0.1625

 Normal termination of Gaussian 16 at Fri Sep 22 17:19:56 2023.
