 Gaussian 16, Revision A.03,
 Gaussian 16:  ES64L-G16RevA.03 25-Dec-2016

 ----------
 # hf/3-21g
 ----------

 ------------------------
 tmpdir/M2_conf_144_9.gjf
 ------------------------
 Symbolic Z-matrix:
 Charge =  0 Multiplicity = 1

                         Standard orientation:
 ---------------------------------------------------------------------
 Center     Atomic      Atomic             Coordinates (Angstroms)
 Number     Number       Type             X           Y           Z
 ---------------------------------------------------------------------
      1          1           0        0.882670   -0.001339    1.004000
      2          6           0        1.208247    0.000019   -0.019043
      3         17           0       -0.683651    0.000027   -0.019484
      4          1           0        1.744947   -0.892157   -0.280139
      5          1           0        1.744971    0.892922   -0.278381
 ---------------------------------------------------------------------

 SCF Done:  E(RHF) =  -496.634337556     A.U. after   11 cycles

 The electronic state is 1-A.
 Alpha  occ. eigenvalues -- -104.09462 -11.24558 -10.48947  -7.95308  -7.94893
 Alpha  occ. eigenvalues --   -7.94873  -1.13023  -0.92931  -0.64842  -0.63021
 Alpha  occ. eigenvalues --   -0.50413  -0.44702  -0.41911
 Alpha virt. eigenvalues --    0.14041   0.28123   0.31621   0.31736   0.74187
 Alpha virt. eigenvalues --    0.78788   0.80543   0.84693   0.93971   0.97226
 Alpha virt. eigenvalues --    1.02349   1.27827   1.31312   1.31642   1.85360

 Mulliken charges:
               1
     1  H    0.290019
     2  C   -0.710566
     3  Cl  -0.113041
     4  H    0.266810
     5  H    0.266778
 Sum of Mulliken charges =  -0.00000

 Dipole moment (field-independent basis, Debye):
    X=              2.6481    Y=             -0.0005    Z=              0.3609  Tot=              2.6725
 Quadrupole moment (field-independent basis, Debye-Ang):
   XX=            -18.5217   YY=            -20.1627   ZZ=            -20.7763
   XY=              0.0008   XZ=             -0.7083   YZ=             -0.0000

 Normal termination of Gaussian 16 at Fri Sep 22 17:17:42 2023.
