 Gaussian 16, Revision A.03,
 Gaussian 16:  ES64L-G16RevA.03 25-Dec-2016

 ----------
 # hf/3-21g
 ----------

 -----------------------
 tmpdir/M2_conf_47_9.gjf
 -----------------------
 Symbolic Z-matrix:
 Charge =  0 Multiplicity = 1

                         Standard orientation:
 ---------------------------------------------------------------------
 Center     Atomic      Atomic             Coordinates (Angstroms)
 Number     Number       Type             X           Y           Z
 ---------------------------------------------------------------------
      1          1           0        1.287299   -0.010303    1.065578
      2          6           0        1.203080    0.000051   -0.004664
      3         17           0       -0.688817    0.000075   -0.008325
      4          1           0        1.602166   -0.888139   -0.456378
      5          1           0        1.601940    0.896863   -0.439684
 ---------------------------------------------------------------------

 SCF Done:  E(RHF) =  -496.683653063     A.U. after   11 cycles

 The electronic state is 1-A.
 Alpha  occ. eigenvalues -- -104.08832 -11.24979 -10.48224  -7.94597  -7.94193
 Alpha  occ. eigenvalues --   -7.94191  -1.11433  -0.93296  -0.63493  -0.63187
 Alpha  occ. eigenvalues --   -0.51116  -0.43892  -0.43494
 Alpha virt. eigenvalues --    0.16248   0.27365   0.31379   0.31447   0.73900
 Alpha virt. eigenvalues --    0.80044   0.81055   0.85641   0.92498   0.95068
 Alpha virt. eigenvalues --    1.00177   1.30678   1.31176   1.32363   1.91125

 Mulliken charges:
               1
     1  H    0.277408
     2  C   -0.704249
     3  Cl  -0.107249
     4  H    0.267058
     5  H    0.267033
 Sum of Mulliken charges =   0.00000

 Dipole moment (field-independent basis, Debye):
    X=              2.8477    Y=             -0.0012    Z=              0.1179  Tot=              2.8502
 Quadrupole moment (field-independent basis, Debye-Ang):
   XX=            -18.5521   YY=            -20.1833   ZZ=            -20.2522
   XY=              0.0026   XZ=             -0.3108   YZ=             -0.0001

 Normal termination of Gaussian 16 at Fri Sep 22 17:15:17 2023.
