 Gaussian 16, Revision A.03,
 Gaussian 16:  ES64L-G16RevA.03 25-Dec-2016

 ----------
 # hf/3-21g
 ----------

 ------------------------
 tmpdir/M2_conf_260_9.gjf
 ------------------------
 Symbolic Z-matrix:
 Charge =  0 Multiplicity = 1

                         Standard orientation:
 ---------------------------------------------------------------------
 Center     Atomic      Atomic             Coordinates (Angstroms)
 Number     Number       Type             X           Y           Z
 ---------------------------------------------------------------------
      1          1           0        1.155153   -0.004189    1.064272
      2          6           0        1.204216    0.000034   -0.008198
      3         17           0       -0.687680    0.000047   -0.012802
      4          1           0        1.655133   -0.890941   -0.401940
      5          1           0        1.654985    0.894127   -0.395509
 ---------------------------------------------------------------------

 SCF Done:  E(RHF) =  -496.673907481     A.U. after   11 cycles

 The electronic state is 1-A.
 Alpha  occ. eigenvalues -- -104.08941 -11.24927 -10.48344  -7.94714  -7.94309
 Alpha  occ. eigenvalues --   -7.94304  -1.11709  -0.93227  -0.63809  -0.63156
 Alpha  occ. eigenvalues --   -0.50847  -0.44056  -0.43210
 Alpha virt. eigenvalues --    0.15719   0.27467   0.31417   0.31511   0.74003
 Alpha virt. eigenvalues --    0.79661   0.80994   0.85526   0.92558   0.95845
 Alpha virt. eigenvalues --    1.00895   1.30027   1.31171   1.32289   1.89723

 Mulliken charges:
               1
     1  H    0.281757
     2  C   -0.705882
     3  Cl  -0.108338
     4  H    0.266245
     5  H    0.266217
 Sum of Mulliken charges =  -0.00000

 Dipole moment (field-independent basis, Debye):
    X=              2.8142    Y=             -0.0008    Z=              0.1933  Tot=              2.8209
 Quadrupole moment (field-independent basis, Debye-Ang):
   XX=            -18.5310   YY=            -20.1821   ZZ=            -20.3693
   XY=              0.0015   XZ=             -0.4769   YZ=             -0.0001

 Normal termination of Gaussian 16 at Fri Sep 22 17:20:44 2023.
