 Gaussian 16, Revision A.03,
 Gaussian 16:  ES64L-G16RevA.03 25-Dec-2016

 ----------
 # hf/3-21g
 ----------

 ------------------------
 tmpdir/M2_conf_271_3.gjf
 ------------------------
 Symbolic Z-matrix:
 Charge =  0 Multiplicity = 1

                         Standard orientation:
 ---------------------------------------------------------------------
 Center     Atomic      Atomic             Coordinates (Angstroms)
 Number     Number       Type             X           Y           Z
 ---------------------------------------------------------------------
      1          6           0       -2.489976    0.000007    0.000008
      2         17           0        1.371224   -0.000007   -0.000002
      3          1           0       -2.790344   -0.278197    0.992265
      4          1           0       -2.790033    0.998714   -0.255263
      5          1           0       -2.790580   -0.720439   -0.737023
 ---------------------------------------------------------------------

 SCF Done:  E(RHF) =  -496.495414755     A.U. after   10 cycles

 The electronic state is 1-A.
 Alpha  occ. eigenvalues -- -103.98578 -11.38894 -10.37355  -7.83675  -7.83496
 Alpha  occ. eigenvalues --   -7.83496  -1.07041  -0.92554  -0.72283  -0.72278
 Alpha  occ. eigenvalues --   -0.34503  -0.34503  -0.30753
 Alpha virt. eigenvalues --   -0.11672   0.19566   0.24160   0.24164   0.74765
 Alpha virt. eigenvalues --    0.78419   0.78432   0.83525   0.90207   0.90207
 Alpha virt. eigenvalues --    0.95137   1.09249   1.20969   1.20978   1.61540

 Mulliken charges:
               1
     1  C   -0.336537
     2  Cl  -0.607578
     3  H    0.314708
     4  H    0.314717
     5  H    0.314691
 Sum of Mulliken charges =  -0.00000

 Dipole moment (field-independent basis, Debye):
    X=            -11.6526    Y=              0.0001    Z=              0.0000  Tot=             11.6526
 Quadrupole moment (field-independent basis, Debye-Ang):
   XX=             -4.2866   YY=            -20.3787   ZZ=            -20.3804
   XY=              0.0002   XZ=              0.0000   YZ=             -0.0001

 Normal termination of Gaussian 16 at Fri Sep 22 17:21:01 2023.
