 Gaussian 16, Revision A.03,
 Gaussian 16:  ES64L-G16RevA.03 25-Dec-2016

 ----------
 # hf/3-21g
 ----------

 -----------------------
 tmpdir/M2_conf_72_5.gjf
 -----------------------
 Symbolic Z-matrix:
 Charge =  0 Multiplicity = 1

                         Standard orientation:
 ---------------------------------------------------------------------
 Center     Atomic      Atomic             Coordinates (Angstroms)
 Number     Number       Type             X           Y           Z
 ---------------------------------------------------------------------
      1          1           0        1.074297    0.011622   -0.285023
      2          6           0        0.031235   -0.029698   -0.035018
      3          1           0       -0.829524   -0.164858   -0.662272
      4          1           0       -0.176092   -0.734994    0.747403
      5          1           0       -0.256092    1.066416    0.409998
 ---------------------------------------------------------------------

 SCF Done:  E(RHF) =  -39.9544011868     A.U. after    9 cycles

 The electronic state is 1-A.
 Alpha  occ. eigenvalues --  -11.15788  -0.93994  -0.58953  -0.53386  -0.48706
 Alpha virt. eigenvalues --    0.28250   0.30880   0.34686   0.36928   0.90001
 Alpha virt. eigenvalues --    0.97043   0.97393   1.25320   1.30913   1.35186
 Alpha virt. eigenvalues --    1.40737   1.94388

 Mulliken charges:
               1
     1  H    0.217844
     2  C   -0.792178
     3  H    0.219537
     4  H    0.206468
     5  H    0.148329
 Sum of Mulliken charges =  -0.00000

 Dipole moment (field-independent basis, Debye):
    X=             -0.0802    Y=             -0.0642    Z=              0.0445  Tot=              0.1119
 Quadrupole moment (field-independent basis, Debye-Ang):
   XX=             -7.8064   YY=             -8.6779   ZZ=             -9.0070
   XY=              0.1009   XZ=              0.0249   YZ=             -0.1606

 Normal termination of Gaussian 16 at Fri Sep 22 17:15:55 2023.
