 Gaussian 16, Revision A.03,
 Gaussian 16:  ES64L-G16RevA.03 25-Dec-2016

 ----------
 # hf/3-21g
 ----------

 -----------------------
 tmpdir/M2_conf_62_5.gjf
 -----------------------
 Symbolic Z-matrix:
 Charge =  0 Multiplicity = 1

                         Standard orientation:
 ---------------------------------------------------------------------
 Center     Atomic      Atomic             Coordinates (Angstroms)
 Number     Number       Type             X           Y           Z
 ---------------------------------------------------------------------
      1          1           0       -0.402777   -0.257040    0.963215
      2          6           0       -0.025693    0.013286   -0.004731
      3          1           0       -0.572848   -0.539377   -0.744872
      4          1           0       -0.003065    1.076115   -0.154701
      5          1           0        1.132850   -0.359415   -0.035257
 ---------------------------------------------------------------------

 SCF Done:  E(RHF) =  -39.9666285400     A.U. after    9 cycles

 The electronic state is 1-A.
 Alpha  occ. eigenvalues --  -11.15720  -0.93792  -0.56290  -0.54760  -0.50458
 Alpha virt. eigenvalues --    0.28286   0.32312   0.35352   0.35951   0.91168
 Alpha virt. eigenvalues --    0.92590   0.97879   1.24950   1.32664   1.36134
 Alpha virt. eigenvalues --    1.37656   1.94537

 Mulliken charges:
               1
     1  H    0.205402
     2  C   -0.771076
     3  H    0.206129
     4  H    0.207049
     5  H    0.152496
 Sum of Mulliken charges =  -0.00000

 Dipole moment (field-independent basis, Debye):
    X=             -0.0841    Y=              0.0090    Z=              0.0263  Tot=              0.0886
 Quadrupole moment (field-independent basis, Debye-Ang):
   XX=             -8.5479   YY=             -8.3486   ZZ=             -8.5376
   XY=              0.1396   XZ=              0.0189   YZ=             -0.0042

 Normal termination of Gaussian 16 at Fri Sep 22 17:15:40 2023.
