 Gaussian 16, Revision A.03,
 Gaussian 16:  ES64L-G16RevA.03 25-Dec-2016

 ----------
 # hf/3-21g
 ----------

 ------------------------
 tmpdir/M2_conf_174_7.gjf
 ------------------------
 Symbolic Z-matrix:
 Charge =  0 Multiplicity = 1

                         Standard orientation:
 ---------------------------------------------------------------------
 Center     Atomic      Atomic             Coordinates (Angstroms)
 Number     Number       Type             X           Y           Z
 ---------------------------------------------------------------------
      1          1           0        0.371889   -0.291518    0.968851
      2          6           0        0.028368    0.008888   -0.002934
      3          1           0        0.495184   -0.598120   -0.755422
      4          1           0        0.127985    1.065227   -0.165412
      5          1           0       -1.165264   -0.228915   -0.030412
 ---------------------------------------------------------------------

 SCF Done:  E(RHF) =  -39.9668860237     A.U. after    9 cycles

 The electronic state is 1-A.
 Alpha  occ. eigenvalues --  -11.15722  -0.93783  -0.56066  -0.55062  -0.50399
 Alpha virt. eigenvalues --    0.28299   0.32292   0.35465   0.35865   0.91412
 Alpha virt. eigenvalues --    0.92348   0.97787   1.24990   1.32611   1.36396
 Alpha virt. eigenvalues --    1.37402   1.94589

 Mulliken charges:
               1
     1  H    0.205671
     2  C   -0.770744
     3  H    0.206134
     4  H    0.206852
     5  H    0.152087
 Sum of Mulliken charges =  -0.00000

 Dipole moment (field-independent basis, Debye):
    X=              0.0793    Y=              0.0046    Z=              0.0175  Tot=              0.0813
 Quadrupole moment (field-independent basis, Debye-Ang):
   XX=             -8.6011   YY=             -8.3473   ZZ=             -8.4865
   XY=             -0.0917   XZ=             -0.0159   YZ=             -0.0019

 Normal termination of Gaussian 16 at Fri Sep 22 17:18:28 2023.
