 Gaussian 16, Revision A.03,
 Gaussian 16:  ES64L-G16RevA.03 25-Dec-2016

 ----------
 # hf/3-21g
 ----------

 ------------------------
 tmpdir/M2_conf_283_6.gjf
 ------------------------
 Symbolic Z-matrix:
 Charge =  0 Multiplicity = 1

                         Standard orientation:
 ---------------------------------------------------------------------
 Center     Atomic      Atomic             Coordinates (Angstroms)
 Number     Number       Type             X           Y           Z
 ---------------------------------------------------------------------
      1          1           0       -1.156270   -0.002539    1.064168
      2          6           0       -1.204202    0.000034   -0.008159
      3         17           0        0.687689    0.000021   -0.012765
      4          1           0       -1.654426    0.893676   -0.397151
      5          1           0       -1.654803   -0.891700   -0.401068
 ---------------------------------------------------------------------

 SCF Done:  E(RHF) =  -496.674012933     A.U. after   11 cycles

 The electronic state is 1-A.
 Alpha  occ. eigenvalues -- -104.08939 -11.24927 -10.48342  -7.94713  -7.94307
 Alpha  occ. eigenvalues --   -7.94302  -1.11707  -0.93227  -0.63807  -0.63156
 Alpha  occ. eigenvalues --   -0.50849  -0.44054  -0.43213
 Alpha virt. eigenvalues --    0.15725   0.27467   0.31417   0.31508   0.74002
 Alpha virt. eigenvalues --    0.79666   0.80994   0.85527   0.92548   0.95847
 Alpha virt. eigenvalues --    1.00888   1.30022   1.31165   1.32309   1.89739

 Mulliken charges:
               1
     1  H    0.281772
     2  C   -0.705877
     3  Cl  -0.108337
     4  H    0.266229
     5  H    0.266214
 Sum of Mulliken charges =  -0.00000

 Dipole moment (field-independent basis, Debye):
    X=             -2.8147    Y=             -0.0004    Z=              0.1928  Tot=              2.8213
 Quadrupole moment (field-independent basis, Debye-Ang):
   XX=            -18.5313   YY=            -20.1814   ZZ=            -20.3685
   XY=             -0.0007   XZ=              0.4751   YZ=             -0.0001

 Normal termination of Gaussian 16 at Fri Sep 22 17:21:18 2023.
