 Gaussian 16, Revision A.03,
 Gaussian 16:  ES64L-G16RevA.03 25-Dec-2016

 ----------
 # hf/3-21g
 ----------

 ------------------------
 tmpdir/M2_conf_224_0.gjf
 ------------------------
 Symbolic Z-matrix:
 Charge =  0 Multiplicity = 1

                         Standard orientation:
 ---------------------------------------------------------------------
 Center     Atomic      Atomic             Coordinates (Angstroms)
 Number     Number       Type             X           Y           Z
 ---------------------------------------------------------------------
      1          6           0       -0.031636    0.000092   -0.000006
      2          1           0       -0.333118   -0.433871    0.934553
      3          1           0       -0.328820    1.027754   -0.090655
      4          1           0       -0.334009   -0.591072   -0.843629
      5          1           0        1.185763   -0.003365   -0.000231
 ---------------------------------------------------------------------

 SCF Done:  E(RHF) =  -39.9669507255     A.U. after    9 cycles

 The electronic state is 1-A.
 Alpha  occ. eigenvalues --  -11.15728  -0.93774  -0.55638  -0.55632  -0.50270
 Alpha virt. eigenvalues --    0.28317   0.32229   0.35683   0.35686   0.91919
 Alpha virt. eigenvalues --    0.91925   0.97638   1.25067   1.32445   1.36932
 Alpha virt. eigenvalues --    1.36937   1.94647

 Mulliken charges:
               1
     1  C   -0.770653
     2  H    0.206426
     3  H    0.206433
     4  H    0.206429
     5  H    0.151365
 Sum of Mulliken charges =   0.00000

 Dipole moment (field-independent basis, Debye):
    X=             -0.0708    Y=              0.0002    Z=              0.0001  Tot=              0.0708
 Quadrupole moment (field-independent basis, Debye-Ang):
   XX=             -8.6572   YY=             -8.3901   ZZ=             -8.3910
   XY=              0.0014   XZ=              0.0001   YZ=              0.0000

 Normal termination of Gaussian 16 at Fri Sep 22 17:19:49 2023.
