 Gaussian 16, Revision A.03,
 Gaussian 16:  ES64L-G16RevA.03 25-Dec-2016

 ----------
 # hf/3-21g
 ----------

 ------------------------
 tmpdir/M2_conf_249_5.gjf
 ------------------------
 Symbolic Z-matrix:
 Charge =  0 Multiplicity = 1

                         Standard orientation:
 ---------------------------------------------------------------------
 Center     Atomic      Atomic             Coordinates (Angstroms)
 Number     Number       Type             X           Y           Z
 ---------------------------------------------------------------------
      1          1           0       -0.466214   -0.172553    0.945251
      2          6           0       -0.016792    0.021659   -0.009991
      3          1           0       -0.719151   -0.375849   -0.718011
      4          1           0        0.275028    1.048343   -0.125629
      5          1           0        1.011086   -0.629896   -0.041662
 ---------------------------------------------------------------------

 SCF Done:  E(RHF) =  -39.9651433660     A.U. after    9 cycles

 The electronic state is 1-A.
 Alpha  occ. eigenvalues --  -11.15720  -0.93833  -0.56919  -0.53904  -0.50599
 Alpha virt. eigenvalues --    0.28237   0.32338   0.35028   0.36170   0.90630
 Alpha virt. eigenvalues --    0.93215   0.98201   1.24837   1.32719   1.35439
 Alpha virt. eigenvalues --    1.38445   1.94312

 Mulliken charges:
               1
     1  H    0.204634
     2  C   -0.772874
     3  H    0.206541
     4  H    0.207945
     5  H    0.153754
 Sum of Mulliken charges =   0.00000

 Dipole moment (field-independent basis, Debye):
    X=             -0.0992    Y=              0.0208    Z=              0.0516  Tot=              0.1138
 Quadrupole moment (field-independent basis, Debye-Ang):
   XX=             -8.3611   YY=             -8.3938   ZZ=             -8.6797
   XY=              0.2161   XZ=              0.0234   YZ=             -0.0105

 Normal termination of Gaussian 16 at Fri Sep 22 17:20:27 2023.
