 Gaussian 16, Revision A.03,
 Gaussian 16:  ES64L-G16RevA.03 25-Dec-2016

 ----------
 # hf/3-21g
 ----------

 ------------------------
 tmpdir/M2_conf_194_1.gjf
 ------------------------
 Symbolic Z-matrix:
 Charge =  0 Multiplicity = 1

                         Standard orientation:
 ---------------------------------------------------------------------
 Center     Atomic      Atomic             Coordinates (Angstroms)
 Number     Number       Type             X           Y           Z
 ---------------------------------------------------------------------
      1          6           0       -0.032230   -0.000060    0.011227
      2          1           0       -0.170077   -0.002129    1.008443
      3          1           0       -0.403297   -0.892043   -0.456593
      4          1           0       -0.405479    0.892896   -0.453444
      5          1           0        1.172231    0.001637   -0.165770
 ---------------------------------------------------------------------

 SCF Done:  E(RHF) =  -39.9627160644     A.U. after    9 cycles

 The electronic state is 1-A.
 Alpha  occ. eigenvalues --  -11.14946  -0.94620  -0.57107  -0.55542  -0.50288
 Alpha virt. eigenvalues --    0.28497   0.32546   0.35683   0.37175   0.88879
 Alpha virt. eigenvalues --    0.92072   0.97551   1.25329   1.33933   1.37075
 Alpha virt. eigenvalues --    1.42994   1.95620

 Mulliken charges:
               1
     1  C   -0.778535
     2  H    0.222450
     3  H    0.203856
     4  H    0.203802
     5  H    0.148428
 Sum of Mulliken charges =   0.00000

 Dipole moment (field-independent basis, Debye):
    X=             -0.0819    Y=             -0.0003    Z=              0.0479  Tot=              0.0948
 Quadrupole moment (field-independent basis, Debye-Ang):
   XX=             -8.5854   YY=             -8.3236   ZZ=             -8.3799
   XY=             -0.0005   XZ=              0.0418   YZ=             -0.0001

 Normal termination of Gaussian 16 at Fri Sep 22 17:19:03 2023.
