 Gaussian 16, Revision A.03,
 Gaussian 16:  ES64L-G16RevA.03 25-Dec-2016

 ----------
 # hf/3-21g
 ----------

 ------------------------
 tmpdir/M2_conf_110_8.gjf
 ------------------------
 Symbolic Z-matrix:
 Charge =  0 Multiplicity = 1

                         Standard orientation:
 ---------------------------------------------------------------------
 Center     Atomic      Atomic             Coordinates (Angstroms)
 Number     Number       Type             X           Y           Z
 ---------------------------------------------------------------------
      1          1           0       -1.603831   -0.023781    0.997671
      2          6           0       -1.202536   -0.000060    0.002173
      3         17           0        0.689367   -0.000095    0.004128
      4          1           0       -1.450039   -0.879344   -0.561547
      5          1           0       -1.450151    0.905107   -0.519342
 ---------------------------------------------------------------------

 SCF Done:  E(RHF) =  -496.688184892     A.U. after   11 cycles

 The electronic state is 1-A.
 Alpha  occ. eigenvalues -- -104.08783 -11.24998 -10.48173  -7.94547  -7.94143
 Alpha  occ. eigenvalues --   -7.94143  -1.11311  -0.93327  -0.63286  -0.63249
 Alpha  occ. eigenvalues --   -0.51269  -0.43764  -0.43673
 Alpha virt. eigenvalues --    0.16515   0.27331   0.31363   0.31413   0.73841
 Alpha virt. eigenvalues --    0.80338   0.81003   0.85569   0.92936   0.94307
 Alpha virt. eigenvalues --    0.99767   1.30989   1.31270   1.32321   1.91827

 Mulliken charges:
               1
     1  H    0.266489
     2  C   -0.703271
     3  Cl  -0.106907
     4  H    0.271868
     5  H    0.271820
 Sum of Mulliken charges =  -0.00000

 Dipole moment (field-independent basis, Debye):
    X=             -2.8625    Y=              0.0012    Z=             -0.0532  Tot=              2.8630
 Quadrupole moment (field-independent basis, Debye-Ang):
   XX=            -18.5654   YY=            -20.1788   ZZ=            -20.1992
   XY=              0.0038   XZ=             -0.1545   YZ=              0.0002

 Normal termination of Gaussian 16 at Fri Sep 22 17:16:52 2023.
