 Gaussian 16, Revision A.03,
 Gaussian 16:  ES64L-G16RevA.03 25-Dec-2016

 ----------
 # hf/3-21g
 ----------

 ------------------------
 tmpdir/M2_conf_230_7.gjf
 ------------------------
 Symbolic Z-matrix:
 Charge =  0 Multiplicity = 1

                         Standard orientation:
 ---------------------------------------------------------------------
 Center     Atomic      Atomic             Coordinates (Angstroms)
 Number     Number       Type             X           Y           Z
 ---------------------------------------------------------------------
      1          1           0       -1.075729    0.008820   -0.282551
      2          6           0       -0.031635   -0.029772   -0.035580
      3          1           0        0.832301   -0.160260   -0.659440
      4          1           0        0.180158   -0.736245    0.744300
      5          1           0        0.253079    1.066316    0.411174
 ---------------------------------------------------------------------

 SCF Done:  E(RHF) =  -39.9538520230     A.U. after    9 cycles

 The electronic state is 1-A.
 Alpha  occ. eigenvalues --  -11.15790  -0.94004  -0.59017  -0.53355  -0.48649
 Alpha virt. eigenvalues --    0.28244   0.30824   0.34677   0.36949   0.89975
 Alpha virt. eigenvalues --    0.97113   0.97494   1.25312   1.30869   1.35178
 Alpha virt. eigenvalues --    1.40832   1.94371

 Mulliken charges:
               1
     1  H    0.218233
     2  C   -0.793146
     3  H    0.220080
     4  H    0.206552
     5  H    0.148282
 Sum of Mulliken charges =   0.00000

 Dipole moment (field-independent basis, Debye):
    X=              0.0826    Y=             -0.0642    Z=              0.0462  Tot=              0.1143
 Quadrupole moment (field-independent basis, Debye-Ang):
   XX=             -7.7923   YY=             -8.6790   ZZ=             -9.0217
   XY=             -0.0996   XZ=             -0.0244   YZ=             -0.1614

 Normal termination of Gaussian 16 at Fri Sep 22 17:19:58 2023.
