 Gaussian 16, Revision A.03,
 Gaussian 16:  ES64L-G16RevA.03 25-Dec-2016

 ----------
 # hf/3-21g
 ----------

 ------------------------
 tmpdir/M2_conf_297_3.gjf
 ------------------------
 Symbolic Z-matrix:
 Charge =  0 Multiplicity = 1

                         Standard orientation:
 ---------------------------------------------------------------------
 Center     Atomic      Atomic             Coordinates (Angstroms)
 Number     Number       Type             X           Y           Z
 ---------------------------------------------------------------------
      1          6           0       -2.557976    0.000006    0.000008
      2         17           0        1.407224   -0.000007   -0.000001
      3          1           0       -2.858344   -0.278197    0.992265
      4          1           0       -2.858033    0.998714   -0.255263
      5          1           0       -2.858580   -0.720440   -0.737023
 ---------------------------------------------------------------------

 SCF Done:  E(RHF) =  -496.489595280     A.U. after   10 cycles

 The electronic state is 1-A.
 Alpha  occ. eigenvalues -- -103.98125 -11.39165 -10.36915  -7.83234  -7.83059
 Alpha  occ. eigenvalues --   -7.83059  -1.07338  -0.92186  -0.72584  -0.72579
 Alpha  occ. eigenvalues --   -0.34145  -0.34145  -0.30273
 Alpha virt. eigenvalues --   -0.12183   0.19320   0.23898   0.23902   0.75370
 Alpha virt. eigenvalues --    0.78168   0.78182   0.83606   0.90462   0.90462
 Alpha virt. eigenvalues --    0.94428   1.08704   1.20692   1.20701   1.61108

 Mulliken charges:
               1
     1  C   -0.335743
     2  Cl  -0.613019
     3  H    0.316256
     4  H    0.316266
     5  H    0.316240
 Sum of Mulliken charges =   0.00000

 Dipole moment (field-independent basis, Debye):
    X=            -12.0730    Y=              0.0001    Z=              0.0000  Tot=             12.0730
 Quadrupole moment (field-independent basis, Debye-Ang):
   XX=             -3.4590   YY=            -20.3761   ZZ=            -20.3777
   XY=              0.0002   XZ=              0.0000   YZ=             -0.0001

 Normal termination of Gaussian 16 at Fri Sep 22 17:21:45 2023.
