 Gaussian 16, Revision A.03,
 Gaussian 16:  ES64L-G16RevA.03 25-Dec-2016

 ----------
 # hf/3-21g
 ----------

 ------------------------
 tmpdir/M2_conf_174_9.gjf
 ------------------------
 Symbolic Z-matrix:
 Charge =  0 Multiplicity = 1

                         Standard orientation:
 ---------------------------------------------------------------------
 Center     Atomic      Atomic             Coordinates (Angstroms)
 Number     Number       Type             X           Y           Z
 ---------------------------------------------------------------------
      1          1           0        0.770423   -0.000924    0.953622
      2          6           0        1.210637    0.000015   -0.025576
      3         17           0       -0.681255    0.000023   -0.020853
      4          1           0        1.773492   -0.892319   -0.223390
      5          1           0        1.773591    0.892761   -0.222280
 ---------------------------------------------------------------------

 SCF Done:  E(RHF) =  -496.607371044     A.U. after   12 cycles

 The electronic state is 1-A.
 Alpha  occ. eigenvalues -- -104.09874 -11.24179 -10.49446  -7.95802  -7.95377
 Alpha  occ. eigenvalues --   -7.95344  -1.14085  -0.92704  -0.65438  -0.62878
 Alpha  occ. eigenvalues --   -0.50517  -0.45185  -0.40879
 Alpha virt. eigenvalues --    0.13168   0.28701   0.31824   0.31907   0.74164
 Alpha virt. eigenvalues --    0.78339   0.80346   0.84501   0.94237   0.97706
 Alpha virt. eigenvalues --    1.02837   1.26122   1.31280   1.31494   1.83420

 Mulliken charges:
               1
     1  H    0.293137
     2  C   -0.715539
     3  Cl  -0.113198
     4  H    0.267817
     5  H    0.267783
 Sum of Mulliken charges =  -0.00000

 Dipole moment (field-independent basis, Debye):
    X=              2.5043    Y=             -0.0005    Z=              0.4412  Tot=              2.5428
 Quadrupole moment (field-independent basis, Debye-Ang):
   XX=            -18.5664   YY=            -20.1397   ZZ=            -21.0051
   XY=              0.0007   XZ=             -0.7299   YZ=             -0.0000

 Normal termination of Gaussian 16 at Fri Sep 22 17:18:28 2023.
