 Gaussian 16, Revision A.03,
 Gaussian 16:  ES64L-G16RevA.03 25-Dec-2016

 ----------
 # hf/3-21g
 ----------

 ------------------------
 tmpdir/M2_conf_153_4.gjf
 ------------------------
 Symbolic Z-matrix:
 Charge =  0 Multiplicity = 1

                         Standard orientation:
 ---------------------------------------------------------------------
 Center     Atomic      Atomic             Coordinates (Angstroms)
 Number     Number       Type             X           Y           Z
 ---------------------------------------------------------------------
      1          1           0       -0.330244    0.971469   -0.352104
      2          6           0       -0.032456    0.000855   -0.003653
      3          1           0       -0.258233   -0.792653   -0.690656
      4          1           0       -0.398463   -0.211162    0.983106
      5          1           0        1.181675    0.027215    0.081570
 ---------------------------------------------------------------------

 SCF Done:  E(RHF) =  -39.9668027939     A.U. after    9 cycles

 The electronic state is 1-A.
 Alpha  occ. eigenvalues --  -11.15728  -0.93777  -0.55884  -0.55453  -0.50207
 Alpha virt. eigenvalues --    0.28324   0.32194   0.35606   0.35783   0.91737
 Alpha virt. eigenvalues --    0.92162   0.97583   1.25101   1.32371   1.36754
 Alpha virt. eigenvalues --    1.37186   1.94663

 Mulliken charges:
               1
     1  H    0.206865
     2  C   -0.770908
     3  H    0.206679
     4  H    0.206300
     5  H    0.151064
 Sum of Mulliken charges =  -0.00000

 Dipole moment (field-independent basis, Debye):
    X=             -0.0674    Y=             -0.0079    Z=             -0.0003  Tot=              0.0678
 Quadrupole moment (field-independent basis, Debye-Ang):
   XX=             -8.6658   YY=             -8.3498   ZZ=             -8.4240
   XY=             -0.0133   XZ=             -0.0334   YZ=             -0.0016

 Normal termination of Gaussian 16 at Fri Sep 22 17:17:56 2023.
