 Gaussian 16, Revision A.03,
 Gaussian 16:  ES64L-G16RevA.03 25-Dec-2016

 ----------
 # hf/3-21g
 ----------

 -----------------------
 tmpdir/M2_conf_71_6.gjf
 -----------------------
 Symbolic Z-matrix:
 Charge =  0 Multiplicity = 1

                         Standard orientation:
 ---------------------------------------------------------------------
 Center     Atomic      Atomic             Coordinates (Angstroms)
 Number     Number       Type             X           Y           Z
 ---------------------------------------------------------------------
      1          1           0       -1.492531   -0.235923    1.005935
      2          6           0       -1.202362    0.000066   -0.000195
      3         17           0        0.689541    0.000082   -0.000403
      4          1           0       -1.507508    0.986199   -0.295220
      5          1           0       -1.507989   -0.752060   -0.702696
 ---------------------------------------------------------------------

 SCF Done:  E(RHF) =  -496.689470823     A.U. after   10 cycles

 The electronic state is 1-A.
 Alpha  occ. eigenvalues -- -104.08772 -11.25001 -10.48162  -7.94536  -7.94132
 Alpha  occ. eigenvalues --   -7.94132  -1.11280  -0.93337  -0.63250  -0.63240
 Alpha  occ. eigenvalues --   -0.51323  -0.43733  -0.43721
 Alpha virt. eigenvalues --    0.16605   0.27332   0.31377   0.31379   0.73825
 Alpha virt. eigenvalues --    0.80652   0.80712   0.85498   0.93586   0.93738
 Alpha virt. eigenvalues --    0.99528   1.31220   1.31233   1.32198   1.92007

 Mulliken charges:
               1
     1  H    0.270270
     2  C   -0.702615
     3  Cl  -0.107058
     4  H    0.269712
     5  H    0.269690
 Sum of Mulliken charges =   0.00000

 Dipole moment (field-independent basis, Debye):
    X=             -2.8663    Y=             -0.0012    Z=              0.0054  Tot=              2.8663
 Quadrupole moment (field-independent basis, Debye-Ang):
   XX=            -18.5701   YY=            -20.1800   ZZ=            -20.1810
   XY=             -0.0029   XZ=              0.0148   YZ=             -0.0002

 Normal termination of Gaussian 16 at Fri Sep 22 17:15:53 2023.
