 Gaussian 16, Revision A.03,
 Gaussian 16:  ES64L-G16RevA.03 25-Dec-2016

 ----------
 # hf/3-21g
 ----------

 ------------------------
 tmpdir/M2_conf_222_0.gjf
 ------------------------
 Symbolic Z-matrix:
 Charge =  0 Multiplicity = 1

                         Standard orientation:
 ---------------------------------------------------------------------
 Center     Atomic      Atomic             Coordinates (Angstroms)
 Number     Number       Type             X           Y           Z
 ---------------------------------------------------------------------
      1          6           0        0.023161   -0.019882    0.000056
      2          1           0        0.841360    0.762403    0.002066
      3          1           0        0.022728   -0.616240    0.892793
      4          1           0        0.027706   -0.616353   -0.892584
      5          1           0       -1.030758    0.589479   -0.002612
 ---------------------------------------------------------------------

 SCF Done:  E(RHF) =  -39.9652958695     A.U. after    9 cycles

 The electronic state is 1-A.
 Alpha  occ. eigenvalues --  -11.16408  -0.93184  -0.55735  -0.54409  -0.50208
 Alpha virt. eigenvalues --    0.28049   0.31712   0.34631   0.35686   0.91797
 Alpha virt. eigenvalues --    0.94236   0.98158   1.24669   1.29192   1.34732
 Alpha virt. eigenvalues --    1.36794   1.93976

 Mulliken charges:
               1
     1  C   -0.761441
     2  H    0.190894
     3  H    0.208421
     4  H    0.208418
     5  H    0.153709
 Sum of Mulliken charges =   0.00000

 Dipole moment (field-independent basis, Debye):
    X=              0.0277    Y=             -0.0597    Z=              0.0001  Tot=              0.0658
 Quadrupole moment (field-independent basis, Debye-Ang):
   XX=             -8.6256   YY=             -8.4887   ZZ=             -8.4461
   XY=              0.1365   XZ=             -0.0012   YZ=              0.0004

 Normal termination of Gaussian 16 at Fri Sep 22 17:19:46 2023.
