 Gaussian 16, Revision A.03,
 Gaussian 16:  ES64L-G16RevA.03 25-Dec-2016

 ----------
 # hf/3-21g
 ----------

 ------------------------
 tmpdir/M2_conf_173_7.gjf
 ------------------------
 Symbolic Z-matrix:
 Charge =  0 Multiplicity = 1

                         Standard orientation:
 ---------------------------------------------------------------------
 Center     Atomic      Atomic             Coordinates (Angstroms)
 Number     Number       Type             X           Y           Z
 ---------------------------------------------------------------------
      1          1           0        0.332203   -0.333289    0.974642
      2          6           0        0.031379    0.001015   -0.000224
      3          1           0        0.353058   -0.668475   -0.775420
      4          1           0        0.312205    1.019494   -0.189994
      5          1           0       -1.185742   -0.023823   -0.007884
 ---------------------------------------------------------------------

 SCF Done:  E(RHF) =  -39.9669704032     A.U. after    9 cycles

 The electronic state is 1-A.
 Alpha  occ. eigenvalues --  -11.15725  -0.93776  -0.55686  -0.55571  -0.50286
 Alpha virt. eigenvalues --    0.28317   0.32239   0.35660   0.35709   0.91861
 Alpha virt. eigenvalues --    0.91961   0.97652   1.25059   1.32473   1.36874
 Alpha virt. eigenvalues --    1.36995   1.94645

 Mulliken charges:
               1
     1  H    0.206330
     2  C   -0.770649
     3  H    0.206367
     4  H    0.206516
     5  H    0.151437
 Sum of Mulliken charges =   0.00000

 Dipole moment (field-independent basis, Debye):
    X=              0.0717    Y=              0.0004    Z=              0.0023  Tot=              0.0718
 Quadrupole moment (field-independent basis, Debye-Ang):
   XX=             -8.6533   YY=             -8.3831   ZZ=             -8.4010
   XY=             -0.0096   XZ=             -0.0038   YZ=             -0.0000

 Normal termination of Gaussian 16 at Fri Sep 22 17:18:27 2023.
