 Gaussian 16, Revision A.03,
 Gaussian 16:  ES64L-G16RevA.03 25-Dec-2016

 ----------
 # hf/3-21g
 ----------

 ------------------------
 tmpdir/M2_conf_138_1.gjf
 ------------------------
 Symbolic Z-matrix:
 Charge =  0 Multiplicity = 1

                         Standard orientation:
 ---------------------------------------------------------------------
 Center     Atomic      Atomic             Coordinates (Angstroms)
 Number     Number       Type             X           Y           Z
 ---------------------------------------------------------------------
      1          6           0       -0.032030   -0.000061    0.004421
      2          1           0       -0.252746   -0.006639    1.032576
      3          1           0       -0.367711   -0.889782   -0.493470
      4          1           0       -0.369592    0.895128   -0.482709
      5          1           0        1.182229    0.001657   -0.082920
 ---------------------------------------------------------------------

 SCF Done:  E(RHF) =  -39.9663946501     A.U. after    9 cycles

 The electronic state is 1-A.
 Alpha  occ. eigenvalues --  -11.15468  -0.94033  -0.56118  -0.55602  -0.50279
 Alpha virt. eigenvalues --    0.28388   0.32359   0.35686   0.36157   0.90934
 Alpha virt. eigenvalues --    0.91963   0.97577   1.25166   1.33150   1.36989
 Alpha virt. eigenvalues --    1.38583   1.94933

 Mulliken charges:
               1
     1  C   -0.773594
     2  H    0.211921
     3  H    0.205655
     4  H    0.205599
     5  H    0.150419
 Sum of Mulliken charges =   0.00000

 Dipole moment (field-independent basis, Debye):
    X=             -0.0756    Y=             -0.0003    Z=              0.0180  Tot=              0.0777
 Quadrupole moment (field-independent basis, Debye-Ang):
   XX=             -8.6346   YY=             -8.3691   ZZ=             -8.3861
   XY=             -0.0005   XZ=              0.0219   YZ=             -0.0001

 Normal termination of Gaussian 16 at Fri Sep 22 17:17:33 2023.
