 Gaussian 16, Revision A.03,
 Gaussian 16:  ES64L-G16RevA.03 25-Dec-2016

 ----------
 # hf/3-21g
 ----------

 ------------------------
 tmpdir/M2_conf_285_8.gjf
 ------------------------
 Symbolic Z-matrix:
 Charge =  0 Multiplicity = 1

                         Standard orientation:
 ---------------------------------------------------------------------
 Center     Atomic      Atomic             Coordinates (Angstroms)
 Number     Number       Type             X           Y           Z
 ---------------------------------------------------------------------
      1          1           0        0.367278   -0.000001    0.580206
      2          6           0        1.224231    0.000022   -0.066514
      3         17           0       -0.666949   -0.000009   -0.014323
      4          1           0        1.812561    0.892490    0.031192
      5          1           0        1.812916   -0.892460    0.031186
 ---------------------------------------------------------------------

 SCF Done:  E(RHF) =  -496.401873696     A.U. after   12 cycles

 The electronic state is 1-A.
 Alpha  occ. eigenvalues -- -104.14730 -11.19375 -10.55087  -8.01520  -8.00833
 Alpha  occ. eigenvalues --   -8.00776  -1.26549  -0.90583  -0.69329  -0.61005
 Alpha  occ. eigenvalues --   -0.54240  -0.49316  -0.33216
 Alpha virt. eigenvalues --    0.10263   0.32822   0.34015   0.37661   0.69471
 Alpha virt. eigenvalues --    0.72994   0.75179   0.79028   0.92854   0.99416
 Alpha virt. eigenvalues --    1.05670   1.22568   1.34261   1.35693   1.82637

 Mulliken charges:
               1
     1  H    0.246005
     2  C   -0.820355
     3  Cl   0.033894
     4  H    0.270244
     5  H    0.270213
 Sum of Mulliken charges =  -0.00000

 Dipole moment (field-independent basis, Debye):
    X=              0.6201    Y=              0.0000    Z=              1.0855  Tot=              1.2501
 Quadrupole moment (field-independent basis, Debye-Ang):
   XX=            -19.2811   YY=            -19.7247   ZZ=            -22.1682
   XY=             -0.0003   XZ=              0.4870   YZ=              0.0001

 Normal termination of Gaussian 16 at Fri Sep 22 17:21:26 2023.
