 Gaussian 16, Revision A.03,
 Gaussian 16:  ES64L-G16RevA.03 25-Dec-2016

 ----------
 # hf/3-21g
 ----------

 ------------------------
 tmpdir/M2_conf_208_3.gjf
 ------------------------
 Symbolic Z-matrix:
 Charge =  0 Multiplicity = 1

                         Standard orientation:
 ---------------------------------------------------------------------
 Center     Atomic      Atomic             Coordinates (Angstroms)
 Number     Number       Type             X           Y           Z
 ---------------------------------------------------------------------
      1          6           0       -1.964937    0.000010    0.000009
      2         17           0        1.093263   -0.000009   -0.000002
      3          1           0       -2.265306   -0.278194    0.992266
      4          1           0       -2.264992    0.998719   -0.255262
      5          1           0       -2.265544   -0.720435   -0.737023
 ---------------------------------------------------------------------

 SCF Done:  E(RHF) =  -496.559846656     A.U. after   10 cycles

 The electronic state is 1-A.
 Alpha  occ. eigenvalues -- -104.02983 -11.35358 -10.41644  -7.87961  -7.87754
 Alpha  occ. eigenvalues --   -7.87754  -1.03725  -0.96180  -0.68774  -0.68769
 Alpha  occ. eigenvalues --   -0.38049  -0.38049  -0.35943
 Alpha virt. eigenvalues --   -0.05715   0.22254   0.27029   0.27033   0.72391
 Alpha virt. eigenvalues --    0.79273   0.79283   0.85427   0.90200   0.90205
 Alpha virt. eigenvalues --    0.98206   1.18357   1.24193   1.24202   1.69256

 Mulliken charges:
               1
     1  C   -0.357986
     2  Cl  -0.522386
     3  H    0.293464
     4  H    0.293469
     5  H    0.293439
 Sum of Mulliken charges =  -0.00000

 Dipole moment (field-independent basis, Debye):
    X=             -8.0390    Y=              0.0001    Z=              0.0001  Tot=              8.0390
 Quadrupole moment (field-independent basis, Debye-Ang):
   XX=            -10.2880   YY=            -20.4106   ZZ=            -20.4121
   XY=              0.0003   XZ=             -0.0000   YZ=             -0.0001

 Normal termination of Gaussian 16 at Fri Sep 22 17:19:25 2023.
