 Gaussian 16, Revision A.03,
 Gaussian 16:  ES64L-G16RevA.03 25-Dec-2016

 ----------
 # hf/3-21g
 ----------

 -----------------------
 tmpdir/M2_conf_92_6.gjf
 -----------------------
 Symbolic Z-matrix:
 Charge =  0 Multiplicity = 1

                         Standard orientation:
 ---------------------------------------------------------------------
 Center     Atomic      Atomic             Coordinates (Angstroms)
 Number     Number       Type             X           Y           Z
 ---------------------------------------------------------------------
      1          1           0       -1.280925   -0.005325    1.065755
      2          6           0       -1.203125    0.000041   -0.004808
      3         17           0        0.688772    0.000032   -0.008554
      4          1           0       -1.604517    0.894947   -0.441431
      5          1           0       -1.604937   -0.890412   -0.450060
 ---------------------------------------------------------------------

 SCF Done:  E(RHF) =  -496.683299499     A.U. after   11 cycles

 The electronic state is 1-A.
 Alpha  occ. eigenvalues -- -104.08835 -11.24977 -10.48228  -7.94601  -7.94197
 Alpha  occ. eigenvalues --   -7.94195  -1.11443  -0.93293  -0.63507  -0.63184
 Alpha  occ. eigenvalues --   -0.51105  -0.43899  -0.43484
 Alpha virt. eigenvalues --    0.16227   0.27369   0.31381   0.31448   0.73905
 Alpha virt. eigenvalues --    0.80027   0.81055   0.85643   0.92475   0.95115
 Alpha virt. eigenvalues --    1.00209   1.30641   1.31168   1.32381   1.91073

 Mulliken charges:
               1
     1  H    0.277673
     2  C   -0.704331
     3  Cl  -0.107290
     4  H    0.266983
     5  H    0.266965
 Sum of Mulliken charges =   0.00000

 Dipole moment (field-independent basis, Debye):
    X=             -2.8466    Y=             -0.0006    Z=              0.1216  Tot=              2.8492
 Quadrupole moment (field-independent basis, Debye-Ang):
   XX=            -18.5513   YY=            -20.1826   ZZ=            -20.2571
   XY=             -0.0011   XZ=              0.3189   YZ=             -0.0001

 Normal termination of Gaussian 16 at Fri Sep 22 17:16:25 2023.
