 Gaussian 16, Revision A.03,
 Gaussian 16:  ES64L-G16RevA.03 25-Dec-2016

 ----------
 # hf/3-21g
 ----------

 ------------------------
 tmpdir/M2_conf_102_9.gjf
 ------------------------
 Symbolic Z-matrix:
 Charge =  0 Multiplicity = 1

                         Standard orientation:
 ---------------------------------------------------------------------
 Center     Atomic      Atomic             Coordinates (Angstroms)
 Number     Number       Type             X           Y           Z
 ---------------------------------------------------------------------
      1          1           0        1.591834   -0.046198    1.001326
      2          6           0        1.202486   -0.000073    0.001877
      3         17           0       -0.689411   -0.000178    0.003632
      4          1           0        1.456812   -0.866772   -0.578077
      5          1           0        1.456417    0.916432   -0.496263
 ---------------------------------------------------------------------

 SCF Done:  E(RHF) =  -496.688478490     A.U. after   11 cycles

 The electronic state is 1-A.
 Alpha  occ. eigenvalues -- -104.08781 -11.24998 -10.48171  -7.94545  -7.94141
 Alpha  occ. eigenvalues --   -7.94141  -1.11304  -0.93330  -0.63282  -0.63242
 Alpha  occ. eigenvalues --   -0.51282  -0.43762  -0.43679
 Alpha virt. eigenvalues --    0.16536   0.27332   0.31365   0.31407   0.73838
 Alpha virt. eigenvalues --    0.80380   0.80964   0.85553   0.93028   0.94237
 Alpha virt. eigenvalues --    0.99712   1.31034   1.31267   1.32294   1.91866

 Mulliken charges:
               1
     1  H    0.266867
     2  C   -0.703113
     3  Cl  -0.106933
     4  H    0.271600
     5  H    0.271580
 Sum of Mulliken charges =  -0.00000

 Dipole moment (field-independent basis, Debye):
    X=              2.8633    Y=              0.0021    Z=             -0.0468  Tot=              2.8637
 Quadrupole moment (field-independent basis, Debye-Ang):
   XX=            -18.5662   YY=            -20.1786   ZZ=            -20.1957
   XY=             -0.0070   XZ=              0.1359   YZ=              0.0001

 Normal termination of Gaussian 16 at Fri Sep 22 17:16:40 2023.
