 Gaussian 16, Revision A.03,
 Gaussian 16:  ES64L-G16RevA.03 25-Dec-2016

 ----------
 # hf/3-21g
 ----------

 -----------------------
 tmpdir/M2_conf_45_3.gjf
 -----------------------
 Symbolic Z-matrix:
 Charge =  0 Multiplicity = 1

                         Standard orientation:
 ---------------------------------------------------------------------
 Center     Atomic      Atomic             Coordinates (Angstroms)
 Number     Number       Type             X           Y           Z
 ---------------------------------------------------------------------
      1          6           0       -1.236160    0.000019    0.000010
      2         17           0        0.707440   -0.000014   -0.000003
      3          1           0       -1.536528   -0.278183    0.992269
      4          1           0       -1.536205    0.998731   -0.255257
      5          1           0       -1.536778   -0.720422   -0.737021
 ---------------------------------------------------------------------

 SCF Done:  E(RHF) =  -496.688650878     A.U. after   10 cycles

 The electronic state is 1-A.
 Alpha  occ. eigenvalues -- -104.08770 -11.25561 -10.48027  -7.94393  -7.94012
 Alpha  occ. eigenvalues --   -7.94012  -1.10055  -0.93857  -0.63180  -0.63175
 Alpha  occ. eigenvalues --   -0.50428  -0.43674  -0.43674
 Alpha virt. eigenvalues --    0.14858   0.27125   0.31324   0.31327   0.73714
 Alpha virt. eigenvalues --    0.80439   0.80443   0.85509   0.93643   0.93654
 Alpha virt. eigenvalues --    1.00873   1.30994   1.31003   1.31584   1.90330

 Mulliken charges:
               1
     1  C   -0.670376
     2  Cl  -0.139421
     3  H    0.269957
     4  H    0.269935
     5  H    0.269906
 Sum of Mulliken charges =  -0.00000

 Dipole moment (field-independent basis, Debye):
    X=             -3.0466    Y=              0.0001    Z=              0.0001  Tot=              3.0466
 Quadrupole moment (field-independent basis, Debye-Ang):
   XX=            -18.2432   YY=            -20.2234   ZZ=            -20.2247
   XY=              0.0007   XZ=             -0.0001   YZ=             -0.0001

 Normal termination of Gaussian 16 at Fri Sep 22 17:15:14 2023.
