 Gaussian 16, Revision A.03,
 Gaussian 16:  ES64L-G16RevA.03 25-Dec-2016

 ----------
 # hf/3-21g
 ----------

 ----------------------
 tmpdir/M2_conf_9_7.gjf
 ----------------------
 Symbolic Z-matrix:
 Charge =  0 Multiplicity = 1

                         Standard orientation:
 ---------------------------------------------------------------------
 Center     Atomic      Atomic             Coordinates (Angstroms)
 Number     Number       Type             X           Y           Z
 ---------------------------------------------------------------------
      1          1           0        0.463988   -0.176676    0.945961
      2          6           0        0.017049    0.021515   -0.009855
      3          1           0        0.716058   -0.380104   -0.718868
      4          1           0       -0.266845    1.050242   -0.125186
      5          1           0       -1.015496   -0.622555   -0.042778
 ---------------------------------------------------------------------

 SCF Done:  E(RHF) =  -39.9652034350     A.U. after    9 cycles

 The electronic state is 1-A.
 Alpha  occ. eigenvalues --  -11.15720  -0.93831  -0.56904  -0.53925  -0.50597
 Alpha virt. eigenvalues --    0.28238   0.32340   0.35034   0.36166   0.90650
 Alpha virt. eigenvalues --    0.93187   0.98192   1.24840   1.32731   1.35445
 Alpha virt. eigenvalues --    1.38425   1.94323

 Mulliken charges:
               1
     1  H    0.204591
     2  C   -0.772806
     3  H    0.206524
     4  H    0.207968
     5  H    0.153723
 Sum of Mulliken charges =  -0.00000

 Dipole moment (field-independent basis, Debye):
    X=              0.0988    Y=              0.0203    Z=              0.0509  Tot=              0.1130
 Quadrupole moment (field-independent basis, Debye-Ang):
   XX=             -8.3674   YY=             -8.3913   ZZ=             -8.6758
   XY=             -0.2146   XZ=             -0.0240   YZ=             -0.0105

 Normal termination of Gaussian 16 at Fri Sep 22 17:14:21 2023.
