 Gaussian 16, Revision A.03,
 Gaussian 16:  ES64L-G16RevA.03 25-Dec-2016

 ----------
 # hf/3-21g
 ----------

 ----------------------
 tmpdir/M2_conf_2_7.gjf
 ----------------------
 Symbolic Z-matrix:
 Charge =  0 Multiplicity = 1

                         Standard orientation:
 ---------------------------------------------------------------------
 Center     Atomic      Atomic             Coordinates (Angstroms)
 Number     Number       Type             X           Y           Z
 ---------------------------------------------------------------------
      1          1           0       -0.325749    0.976575   -0.341351
      2          6           0       -0.032332    0.000880   -0.002907
      3          1           0       -0.277460   -0.783525   -0.693739
      4          1           0       -0.385886   -0.213857    0.987578
      5          1           0        1.183086    0.015525    0.064957
 ---------------------------------------------------------------------

 SCF Done:  E(RHF) =  -39.9668373329     A.U. after    9 cycles

 The electronic state is 1-A.
 Alpha  occ. eigenvalues --  -11.15727  -0.93777  -0.55838  -0.55488  -0.50219
 Alpha virt. eigenvalues --    0.28323   0.32201   0.35623   0.35763   0.91761
 Alpha virt. eigenvalues --    0.92126   0.97592   1.25095   1.32385   1.36796
 Alpha virt. eigenvalues --    1.37134   1.94661

 Mulliken charges:
               1
     1  H    0.206741
     2  C   -0.770857
     3  H    0.206618
     4  H    0.206380
     5  H    0.151118
 Sum of Mulliken charges =   0.00000

 Dipole moment (field-independent basis, Debye):
    X=             -0.0680    Y=             -0.0062    Z=              0.0001  Tot=              0.0683
 Quadrupole moment (field-independent basis, Debye-Ang):
   XX=             -8.6651   YY=             -8.3565   ZZ=             -8.4177
   XY=             -0.0078   XZ=             -0.0268   YZ=             -0.0009

 Normal termination of Gaussian 16 at Fri Sep 22 17:14:10 2023.
