 Gaussian 16, Revision A.03,
 Gaussian 16:  ES64L-G16RevA.03 25-Dec-2016

 ----------
 # hf/3-21g
 ----------

 ------------------------
 tmpdir/M2_conf_264_3.gjf
 ------------------------
 Symbolic Z-matrix:
 Charge =  0 Multiplicity = 1

                         Standard orientation:
 ---------------------------------------------------------------------
 Center     Atomic      Atomic             Coordinates (Angstroms)
 Number     Number       Type             X           Y           Z
 ---------------------------------------------------------------------
      1          6           0       -2.488472    0.000007    0.000008
      2         17           0        1.370428   -0.000007   -0.000002
      3          1           0       -2.788840   -0.278197    0.992265
      4          1           0       -2.788529    0.998714   -0.255263
      5          1           0       -2.789076   -0.720439   -0.737023
 ---------------------------------------------------------------------

 SCF Done:  E(RHF) =  -496.495549083     A.U. after   10 cycles

 The electronic state is 1-A.
 Alpha  occ. eigenvalues -- -103.98589 -11.38888 -10.37365  -7.83685  -7.83506
 Alpha  occ. eigenvalues --   -7.83506  -1.07034  -0.92563  -0.72276  -0.72271
 Alpha  occ. eigenvalues --   -0.34511  -0.34511  -0.30764
 Alpha virt. eigenvalues --   -0.11660   0.19571   0.24167   0.24170   0.74751
 Alpha virt. eigenvalues --    0.78424   0.78438   0.83523   0.90202   0.90202
 Alpha virt. eigenvalues --    0.95154   1.09262   1.20975   1.20985   1.61550

 Mulliken charges:
               1
     1  C   -0.336558
     2  Cl  -0.607446
     3  H    0.314671
     4  H    0.314680
     5  H    0.314654
 Sum of Mulliken charges =  -0.00000

 Dipole moment (field-independent basis, Debye):
    X=            -11.6431    Y=              0.0001    Z=              0.0001  Tot=             11.6431
 Quadrupole moment (field-independent basis, Debye-Ang):
   XX=             -4.3047   YY=            -20.3788   ZZ=            -20.3804
   XY=              0.0002   XZ=              0.0000   YZ=             -0.0001

 Normal termination of Gaussian 16 at Fri Sep 22 17:20:50 2023.
