 Gaussian 16, Revision A.03,
 Gaussian 16:  ES64L-G16RevA.03 25-Dec-2016

 ----------
 # hf/3-21g
 ----------

 ------------------------
 tmpdir/M2_conf_205_7.gjf
 ------------------------
 Symbolic Z-matrix:
 Charge =  0 Multiplicity = 1

                         Standard orientation:
 ---------------------------------------------------------------------
 Center     Atomic      Atomic             Coordinates (Angstroms)
 Number     Number       Type             X           Y           Z
 ---------------------------------------------------------------------
      1          1           0       -1.066817    0.017202   -0.299811
      2          6           0       -0.028335   -0.029768   -0.031545
      3          1           0        0.815837   -0.187333   -0.675874
      4          1           0        0.158821   -0.722756    0.766524
      5          1           0        0.262168    1.071497    0.398433
 ---------------------------------------------------------------------

 SCF Done:  E(RHF) =  -39.9572335447     A.U. after    9 cycles

 The electronic state is 1-A.
 Alpha  occ. eigenvalues --  -11.15777  -0.93941  -0.58560  -0.53608  -0.48999
 Alpha virt. eigenvalues --    0.28277   0.31159   0.34780   0.36787   0.90126
 Alpha virt. eigenvalues --    0.96308   0.97281   1.25343   1.31099   1.35327
 Alpha virt. eigenvalues --    1.40205   1.94445

 Mulliken charges:
               1
     1  H    0.215545
     2  C   -0.787161
     3  H    0.216628
     4  H    0.206385
     5  H    0.148603
 Sum of Mulliken charges =  -0.00000

 Dipole moment (field-independent basis, Debye):
    X=              0.0673    Y=             -0.0641    Z=              0.0363  Tot=              0.0998
 Quadrupole moment (field-independent basis, Debye-Ang):
   XX=             -7.8836   YY=             -8.6708   ZZ=             -8.9270
   XY=             -0.1037   XZ=             -0.0260   YZ=             -0.1560

 Normal termination of Gaussian 16 at Fri Sep 22 17:19:20 2023.
