 Gaussian 16, Revision A.03,
 Gaussian 16:  ES64L-G16RevA.03 25-Dec-2016

 ----------
 # hf/3-21g
 ----------

 ------------------------
 tmpdir/M2_conf_195_6.gjf
 ------------------------
 Symbolic Z-matrix:
 Charge =  0 Multiplicity = 1

                         Standard orientation:
 ---------------------------------------------------------------------
 Center     Atomic      Atomic             Coordinates (Angstroms)
 Number     Number       Type             X           Y           Z
 ---------------------------------------------------------------------
      1          1           0       -0.945245   -0.001149    1.024969
      2          6           0       -1.207109    0.000029   -0.015999
      3         17           0        0.684786    0.000013   -0.018322
      4          1           0       -1.726589    0.893064   -0.307959
      5          1           0       -1.726879   -0.892316   -0.309545
 ---------------------------------------------------------------------

 SCF Done:  E(RHF) =  -496.646256634     A.U. after   11 cycles

 The electronic state is 1-A.
 Alpha  occ. eigenvalues -- -104.09294 -11.24694 -10.48748  -7.95112  -7.94700
 Alpha  occ. eigenvalues --   -7.94685  -1.12598  -0.93024  -0.64557  -0.63069
 Alpha  occ. eigenvalues --   -0.50454  -0.44500  -0.42334
 Alpha virt. eigenvalues --    0.14487   0.27899   0.31550   0.31665   0.74164
 Alpha virt. eigenvalues --    0.79010   0.80657   0.84874   0.93641   0.96945
 Alpha virt. eigenvalues --    1.02047   1.28488   1.31245   1.31851   1.86465

 Mulliken charges:
               1
     1  H    0.288223
     2  C   -0.709008
     3  Cl  -0.112014
     4  H    0.266404
     5  H    0.266394
 Sum of Mulliken charges =  -0.00000

 Dipole moment (field-independent basis, Debye):
    X=             -2.7036    Y=             -0.0003    Z=              0.3203  Tot=              2.7225
 Quadrupole moment (field-independent basis, Debye-Ang):
   XX=            -18.5138   YY=            -20.1697   ZZ=            -20.6643
   XY=             -0.0005   XZ=              0.6728   YZ=             -0.0001

 Normal termination of Gaussian 16 at Fri Sep 22 17:19:05 2023.
