 Gaussian 16, Revision A.03,
 Gaussian 16:  ES64L-G16RevA.03 25-Dec-2016

 ----------
 # hf/3-21g
 ----------

 -----------------------
 tmpdir/M2_conf_99_6.gjf
 -----------------------
 Symbolic Z-matrix:
 Charge =  0 Multiplicity = 1

                         Standard orientation:
 ---------------------------------------------------------------------
 Center     Atomic      Atomic             Coordinates (Angstroms)
 Number     Number       Type             X           Y           Z
 ---------------------------------------------------------------------
      1          1           0       -1.530447   -0.119532    1.015607
      2          6           0       -1.202375   -0.000048    0.000580
      3         17           0        0.689531   -0.000144    0.001118
      4          1           0       -1.488420    0.947718   -0.414785
      5          1           0       -1.488910   -0.825443   -0.623302
 ---------------------------------------------------------------------

 SCF Done:  E(RHF) =  -496.689386749     A.U. after   11 cycles

 The electronic state is 1-A.
 Alpha  occ. eigenvalues -- -104.08773 -11.25001 -10.48162  -7.94537  -7.94133
 Alpha  occ. eigenvalues --   -7.94133  -1.11282  -0.93336  -0.63255  -0.63238
 Alpha  occ. eigenvalues --   -0.51320  -0.43741  -0.43711
 Alpha virt. eigenvalues --    0.16599   0.27332   0.31371   0.31387   0.73826
 Alpha virt. eigenvalues --    0.80592   0.80769   0.85503   0.93474   0.93847
 Alpha virt. eigenvalues --    0.99542   1.31208   1.31235   1.32203   1.91994

 Mulliken charges:
               1
     1  H    0.268956
     2  C   -0.702650
     3  Cl  -0.107051
     4  H    0.270384
     5  H    0.270362
 Sum of Mulliken charges =  -0.00000

 Dipole moment (field-independent basis, Debye):
    X=             -2.8660    Y=              0.0018    Z=             -0.0145  Tot=              2.8661
 Quadrupole moment (field-independent basis, Debye-Ang):
   XX=            -18.5698   YY=            -20.1793   ZZ=            -20.1828
   XY=              0.0055   XZ=             -0.0420   YZ=              0.0000

 Normal termination of Gaussian 16 at Fri Sep 22 17:16:35 2023.
