 Gaussian 16, Revision A.03,
 Gaussian 16:  ES64L-G16RevA.03 25-Dec-2016

 ----------
 # hf/3-21g
 ----------

 ------------------------
 tmpdir/M2_conf_162_4.gjf
 ------------------------
 Symbolic Z-matrix:
 Charge =  0 Multiplicity = 1

                         Standard orientation:
 ---------------------------------------------------------------------
 Center     Atomic      Atomic             Coordinates (Angstroms)
 Number     Number       Type             X           Y           Z
 ---------------------------------------------------------------------
      1          1           0       -1.033990    0.152468   -0.336658
      2          6           0       -0.023937   -0.027472   -0.021059
      3          1           0        0.729737   -0.362704   -0.708233
      4          1           0        0.029844   -0.673872    0.834441
      5          1           0        0.418034    1.048943    0.336802
 ---------------------------------------------------------------------

 SCF Done:  E(RHF) =  -39.9633058462     A.U. after    9 cycles

 The electronic state is 1-A.
 Alpha  occ. eigenvalues --  -11.15750  -0.93832  -0.57411  -0.54346  -0.49664
 Alpha virt. eigenvalues --    0.28324   0.31778   0.35102   0.36365   0.90698
 Alpha virt. eigenvalues --    0.94166   0.97350   1.25289   1.31705   1.35812
 Alpha virt. eigenvalues --    1.38800   1.94600

 Mulliken charges:
               1
     1  H    0.210597
     2  C   -0.776617
     3  H    0.210461
     4  H    0.206046
     5  H    0.149514
 Sum of Mulliken charges =   0.00000

 Dipole moment (field-independent basis, Debye):
    X=              0.0241    Y=             -0.0672    Z=              0.0153  Tot=              0.0730
 Quadrupole moment (field-independent basis, Debye-Ang):
   XX=             -8.1350   YY=             -8.6244   ZZ=             -8.6989
   XY=             -0.1661   XZ=             -0.0434   YZ=             -0.1274

 Normal termination of Gaussian 16 at Fri Sep 22 17:18:10 2023.
