 Gaussian 16, Revision A.03,
 Gaussian 16:  ES64L-G16RevA.03 25-Dec-2016

 ----------
 # hf/3-21g
 ----------

 -----------------------
 tmpdir/M2_conf_64_8.gjf
 -----------------------
 Symbolic Z-matrix:
 Charge =  0 Multiplicity = 1

                         Standard orientation:
 ---------------------------------------------------------------------
 Center     Atomic      Atomic             Coordinates (Angstroms)
 Number     Number       Type             X           Y           Z
 ---------------------------------------------------------------------
      1          1           0       -1.274011   -0.004342    1.066307
      2          6           0       -1.203174    0.000007   -0.004945
      3         17           0        0.688723    0.000042   -0.008805
      4          1           0       -1.607510   -0.890671   -0.446967
      5          1           0       -1.607721    0.894266   -0.439987
 ---------------------------------------------------------------------

 SCF Done:  E(RHF) =  -496.682903160     A.U. after   11 cycles

 The electronic state is 1-A.
 Alpha  occ. eigenvalues -- -104.08839 -11.24976 -10.48233  -7.94606  -7.94201
 Alpha  occ. eigenvalues --   -7.94199  -1.11453  -0.93290  -0.63522  -0.63182
 Alpha  occ. eigenvalues --   -0.51092  -0.43906  -0.43472
 Alpha virt. eigenvalues --    0.16205   0.27371   0.31383   0.31452   0.73909
 Alpha virt. eigenvalues --    0.80005   0.81059   0.85644   0.92472   0.95145
 Alpha virt. eigenvalues --    1.00245   1.30624   1.31172   1.32362   1.91011

 Mulliken charges:
               1
     1  H    0.277865
     2  C   -0.704398
     3  Cl  -0.107325
     4  H    0.266952
     5  H    0.266905
 Sum of Mulliken charges =  -0.00000

 Dipole moment (field-independent basis, Debye):
    X=             -2.8453    Y=             -0.0006    Z=              0.1252  Tot=              2.8480
 Quadrupole moment (field-independent basis, Debye-Ang):
   XX=            -18.5504   YY=            -20.1838   ZZ=            -20.2609
   XY=             -0.0014   XZ=              0.3288   YZ=              0.0000

 Normal termination of Gaussian 16 at Fri Sep 22 17:15:43 2023.
