 Gaussian 16, Revision A.03,
 Gaussian 16:  ES64L-G16RevA.03 25-Dec-2016

 ----------
 # hf/3-21g
 ----------

 ------------------------
 tmpdir/M2_conf_244_0.gjf
 ------------------------
 Symbolic Z-matrix:
 Charge =  0 Multiplicity = 1

                         Standard orientation:
 ---------------------------------------------------------------------
 Center     Atomic      Atomic             Coordinates (Angstroms)
 Number     Number       Type             X           Y           Z
 ---------------------------------------------------------------------
      1          6           0       -0.032211    0.000055    0.009133
      2          1           0       -0.192673   -0.002115    1.017645
      3          1           0       -0.392337    0.894887   -0.462259
      4          1           0       -0.397288   -0.890485   -0.466535
      5          1           0        1.175565   -0.002619   -0.143651
 ---------------------------------------------------------------------

 SCF Done:  E(RHF) =  -39.9643179522     A.U. after    9 cycles

 The electronic state is 1-A.
 Alpha  occ. eigenvalues --  -11.15116  -0.94419  -0.56781  -0.55562  -0.50286
 Alpha virt. eigenvalues --    0.28466   0.32492   0.35683   0.36838   0.89539
 Alpha virt. eigenvalues --    0.92048   0.97550   1.25279   1.33723   1.37044
 Alpha virt. eigenvalues --    1.41450   1.95375

 Mulliken charges:
               1
     1  C   -0.777057
     2  H    0.219155
     3  H    0.204408
     4  H    0.204403
     5  H    0.149091
 Sum of Mulliken charges =  -0.00000

 Dipole moment (field-independent basis, Debye):
    X=             -0.0802    Y=              0.0002    Z=              0.0389  Tot=              0.0891
 Quadrupole moment (field-independent basis, Debye-Ang):
   XX=             -8.6019   YY=             -8.3378   ZZ=             -8.3828
   XY=              0.0012   XZ=              0.0359   YZ=             -0.0004

 Normal termination of Gaussian 16 at Fri Sep 22 17:20:19 2023.
