 Gaussian 16, Revision A.03,
 Gaussian 16:  ES64L-G16RevA.03 25-Dec-2016

 ----------
 # hf/3-21g
 ----------

 ------------------------
 tmpdir/M2_conf_138_0.gjf
 ------------------------
 Symbolic Z-matrix:
 Charge =  0 Multiplicity = 1

                         Standard orientation:
 ---------------------------------------------------------------------
 Center     Atomic      Atomic             Coordinates (Angstroms)
 Number     Number       Type             X           Y           Z
 ---------------------------------------------------------------------
      1          6           0        0.008107   -0.029326    0.000056
      2          1           0        1.125044    0.349403    0.001173
      3          1           0       -0.243534   -0.569254    0.893240
      4          1           0       -0.240331   -0.572346   -0.892138
      5          1           0       -0.689823    0.968151   -0.002614
 ---------------------------------------------------------------------

 SCF Done:  E(RHF) =  -39.9613585285     A.U. after    9 cycles

 The electronic state is 1-A.
 Alpha  occ. eigenvalues --  -11.16950  -0.92793  -0.55824  -0.53506  -0.50085
 Alpha virt. eigenvalues --    0.27686   0.31102   0.34061   0.35684   0.91704
 Alpha virt. eigenvalues --    0.95342   0.99338   1.23822   1.26640   1.34056
 Alpha virt. eigenvalues --    1.36665   1.93449

 Mulliken charges:
               1
     1  C   -0.752473
     2  H    0.177411
     3  H    0.209812
     4  H    0.209810
     5  H    0.155441
 Sum of Mulliken charges =   0.00000

 Dipole moment (field-independent basis, Debye):
    X=             -0.0376    Y=             -0.0738    Z=              0.0001  Tot=              0.0828
 Quadrupole moment (field-independent basis, Debye-Ang):
   XX=             -8.5108   YY=             -8.6545   ZZ=             -8.4893
   XY=              0.1517   XZ=             -0.0009   YZ=              0.0008

 Normal termination of Gaussian 16 at Fri Sep 22 17:17:34 2023.
