 Gaussian 16, Revision A.03,
 Gaussian 16:  ES64L-G16RevA.03 25-Dec-2016

 ----------
 # hf/3-21g
 ----------

 ------------------------
 tmpdir/M2_conf_276_2.gjf
 ------------------------
 Symbolic Z-matrix:
 Charge =  0 Multiplicity = 1

                         Standard orientation:
 ---------------------------------------------------------------------
 Center     Atomic      Atomic             Coordinates (Angstroms)
 Number     Number       Type             X           Y           Z
 ---------------------------------------------------------------------
      1          6           0        0.017663   -0.024763   -0.000015
      2          1           0        0.983451    0.594542   -0.003561
      3          1           0       -0.091627   -0.609559    0.893443
      4          1           0       -0.097667   -0.611455   -0.891706
      5          1           0       -0.900136    0.775048    0.001914
 ---------------------------------------------------------------------

 SCF Done:  E(RHF) =  -39.9642394707     A.U. after    9 cycles

 The electronic state is 1-A.
 Alpha  occ. eigenvalues --  -11.16582  -0.93052  -0.55765  -0.54107  -0.50179
 Alpha virt. eigenvalues --    0.27951   0.31531   0.34420   0.35688   0.91759
 Alpha virt. eigenvalues --    0.94686   0.98451   1.24489   1.28256   1.34479
 Alpha virt. eigenvalues --    1.36761   1.93810

 Mulliken charges:
               1
     1  C   -0.758717
     2  H    0.186619
     3  H    0.208936
     4  H    0.208886
     5  H    0.154276
 Sum of Mulliken charges =  -0.00000

 Dipole moment (field-independent basis, Debye):
    X=              0.0049    Y=             -0.0692    Z=              0.0001  Tot=              0.0694
 Quadrupole moment (field-independent basis, Debye-Ang):
   XX=             -8.5755   YY=             -8.5550   ZZ=             -8.4604
   XY=              0.1576   XZ=              0.0011   YZ=             -0.0004

 Normal termination of Gaussian 16 at Fri Sep 22 17:21:08 2023.
