 Gaussian 16, Revision A.03,
 Gaussian 16:  ES64L-G16RevA.03 25-Dec-2016

 ----------
 # hf/3-21g
 ----------

 -----------------------
 tmpdir/M2_conf_39_0.gjf
 -----------------------
 Symbolic Z-matrix:
 Charge =  0 Multiplicity = 1

                         Standard orientation:
 ---------------------------------------------------------------------
 Center     Atomic      Atomic             Coordinates (Angstroms)
 Number     Number       Type             X           Y           Z
 ---------------------------------------------------------------------
      1          6           0       -0.025209   -0.017334   -0.000056
      2          1           0       -0.768807    0.827670   -0.002312
      3          1           0       -0.076020   -0.611709   -0.892670
      4          1           0       -0.081169   -0.611007    0.892706
      5          1           0        1.077249    0.499049    0.002611
 ---------------------------------------------------------------------

 SCF Done:  E(RHF) =  -39.9656681951     A.U. after    9 cycles

 The electronic state is 1-A.
 Alpha  occ. eigenvalues --  -11.16334  -0.93242  -0.55723  -0.54538  -0.50219
 Alpha virt. eigenvalues --    0.28086   0.31783   0.34729   0.35686   0.91811
 Alpha virt. eigenvalues --    0.94022   0.98060   1.24730   1.29596   1.34864
 Alpha virt. eigenvalues --    1.36810   1.94047

 Mulliken charges:
               1
     1  C   -0.762553
     2  H    0.192658
     3  H    0.208218
     4  H    0.208215
     5  H    0.153463
 Sum of Mulliken charges =   0.00000

 Dipole moment (field-independent basis, Debye):
    X=             -0.0364    Y=             -0.0539    Z=             -0.0001  Tot=              0.0650
 Quadrupole moment (field-independent basis, Debye-Ang):
   XX=             -8.6439   YY=             -8.4634   ZZ=             -8.4401
   XY=             -0.1205   XZ=             -0.0012   YZ=             -0.0003

 Normal termination of Gaussian 16 at Fri Sep 22 17:15:06 2023.
