 Gaussian 16, Revision A.03,
 Gaussian 16:  ES64L-G16RevA.03 25-Dec-2016

 ----------
 # hf/3-21g
 ----------

 -----------------------
 tmpdir/M2_conf_69_2.gjf
 -----------------------
 Symbolic Z-matrix:
 Charge =  0 Multiplicity = 1

                         Standard orientation:
 ---------------------------------------------------------------------
 Center     Atomic      Atomic             Coordinates (Angstroms)
 Number     Number       Type             X           Y           Z
 ---------------------------------------------------------------------
      1          6           0        0.032272    0.000014    0.012705
      2          1           0        0.159668   -0.003099    0.999510
      3          1           0        0.410701   -0.890099   -0.452796
      4          1           0        0.406453    0.895049   -0.447212
      5          1           0       -1.170453   -0.001932   -0.175730
 ---------------------------------------------------------------------

 SCF Done:  E(RHF) =  -39.9611062998     A.U. after    9 cycles

 The electronic state is 1-A.
 Alpha  occ. eigenvalues --  -11.14812  -0.94788  -0.57363  -0.55531  -0.50288
 Alpha virt. eigenvalues --    0.28520   0.32580   0.35684   0.37445   0.88345
 Alpha virt. eigenvalues --    0.92105   0.97554   1.25366   1.34067   1.37097
 Alpha virt. eigenvalues --    1.44296   1.95835

 Mulliken charges:
               1
     1  C   -0.779595
     2  H    0.225024
     3  H    0.203359
     4  H    0.203314
     5  H    0.147898
 Sum of Mulliken charges =  -0.00000

 Dipole moment (field-independent basis, Debye):
    X=              0.0833    Y=             -0.0001    Z=              0.0542  Tot=              0.0994
 Quadrupole moment (field-independent basis, Debye-Ang):
   XX=             -8.5731   YY=             -8.3110   ZZ=             -8.3779
   XY=             -0.0011   XZ=             -0.0428   YZ=             -0.0005

 Normal termination of Gaussian 16 at Fri Sep 22 17:15:51 2023.
