 Gaussian 16, Revision A.03,
 Gaussian 16:  ES64L-G16RevA.03 25-Dec-2016

 ----------
 # hf/3-21g
 ----------

 ------------------------
 tmpdir/M2_conf_101_4.gjf
 ------------------------
 Symbolic Z-matrix:
 Charge =  0 Multiplicity = 1

                         Standard orientation:
 ---------------------------------------------------------------------
 Center     Atomic      Atomic             Coordinates (Angstroms)
 Number     Number       Type             X           Y           Z
 ---------------------------------------------------------------------
      1          1           0       -0.347581    0.967575   -0.352809
      2          6           0       -0.033115    0.001274   -0.007033
      3          1           0       -0.179944   -0.800263   -0.706027
      4          1           0       -0.446113   -0.245710    0.952673
      5          1           0        1.172330    0.070754    0.148361
 ---------------------------------------------------------------------

 SCF Done:  E(RHF) =  -39.9665417148     A.U. after    9 cycles

 The electronic state is 1-A.
 Alpha  occ. eigenvalues --  -11.15730  -0.93780  -0.56135  -0.55267  -0.50137
 Alpha virt. eigenvalues --    0.28328   0.32150   0.35523   0.35879   0.91552
 Alpha virt. eigenvalues --    0.92435   0.97533   1.25135   1.32279   1.36577
 Alpha virt. eigenvalues --    1.37436   1.94668

 Mulliken charges:
               1
     1  H    0.207311
     2  C   -0.771314
     3  H    0.207022
     4  H    0.206201
     5  H    0.150779
 Sum of Mulliken charges =   0.00000

 Dipole moment (field-independent basis, Debye):
    X=             -0.0636    Y=             -0.0169    Z=              0.0007  Tot=              0.0658
 Quadrupole moment (field-independent basis, Debye-Ang):
   XX=             -8.6680   YY=             -8.3098   ZZ=             -8.4639
   XY=             -0.0336   XZ=             -0.0605   YZ=             -0.0052

 Normal termination of Gaussian 16 at Fri Sep 22 17:16:38 2023.
