 Gaussian 16, Revision A.03,
 Gaussian 16:  ES64L-G16RevA.03 25-Dec-2016

 ----------
 # hf/3-21g
 ----------

 ------------------------
 tmpdir/M2_conf_147_0.gjf
 ------------------------
 Symbolic Z-matrix:
 Charge =  0 Multiplicity = 1

                         Standard orientation:
 ---------------------------------------------------------------------
 Center     Atomic      Atomic             Coordinates (Angstroms)
 Number     Number       Type             X           Y           Z
 ---------------------------------------------------------------------
      1          6           0        0.003946   -0.030347    0.000057
      2          1           0        1.165528    0.267660    0.001000
      3          1           0       -0.287719   -0.549600    0.893327
      4          1           0       -0.285016   -0.553079   -0.892051
      5          1           0       -0.616470    1.017102   -0.002615
 ---------------------------------------------------------------------

 SCF Done:  E(RHF) =  -39.9591849443     A.U. after    9 cycles

 The electronic state is 1-A.
 Alpha  occ. eigenvalues --  -11.17172  -0.92650  -0.55864  -0.53170  -0.50000
 Alpha virt. eigenvalues --    0.27477   0.30825   0.33893   0.35682   0.91668
 Alpha virt. eigenvalues --    0.95574   1.00035   1.23132   1.26013   1.33854
 Alpha virt. eigenvalues --    1.36608   1.93221

 Mulliken charges:
               1
     1  C   -0.748365
     2  H    0.171586
     3  H    0.210332
     4  H    0.210331
     5  H    0.156116
 Sum of Mulliken charges =  -0.00000

 Dipole moment (field-independent basis, Debye):
    X=             -0.0602    Y=             -0.0732    Z=              0.0001  Tot=              0.0948
 Quadrupole moment (field-independent basis, Debye-Ang):
   XX=             -8.4938   YY=             -8.6920   ZZ=             -8.5067
   XY=              0.1429   XZ=             -0.0009   YZ=              0.0009

 Normal termination of Gaussian 16 at Fri Sep 22 17:17:47 2023.
