 Gaussian 16, Revision A.03,
 Gaussian 16:  ES64L-G16RevA.03 25-Dec-2016

 ----------
 # hf/3-21g
 ----------

 ------------------------
 tmpdir/M2_conf_133_9.gjf
 ------------------------
 Symbolic Z-matrix:
 Charge =  0 Multiplicity = 1

                         Standard orientation:
 ---------------------------------------------------------------------
 Center     Atomic      Atomic             Coordinates (Angstroms)
 Number     Number       Type             X           Y           Z
 ---------------------------------------------------------------------
      1          1           0        1.417070   -0.060698    1.048397
      2          6           0        1.202472    0.000112   -0.001777
      3         17           0       -0.689426    0.000190   -0.003414
      4          1           0        1.544320   -0.862666   -0.541176
      5          1           0        1.544020    0.919460   -0.438525
 ---------------------------------------------------------------------

 SCF Done:  E(RHF) =  -496.688569915     A.U. after   11 cycles

 The electronic state is 1-A.
 Alpha  occ. eigenvalues -- -104.08781 -11.24998 -10.48171  -7.94545  -7.94141
 Alpha  occ. eigenvalues --   -7.94141  -1.11303  -0.93331  -0.63302  -0.63218
 Alpha  occ. eigenvalues --   -0.51288  -0.43782  -0.43661
 Alpha virt. eigenvalues --    0.16546   0.27335   0.31368   0.31401   0.73837
 Alpha virt. eigenvalues --    0.80422   0.80906   0.85538   0.93085   0.94240
 Alpha virt. eigenvalues --    0.99654   1.31127   1.31203   1.32258   1.91871

 Mulliken charges:
               1
     1  H    0.272887
     2  C   -0.702947
     3  Cl  -0.107025
     4  H    0.268554
     5  H    0.268531
 Sum of Mulliken charges =  -0.00000

 Dipole moment (field-independent basis, Debye):
    X=              2.8635    Y=             -0.0027    Z=              0.0460  Tot=              2.8639
 Quadrupole moment (field-independent basis, Debye-Ang):
   XX=            -18.5669   YY=            -20.1821   ZZ=            -20.1909
   XY=              0.0068   XZ=             -0.1276   YZ=             -0.0002

 Normal termination of Gaussian 16 at Fri Sep 22 17:17:26 2023.
