 Gaussian 16, Revision A.03,
 Gaussian 16:  ES64L-G16RevA.03 25-Dec-2016

 ----------
 # hf/3-21g
 ----------

 ------------------------
 tmpdir/M2_conf_209_5.gjf
 ------------------------
 Symbolic Z-matrix:
 Charge =  0 Multiplicity = 1

                         Standard orientation:
 ---------------------------------------------------------------------
 Center     Atomic      Atomic             Coordinates (Angstroms)
 Number     Number       Type             X           Y           Z
 ---------------------------------------------------------------------
      1          1           0       -0.484142   -0.147293    0.937100
      2          6           0       -0.013250    0.023615   -0.012236
      3          1           0       -0.753959   -0.324403   -0.707104
      4          1           0        0.350998    1.028266   -0.115237
      5          1           0        0.966603   -0.698259   -0.041344
 ---------------------------------------------------------------------

 SCF Done:  E(RHF) =  -39.9641988344     A.U. after    9 cycles

 The electronic state is 1-A.
 Alpha  occ. eigenvalues --  -11.15721  -0.93858  -0.57180  -0.53545  -0.50649
 Alpha virt. eigenvalues --    0.28211   0.32337   0.34895   0.36249   0.90453
 Alpha virt. eigenvalues --    0.93459   0.98364   1.24790   1.32685   1.35188
 Alpha virt. eigenvalues --    1.38795   1.94180

 Mulliken charges:
               1
     1  H    0.204345
     2  C   -0.773926
     3  H    0.206854
     4  H    0.208403
     5  H    0.154324
 Sum of Mulliken charges =  -0.00000

 Dipole moment (field-independent basis, Debye):
    X=             -0.1068    Y=              0.0242    Z=              0.0625  Tot=              0.1261
 Quadrupole moment (field-independent basis, Debye-Ang):
   XX=             -8.2850   YY=             -8.4119   ZZ=             -8.7391
   XY=              0.2281   XZ=              0.0239   YZ=             -0.0122

 Normal termination of Gaussian 16 at Fri Sep 22 17:19:26 2023.
