 Gaussian 16, Revision A.03,
 Gaussian 16:  ES64L-G16RevA.03 25-Dec-2016

 ----------
 # hf/3-21g
 ----------

 ------------------------
 tmpdir/M2_conf_246_4.gjf
 ------------------------
 Symbolic Z-matrix:
 Charge =  0 Multiplicity = 1

                         Standard orientation:
 ---------------------------------------------------------------------
 Center     Atomic      Atomic             Coordinates (Angstroms)
 Number     Number       Type             X           Y           Z
 ---------------------------------------------------------------------
      1          1           0        0.376917   -0.282851    0.968936
      2          6           0        0.028090    0.009355   -0.003238
      3          1           0        0.501965   -0.597200   -0.751664
      4          1           0        0.115328    1.066309   -0.170095
      5          1           0       -1.162750   -0.242385   -0.027747
 ---------------------------------------------------------------------

 SCF Done:  E(RHF) =  -39.9668617325     A.U. after    9 cycles

 The electronic state is 1-A.
 Alpha  occ. eigenvalues --  -11.15721  -0.93784  -0.56091  -0.55027  -0.50407
 Alpha virt. eigenvalues --    0.28298   0.32295   0.35454   0.35874   0.91372
 Alpha virt. eigenvalues --    0.92387   0.97797   1.24985   1.32616   1.36373
 Alpha virt. eigenvalues --    1.37427   1.94584

 Mulliken charges:
               1
     1  H    0.205683
     2  C   -0.770777
     3  H    0.206135
     4  H    0.206824
     5  H    0.152135
 Sum of Mulliken charges =   0.00000

 Dipole moment (field-independent basis, Debye):
    X=              0.0800    Y=              0.0048    Z=              0.0185  Tot=              0.0822
 Quadrupole moment (field-independent basis, Debye-Ang):
   XX=             -8.5962   YY=             -8.3455   ZZ=             -8.4930
   XY=             -0.0969   XZ=             -0.0149   YZ=             -0.0019

 Normal termination of Gaussian 16 at Fri Sep 22 17:20:22 2023.
