 Gaussian 16, Revision A.03,
 Gaussian 16:  ES64L-G16RevA.03 25-Dec-2016

 ----------
 # hf/3-21g
 ----------

 ------------------------
 tmpdir/M2_conf_179_4.gjf
 ------------------------
 Symbolic Z-matrix:
 Charge =  0 Multiplicity = 1

                         Standard orientation:
 ---------------------------------------------------------------------
 Center     Atomic      Atomic             Coordinates (Angstroms)
 Number     Number       Type             X           Y           Z
 ---------------------------------------------------------------------
      1          1           0       -0.329272    0.970224   -0.354313
      2          6           0       -0.032215    0.000594   -0.002513
      3          1           0       -0.281709   -0.792688   -0.681541
      4          1           0       -0.379330   -0.198747    0.993669
      5          1           0        1.183601    0.017645    0.057266
 ---------------------------------------------------------------------

 SCF Done:  E(RHF) =  -39.9668623663     A.U. after    9 cycles

 The electronic state is 1-A.
 Alpha  occ. eigenvalues --  -11.15727  -0.93776  -0.55804  -0.55512  -0.50228
 Alpha virt. eigenvalues --    0.28322   0.32207   0.35632   0.35752   0.91797
 Alpha virt. eigenvalues --    0.92080   0.97600   1.25090   1.32399   1.36813
 Alpha virt. eigenvalues --    1.37106   1.94659

 Mulliken charges:
               1
     1  H    0.206733
     2  C   -0.770815
     3  H    0.206585
     4  H    0.206338
     5  H    0.151159
 Sum of Mulliken charges =  -0.00000

 Dipole moment (field-independent basis, Debye):
    X=             -0.0685    Y=             -0.0052    Z=             -0.0004  Tot=              0.0687
 Quadrupole moment (field-independent basis, Debye-Ang):
   XX=             -8.6637   YY=             -8.3630   ZZ=             -8.4123
   XY=             -0.0087   XZ=             -0.0235   YZ=             -0.0009

 Normal termination of Gaussian 16 at Fri Sep 22 17:18:36 2023.
