 Gaussian 16, Revision A.03,
 Gaussian 16:  ES64L-G16RevA.03 25-Dec-2016

 ----------
 # hf/3-21g
 ----------

 ------------------------
 tmpdir/M2_conf_284_3.gjf
 ------------------------
 Symbolic Z-matrix:
 Charge =  0 Multiplicity = 1

                         Standard orientation:
 ---------------------------------------------------------------------
 Center     Atomic      Atomic             Coordinates (Angstroms)
 Number     Number       Type             X           Y           Z
 ---------------------------------------------------------------------
      1          6           0       -2.500045    0.000007    0.000008
      2         17           0        1.376555   -0.000007   -0.000002
      3          1           0       -2.800414   -0.278197    0.992265
      4          1           0       -2.800102    0.998714   -0.255263
      5          1           0       -2.800649   -0.720439   -0.737023
 ---------------------------------------------------------------------

 SCF Done:  E(RHF) =  -496.494521713     A.U. after   10 cycles

 The electronic state is 1-A.
 Alpha  occ. eigenvalues -- -103.98509 -11.38936 -10.37288  -7.83607  -7.83430
 Alpha  occ. eigenvalues --   -7.83430  -1.07087  -0.92498  -0.72330  -0.72325
 Alpha  occ. eigenvalues --   -0.34448  -0.34448  -0.30680
 Alpha virt. eigenvalues --   -0.11750   0.19528   0.24120   0.24124   0.74855
 Alpha virt. eigenvalues --    0.78382   0.78395   0.83536   0.90244   0.90244
 Alpha virt. eigenvalues --    0.95029   1.09160   1.20926   1.20935   1.61471

 Mulliken charges:
               1
     1  C   -0.336402
     2  Cl  -0.608449
     3  H    0.314953
     4  H    0.314962
     5  H    0.314936
 Sum of Mulliken charges =   0.00000

 Dipole moment (field-independent basis, Debye):
    X=            -11.7157    Y=              0.0001    Z=              0.0000  Tot=             11.7157
 Quadrupole moment (field-independent basis, Debye-Ang):
   XX=             -4.1651   YY=            -20.3783   ZZ=            -20.3800
   XY=              0.0002   XZ=              0.0000   YZ=             -0.0001

 Normal termination of Gaussian 16 at Fri Sep 22 17:21:20 2023.
