 Gaussian 16, Revision A.03,
 Gaussian 16:  ES64L-G16RevA.03 25-Dec-2016

 ----------
 # hf/3-21g
 ----------

 ------------------------
 tmpdir/M2_conf_111_7.gjf
 ------------------------
 Symbolic Z-matrix:
 Charge =  0 Multiplicity = 1

                         Standard orientation:
 ---------------------------------------------------------------------
 Center     Atomic      Atomic             Coordinates (Angstroms)
 Number     Number       Type             X           Y           Z
 ---------------------------------------------------------------------
      1          1           0        0.467163   -0.172151    0.944696
      2          6           0        0.016470    0.021881   -0.010209
      3          1           0        0.722481   -0.371091   -0.717128
      4          1           0       -0.280580    1.047112   -0.123515
      5          1           0       -1.007882   -0.635159   -0.042800
 ---------------------------------------------------------------------

 SCF Done:  E(RHF) =  -39.9650687264     A.U. after    9 cycles

 The electronic state is 1-A.
 Alpha  occ. eigenvalues --  -11.15720  -0.93835  -0.56945  -0.53868  -0.50605
 Alpha virt. eigenvalues --    0.28235   0.32340   0.35013   0.36179   0.90620
 Alpha virt. eigenvalues --    0.93227   0.98216   1.24832   1.32728   1.35403
 Alpha virt. eigenvalues --    1.38479   1.94304

 Mulliken charges:
               1
     1  H    0.204545
     2  C   -0.772961
     3  H    0.206568
     4  H    0.208036
     5  H    0.153811
 Sum of Mulliken charges =   0.00000

 Dipole moment (field-independent basis, Debye):
    X=              0.0999    Y=              0.0209    Z=              0.0526  Tot=              0.1149
 Quadrupole moment (field-independent basis, Debye-Ang):
   XX=             -8.3551   YY=             -8.3945   ZZ=             -8.6852
   XY=             -0.2172   XZ=             -0.0241   YZ=             -0.0108

 Normal termination of Gaussian 16 at Fri Sep 22 17:16:53 2023.
