 Gaussian 16, Revision A.03,
 Gaussian 16:  ES64L-G16RevA.03 25-Dec-2016

 ----------
 # hf/3-21g
 ----------

 -----------------------
 tmpdir/M2_conf_16_1.gjf
 -----------------------
 Symbolic Z-matrix:
 Charge =  0 Multiplicity = 1

                         Standard orientation:
 ---------------------------------------------------------------------
 Center     Atomic      Atomic             Coordinates (Angstroms)
 Number     Number       Type             X           Y           Z
 ---------------------------------------------------------------------
      1          6           0       -0.016451   -0.025577    0.000059
      2          1           0       -1.006915    0.559963   -0.001897
      3          1           0        0.116675   -0.604577    0.894049
      4          1           0        0.117645   -0.609390   -0.890888
      5          1           0        0.871299    0.807462   -0.001617
 ---------------------------------------------------------------------

 SCF Done:  E(RHF) =  -39.9639836208     A.U. after    9 cycles

 The electronic state is 1-A.
 Alpha  occ. eigenvalues --  -11.16620  -0.93024  -0.55767  -0.54049  -0.50170
 Alpha virt. eigenvalues --    0.27928   0.31487   0.34382   0.35686   0.91748
 Alpha virt. eigenvalues --    0.94779   0.98521   1.24443   1.28062   1.34435
 Alpha virt. eigenvalues --    1.36749   1.93774

 Mulliken charges:
               1
     1  C   -0.758107
     2  H    0.185692
     3  H    0.209035
     4  H    0.208979
     5  H    0.154400
 Sum of Mulliken charges =  -0.00000

 Dipole moment (field-independent basis, Debye):
    X=              0.0000    Y=             -0.0703    Z=              0.0003  Tot=              0.0703
 Quadrupole moment (field-independent basis, Debye-Ang):
   XX=             -8.5663   YY=             -8.5672   ZZ=             -8.4640
   XY=             -0.1592   XZ=              0.0002   YZ=              0.0004

 Normal termination of Gaussian 16 at Fri Sep 22 17:14:31 2023.
