 Gaussian 16, Revision A.03,
 Gaussian 16:  ES64L-G16RevA.03 25-Dec-2016

 ----------
 # hf/3-21g
 ----------

 ------------------------
 tmpdir/M2_conf_229_9.gjf
 ------------------------
 Symbolic Z-matrix:
 Charge =  0 Multiplicity = 1

                         Standard orientation:
 ---------------------------------------------------------------------
 Center     Atomic      Atomic             Coordinates (Angstroms)
 Number     Number       Type             X           Y           Z
 ---------------------------------------------------------------------
      1          1           0        1.327635   -0.015248    1.062489
      2          6           0        1.202838    0.000060   -0.003723
      3         17           0       -0.689061    0.000092   -0.006845
      4          1           0        1.584812   -0.885791   -0.474424
      5          1           0        1.584562    0.899113   -0.449363
 ---------------------------------------------------------------------

 SCF Done:  E(RHF) =  -496.685649490     A.U. after   11 cycles

 The electronic state is 1-A.
 Alpha  occ. eigenvalues -- -104.08811 -11.24988 -10.48202  -7.94576  -7.94171
 Alpha  occ. eigenvalues --   -7.94170  -1.11379  -0.93310  -0.63421  -0.63196
 Alpha  occ. eigenvalues --   -0.51182  -0.43854  -0.43556
 Alpha virt. eigenvalues --    0.16365   0.27350   0.31373   0.31431   0.73875
 Alpha virt. eigenvalues --    0.80160   0.81034   0.85619   0.92621   0.94817
 Alpha virt. eigenvalues --    0.99986   1.30841   1.31182   1.32346   1.91426

 Mulliken charges:
               1
     1  H    0.276023
     2  C   -0.703785
     3  Cl  -0.107114
     4  H    0.267450
     5  H    0.267425
 Sum of Mulliken charges =  -0.00000

 Dipole moment (field-independent basis, Debye):
    X=              2.8542    Y=             -0.0014    Z=              0.0954  Tot=              2.8558
 Quadrupole moment (field-independent basis, Debye-Ang):
   XX=            -18.5577   YY=            -20.1831   ZZ=            -20.2274
   XY=              0.0032   XZ=             -0.2556   YZ=             -0.0001

 Normal termination of Gaussian 16 at Fri Sep 22 17:19:56 2023.
