 Gaussian 16, Revision A.03,
 Gaussian 16:  ES64L-G16RevA.03 25-Dec-2016

 ----------
 # hf/3-21g
 ----------

 ------------------------
 tmpdir/M2_conf_216_8.gjf
 ------------------------
 Symbolic Z-matrix:
 Charge =  0 Multiplicity = 1

                         Standard orientation:
 ---------------------------------------------------------------------
 Center     Atomic      Atomic             Coordinates (Angstroms)
 Number     Number       Type             X           Y           Z
 ---------------------------------------------------------------------
      1          1           0        0.584162    0.000081    0.827927
      2          6           0        1.215738    0.000016   -0.040249
      3         17           0       -0.676058   -0.000011   -0.020603
      4          1           0        1.807028    0.892479   -0.118132
      5          1           0        1.807372   -0.892471   -0.118058
 ---------------------------------------------------------------------

 SCF Done:  E(RHF) =  -496.541161280     A.U. after   12 cycles

 The electronic state is 1-A.
 Alpha  occ. eigenvalues -- -104.11108 -11.22871 -10.50954  -7.97310  -7.96838
 Alpha  occ. eigenvalues --   -7.96779  -1.17296  -0.92041  -0.66761  -0.62345
 Alpha  occ. eigenvalues --   -0.51450  -0.46514  -0.38152
 Alpha virt. eigenvalues --    0.11607   0.30351   0.32453   0.32730   0.73777
 Alpha virt. eigenvalues --    0.77328   0.79821   0.84398   0.92509   0.98420
 Alpha virt. eigenvalues --    1.03732   1.21483   1.31317   1.32186   1.81165

 Mulliken charges:
               1
     1  H    0.294403
     2  C   -0.738679
     3  Cl  -0.095730
     4  H    0.270022
     5  H    0.269984
 Sum of Mulliken charges =  -0.00000

 Dipole moment (field-independent basis, Debye):
    X=              2.0324    Y=              0.0001    Z=              0.6200  Tot=              2.1249
 Quadrupole moment (field-independent basis, Debye-Ang):
   XX=            -18.7831   YY=            -20.0474   ZZ=            -21.4561
   XY=             -0.0003   XZ=             -0.5649   YZ=             -0.0000

 Normal termination of Gaussian 16 at Fri Sep 22 17:19:36 2023.
