 Gaussian 16, Revision A.03,
 Gaussian 16:  ES64L-G16RevA.03 25-Dec-2016

 ----------
 # hf/3-21g
 ----------

 ------------------------
 tmpdir/M2_conf_169_3.gjf
 ------------------------
 Symbolic Z-matrix:
 Charge =  0 Multiplicity = 1

                         Standard orientation:
 ---------------------------------------------------------------------
 Center     Atomic      Atomic             Coordinates (Angstroms)
 Number     Number       Type             X           Y           Z
 ---------------------------------------------------------------------
      1          6           0       -1.599764    0.000013    0.000009
      2         17           0        0.899936   -0.000011   -0.000002
      3          1           0       -1.900132   -0.278190    0.992267
      4          1           0       -1.899816    0.998723   -0.255260
      5          1           0       -1.900375   -0.720430   -0.737022
 ---------------------------------------------------------------------

 SCF Done:  E(RHF) =  -496.628748327     A.U. after   10 cycles

 The electronic state is 1-A.
 Alpha  occ. eigenvalues -- -104.06628 -11.31078 -10.45263  -7.91580  -7.91337
 Alpha  occ. eigenvalues --   -7.91337  -1.02619  -0.97770  -0.65305  -0.65300
 Alpha  occ. eigenvalues --   -0.41899  -0.41180  -0.41180
 Alpha virt. eigenvalues --    0.01575   0.24787   0.29604   0.29608   0.73178
 Alpha virt. eigenvalues --    0.78676   0.78682   0.89966   0.92863   0.92871
 Alpha virt. eigenvalues --    0.98577   1.25801   1.27564   1.27574   1.78502

 Mulliken charges:
               1
     1  C   -0.434894
     2  Cl  -0.389765
     3  H    0.274899
     4  H    0.274897
     5  H    0.274863
 Sum of Mulliken charges =   0.00000

 Dipole moment (field-independent basis, Debye):
    X=             -5.3692    Y=              0.0001    Z=              0.0001  Tot=              5.3692
 Quadrupole moment (field-independent basis, Debye-Ang):
   XX=            -14.3580   YY=            -20.4222   ZZ=            -20.4236
   XY=              0.0004   XZ=             -0.0001   YZ=             -0.0001

 Normal termination of Gaussian 16 at Fri Sep 22 17:18:20 2023.
