 Gaussian 16, Revision A.03,
 Gaussian 16:  ES64L-G16RevA.03 25-Dec-2016

 ----------
 # hf/3-21g
 ----------

 ------------------------
 tmpdir/M2_conf_141_9.gjf
 ------------------------
 Symbolic Z-matrix:
 Charge =  0 Multiplicity = 1

                         Standard orientation:
 ---------------------------------------------------------------------
 Center     Atomic      Atomic             Coordinates (Angstroms)
 Number     Number       Type             X           Y           Z
 ---------------------------------------------------------------------
      1          1           0        0.904956   -0.001447    1.012079
      2          6           0        1.207827    0.000020   -0.017914
      3         17           0       -0.684072    0.000028   -0.019101
      4          1           0        1.738648   -0.892114   -0.290902
      5          1           0        1.738657    0.892965   -0.288972
 ---------------------------------------------------------------------

 SCF Done:  E(RHF) =  -496.638813770     A.U. after   11 cycles

 The electronic state is 1-A.
 Alpha  occ. eigenvalues -- -104.09398 -11.24611 -10.48871  -7.95233  -7.94819
 Alpha  occ. eigenvalues --   -7.94801  -1.12860  -0.92967  -0.64737  -0.63041
 Alpha  occ. eigenvalues --   -0.50421  -0.44625  -0.42072
 Alpha virt. eigenvalues --    0.14204   0.28036   0.31593   0.31710   0.74181
 Alpha virt. eigenvalues --    0.78868   0.80584   0.84754   0.93864   0.97125
 Alpha virt. eigenvalues --    1.02245   1.28083   1.31287   1.31713   1.85755

 Mulliken charges:
               1
     1  H    0.289365
     2  C   -0.709943
     3  Cl  -0.112706
     4  H    0.266658
     5  H    0.266626
 Sum of Mulliken charges =  -0.00000

 Dipole moment (field-independent basis, Debye):
    X=              2.6694    Y=             -0.0006    Z=              0.3461  Tot=              2.6918
 Quadrupole moment (field-independent basis, Debye-Ang):
   XX=            -18.5177   YY=            -20.1658   ZZ=            -20.7350
   XY=              0.0009   XZ=             -0.6974   YZ=             -0.0000

 Normal termination of Gaussian 16 at Fri Sep 22 17:17:38 2023.
