 Gaussian 16, Revision A.03,
 Gaussian 16:  ES64L-G16RevA.03 25-Dec-2016

 ----------
 # hf/3-21g
 ----------

 ----------------------
 tmpdir/M2_conf_9_6.gjf
 ----------------------
 Symbolic Z-matrix:
 Charge =  0 Multiplicity = 1

                         Standard orientation:
 ---------------------------------------------------------------------
 Center     Atomic      Atomic             Coordinates (Angstroms)
 Number     Number       Type             X           Y           Z
 ---------------------------------------------------------------------
      1          1           0       -1.677599   -0.003406    0.966618
      2          6           0       -1.202882    0.000008    0.003904
      3         17           0        0.689013   -0.000039    0.007139
      4          1           0       -1.408907    0.894696   -0.552602
      5          1           0       -1.409427   -0.890674   -0.558799
 ---------------------------------------------------------------------

 SCF Done:  E(RHF) =  -496.685523442     A.U. after   11 cycles

 The electronic state is 1-A.
 Alpha  occ. eigenvalues -- -104.08806 -11.24991 -10.48196  -7.94570  -7.94165
 Alpha  occ. eigenvalues --   -7.94165  -1.11374  -0.93308  -0.63329  -0.63298
 Alpha  occ. eigenvalues --   -0.51157  -0.43762  -0.43640
 Alpha virt. eigenvalues --    0.16324   0.27324   0.31361   0.31465   0.73871
 Alpha virt. eigenvalues --    0.80077   0.81252   0.85708   0.92399   0.94615
 Alpha virt. eigenvalues --    1.00303   1.30673   1.31304   1.32492   1.91476

 Mulliken charges:
               1
     1  H    0.264331
     2  C   -0.704827
     3  Cl  -0.106417
     4  H    0.273469
     5  H    0.273444
 Sum of Mulliken charges =  -0.00000

 Dipole moment (field-independent basis, Debye):
    X=             -2.8547    Y=              0.0004    Z=             -0.0905  Tot=              2.8561
 Quadrupole moment (field-independent basis, Debye-Ang):
   XX=            -18.5548   YY=            -20.1761   ZZ=            -20.2373
   XY=              0.0016   XZ=             -0.2684   YZ=             -0.0001

 Normal termination of Gaussian 16 at Fri Sep 22 17:14:21 2023.
