 Gaussian 16, Revision A.03,
 Gaussian 16:  ES64L-G16RevA.03 25-Dec-2016

 ----------
 # hf/3-21g
 ----------

 ------------------------
 tmpdir/M2_conf_293_8.gjf
 ------------------------
 Symbolic Z-matrix:
 Charge =  0 Multiplicity = 1

                         Standard orientation:
 ---------------------------------------------------------------------
 Center     Atomic      Atomic             Coordinates (Angstroms)
 Number     Number       Type             X           Y           Z
 ---------------------------------------------------------------------
      1          1           0        0.353975   -0.000003    0.559185
      2          6           0        1.224893    0.000022   -0.068604
      3         17           0       -0.666210   -0.000009   -0.013618
      4          1           0        1.810941    0.892489    0.041974
      5          1           0        1.811296   -0.892461    0.041966
 ---------------------------------------------------------------------

 SCF Done:  E(RHF) =  -496.388714845     A.U. after   12 cycles

 The electronic state is 1-A.
 Alpha  occ. eigenvalues -- -104.15073 -11.19093 -10.55469  -8.01913  -8.01200
 Alpha  occ. eigenvalues --   -8.01147  -1.27489  -0.90492  -0.69545  -0.60924
 Alpha  occ. eigenvalues --   -0.54483  -0.49518  -0.32884
 Alpha virt. eigenvalues --    0.10246   0.32958   0.34153   0.38189   0.68214
 Alpha virt. eigenvalues --    0.72691   0.74992   0.78786   0.93228   0.99494
 Alpha virt. eigenvalues --    1.05845   1.23247   1.34437   1.36372   1.82954

 Mulliken charges:
               1
     1  H    0.238004
     2  C   -0.827435
     3  Cl   0.049865
     4  H    0.269799
     5  H    0.269768
 Sum of Mulliken charges =  -0.00000

 Dipole moment (field-independent basis, Debye):
    X=              0.4888    Y=              0.0000    Z=              1.1377  Tot=              1.2382
 Quadrupole moment (field-independent basis, Debye-Ang):
   XX=            -19.3036   YY=            -19.6940   ZZ=            -22.2276
   XY=             -0.0003   XZ=              0.6161   YZ=              0.0001

 Normal termination of Gaussian 16 at Fri Sep 22 17:21:39 2023.
