 Gaussian 16, Revision A.03,
 Gaussian 16:  ES64L-G16RevA.03 25-Dec-2016

 ----------
 # hf/3-21g
 ----------

 ------------------------
 tmpdir/M2_conf_207_9.gjf
 ------------------------
 Symbolic Z-matrix:
 Charge =  0 Multiplicity = 1

                         Standard orientation:
 ---------------------------------------------------------------------
 Center     Atomic      Atomic             Coordinates (Angstroms)
 Number     Number       Type             X           Y           Z
 ---------------------------------------------------------------------
      1          1           0        1.027725   -0.002301    1.046189
      2          6           0        1.205804    0.000026   -0.012536
      3         17           0       -0.686087    0.000035   -0.016430
      4          1           0        1.700500   -0.891760   -0.347484
      5          1           0        1.700431    0.893317   -0.344170
 ---------------------------------------------------------------------

 SCF Done:  E(RHF) =  -496.659179601     A.U. after   11 cycles

 The electronic state is 1-A.
 Alpha  occ. eigenvalues -- -104.09122 -11.24817 -10.48549  -7.94916  -7.94507
 Alpha  occ. eigenvalues --   -7.94497  -1.12164  -0.93121  -0.64226  -0.63114
 Alpha  occ. eigenvalues --   -0.50579  -0.44290  -0.42761
 Alpha virt. eigenvalues --    0.15024   0.27676   0.31483   0.31595   0.74109
 Alpha virt. eigenvalues --    0.79276   0.80809   0.85154   0.93161   0.96529
 Alpha virt. eigenvalues --    1.01615   1.29198   1.31202   1.32054   1.87858

 Mulliken charges:
               1
     1  H    0.285700
     2  C   -0.707578
     3  Cl  -0.110383
     4  H    0.266146
     5  H    0.266116
 Sum of Mulliken charges =  -0.00000

 Dipole moment (field-independent basis, Debye):
    X=              2.7582    Y=             -0.0007    Z=              0.2689  Tot=              2.7713
 Quadrupole moment (field-independent basis, Debye-Ang):
   XX=            -18.5149   YY=            -20.1770   ZZ=            -20.5325
   XY=              0.0011   XZ=             -0.6086   YZ=             -0.0001

 Normal termination of Gaussian 16 at Fri Sep 22 17:19:23 2023.
