 Gaussian 16, Revision A.03,
 Gaussian 16:  ES64L-G16RevA.03 25-Dec-2016

 ----------
 # hf/3-21g
 ----------

 ------------------------
 tmpdir/M2_conf_263_5.gjf
 ------------------------
 Symbolic Z-matrix:
 Charge =  0 Multiplicity = 1

                         Standard orientation:
 ---------------------------------------------------------------------
 Center     Atomic      Atomic             Coordinates (Angstroms)
 Number     Number       Type             X           Y           Z
 ---------------------------------------------------------------------
      1          1           0        0.331436    0.967908   -0.354868
      2          6           0        0.031727    0.000120   -0.000259
      3          1           0        0.328078   -0.791573   -0.662088
      4          1           0        0.335785   -0.178153    1.013831
      5          1           0       -1.185662    0.001100    0.004679
 ---------------------------------------------------------------------

 SCF Done:  E(RHF) =  -39.9669407929     A.U. after    9 cycles

 The electronic state is 1-A.
 Alpha  occ. eigenvalues --  -11.15726  -0.93776  -0.55658  -0.55621  -0.50264
 Alpha virt. eigenvalues --    0.28319   0.32228   0.35679   0.35696   0.91907
 Alpha virt. eigenvalues --    0.91934   0.97632   1.25071   1.32446   1.36922
 Alpha virt. eigenvalues --    1.36965   1.94651

 Mulliken charges:
               1
     1  H    0.206510
     2  C   -0.770696
     3  H    0.206439
     4  H    0.206416
     5  H    0.151331
 Sum of Mulliken charges =  -0.00000

 Dipole moment (field-independent basis, Debye):
    X=              0.0705    Y=             -0.0005    Z=              0.0001  Tot=              0.0705
 Quadrupole moment (field-independent basis, Debye-Ang):
   XX=             -8.6581   YY=             -8.3872   ZZ=             -8.3926
   XY=              0.0007   XZ=              0.0018   YZ=             -0.0002

 Normal termination of Gaussian 16 at Fri Sep 22 17:20:48 2023.
