 Gaussian 16, Revision A.03,
 Gaussian 16:  ES64L-G16RevA.03 25-Dec-2016

 ----------
 # hf/3-21g
 ----------

 ------------------------
 tmpdir/M2_conf_108_3.gjf
 ------------------------
 Symbolic Z-matrix:
 Charge =  0 Multiplicity = 1

                         Standard orientation:
 ---------------------------------------------------------------------
 Center     Atomic      Atomic             Coordinates (Angstroms)
 Number     Number       Type             X           Y           Z
 ---------------------------------------------------------------------
      1          6           0       -1.200264    0.000019    0.000011
      2         17           0        0.688436   -0.000014   -0.000003
      3          1           0       -1.500632   -0.278182    0.992269
      4          1           0       -1.500308    0.998732   -0.255257
      5          1           0       -1.500883   -0.720420   -0.737021
 ---------------------------------------------------------------------

 SCF Done:  E(RHF) =  -496.689480255     A.U. after   10 cycles

 The electronic state is 1-A.
 Alpha  occ. eigenvalues -- -104.08771 -11.24966 -10.48169  -7.94544  -7.94139
 Alpha  occ. eigenvalues --   -7.94139  -1.11360  -0.93304  -0.63254  -0.63249
 Alpha  occ. eigenvalues --   -0.51380  -0.43728  -0.43728
 Alpha virt. eigenvalues --    0.16717   0.27345   0.31379   0.31382   0.73832
 Alpha virt. eigenvalues --    0.80694   0.80698   0.85498   0.93658   0.93670
 Alpha virt. eigenvalues --    0.99437   1.31237   1.31246   1.32235   1.92114

 Mulliken charges:
               1
     1  C   -0.704648
     2  Cl  -0.104994
     3  H    0.269906
     4  H    0.269881
     5  H    0.269854
 Sum of Mulliken charges =   0.00000

 Dipole moment (field-independent basis, Debye):
    X=             -2.8554    Y=              0.0001    Z=              0.0001  Tot=              2.8554
 Quadrupole moment (field-independent basis, Debye-Ang):
   XX=            -18.5900   YY=            -20.1769   ZZ=            -20.1782
   XY=              0.0007   XZ=             -0.0001   YZ=             -0.0001

 Normal termination of Gaussian 16 at Fri Sep 22 17:16:49 2023.
