 Gaussian 16, Revision A.03,
 Gaussian 16:  ES64L-G16RevA.03 25-Dec-2016

 ----------
 # hf/3-21g
 ----------

 ------------------------
 tmpdir/M2_conf_125_9.gjf
 ------------------------
 Symbolic Z-matrix:
 Charge =  0 Multiplicity = 1

                         Standard orientation:
 ---------------------------------------------------------------------
 Center     Atomic      Atomic             Coordinates (Angstroms)
 Number     Number       Type             X           Y           Z
 ---------------------------------------------------------------------
      1          1           0        1.645400   -0.016444    0.981038
      2          6           0        1.202699   -0.000037    0.003099
      3         17           0       -0.689197   -0.000109    0.005828
      4          1           0        1.427588   -0.883161   -0.564099
      5          1           0        1.427166    0.901676   -0.534612
 ---------------------------------------------------------------------

 SCF Done:  E(RHF) =  -496.686875057     A.U. after   11 cycles

 The electronic state is 1-A.
 Alpha  occ. eigenvalues -- -104.08795 -11.24995 -10.48185  -7.94559  -7.94154
 Alpha  occ. eigenvalues --   -7.94154  -1.11342  -0.93318  -0.63310  -0.63270
 Alpha  occ. eigenvalues --   -0.51214  -0.43766  -0.43654
 Alpha virt. eigenvalues --    0.16421   0.27329   0.31362   0.31437   0.73857
 Alpha virt. eigenvalues --    0.80189   0.81141   0.85639   0.92634   0.94500
 Alpha virt. eigenvalues --    1.00032   1.30810   1.31293   1.32418   1.91651

 Mulliken charges:
               1
     1  H    0.265209
     2  C   -0.704016
     3  Cl  -0.106675
     4  H    0.272751
     5  H    0.272731
 Sum of Mulliken charges =  -0.00000

 Dipole moment (field-independent basis, Debye):
    X=              2.8586    Y=              0.0012    Z=             -0.0744  Tot=              2.8596
 Quadrupole moment (field-independent basis, Debye-Ang):
   XX=            -18.5599   YY=            -20.1774   ZZ=            -20.2182
   XY=             -0.0044   XZ=              0.2185   YZ=              0.0000

 Normal termination of Gaussian 16 at Fri Sep 22 17:17:14 2023.
