 Gaussian 16, Revision A.03,
 Gaussian 16:  ES64L-G16RevA.03 25-Dec-2016

 ----------
 # hf/3-21g
 ----------

 ------------------------
 tmpdir/M2_conf_205_2.gjf
 ------------------------
 Symbolic Z-matrix:
 Charge =  0 Multiplicity = 1

                         Standard orientation:
 ---------------------------------------------------------------------
 Center     Atomic      Atomic             Coordinates (Angstroms)
 Number     Number       Type             X           Y           Z
 ---------------------------------------------------------------------
      1          6           0        0.021204   -0.021897   -0.000015
      2          1           0        0.900089    0.700218   -0.004088
      3          1           0       -0.018464   -0.615099    0.893706
      4          1           0       -0.024752   -0.618446   -0.891441
      5          1           0       -0.984095    0.664710    0.001912
 ---------------------------------------------------------------------

 SCF Done:  E(RHF) =  -39.9649405109     A.U. after    9 cycles

 The electronic state is 1-A.
 Alpha  occ. eigenvalues --  -11.16469  -0.93137  -0.55747  -0.54301  -0.50199
 Alpha virt. eigenvalues --    0.28016   0.31650   0.34553   0.35688   0.91779
 Alpha virt. eigenvalues --    0.94407   0.98254   1.24612   1.28850   1.34640
 Alpha virt. eigenvalues --    1.36787   1.93918

 Mulliken charges:
               1
     1  C   -0.760497
     2  H    0.189365
     3  H    0.208637
     4  H    0.208587
     5  H    0.153908
 Sum of Mulliken charges =  -0.00000

 Dipole moment (field-independent basis, Debye):
    X=              0.0195    Y=             -0.0640    Z=              0.0001  Tot=              0.0669
 Quadrupole moment (field-independent basis, Debye-Ang):
   XX=             -8.6068   YY=             -8.5131   ZZ=             -8.4513
   XY=              0.1474   XZ=              0.0012   YZ=             -0.0003

 Normal termination of Gaussian 16 at Fri Sep 22 17:19:20 2023.
