 Gaussian 16, Revision A.03,
 Gaussian 16:  ES64L-G16RevA.03 25-Dec-2016

 ----------
 # hf/3-21g
 ----------

 ------------------------
 tmpdir/M2_conf_103_3.gjf
 ------------------------
 Symbolic Z-matrix:
 Charge =  0 Multiplicity = 1

                         Standard orientation:
 ---------------------------------------------------------------------
 Center     Atomic      Atomic             Coordinates (Angstroms)
 Number     Number       Type             X           Y           Z
 ---------------------------------------------------------------------
      1          6           0       -1.165087    0.000020    0.000011
      2         17           0        0.669813   -0.000015   -0.000003
      3          1           0       -1.465455   -0.278181    0.992269
      4          1           0       -1.465130    0.998733   -0.255256
      5          1           0       -1.465707   -0.720419   -0.737021
 ---------------------------------------------------------------------

 SCF Done:  E(RHF) =  -496.688317973     A.U. after   10 cycles

 The electronic state is 1-A.
 Alpha  occ. eigenvalues -- -104.08728 -11.24380 -10.48283  -7.94669  -7.94236
 Alpha  occ. eigenvalues --   -7.94236  -1.12778  -0.92734  -0.63412  -0.63407
 Alpha  occ. eigenvalues --   -0.52325  -0.43718  -0.43718
 Alpha virt. eigenvalues --    0.18631   0.27582   0.31406   0.31409   0.73967
 Alpha virt. eigenvalues --    0.80922   0.80925   0.85474   0.93708   0.93720
 Alpha virt. eigenvalues --    0.97927   1.31438   1.31447   1.32888   1.93902

 Mulliken charges:
               1
     1  C   -0.739485
     2  Cl  -0.069472
     3  H    0.269679
     4  H    0.269651
     5  H    0.269626
 Sum of Mulliken charges =  -0.00000

 Dipole moment (field-independent basis, Debye):
    X=             -2.6768    Y=              0.0000    Z=              0.0001  Tot=              2.6768
 Quadrupole moment (field-independent basis, Debye-Ang):
   XX=            -18.9176   YY=            -20.1254   ZZ=            -20.1267
   XY=              0.0007   XZ=             -0.0001   YZ=             -0.0001

 Normal termination of Gaussian 16 at Fri Sep 22 17:16:41 2023.
