 Gaussian 16, Revision A.03,
 Gaussian 16:  ES64L-G16RevA.03 25-Dec-2016

 ----------
 # hf/3-21g
 ----------

 ------------------------
 tmpdir/M2_conf_279_4.gjf
 ------------------------
 Symbolic Z-matrix:
 Charge =  0 Multiplicity = 1

                         Standard orientation:
 ---------------------------------------------------------------------
 Center     Atomic      Atomic             Coordinates (Angstroms)
 Number     Number       Type             X           Y           Z
 ---------------------------------------------------------------------
      1          1           0       -1.017097    0.228288   -0.340625
      2          6           0       -0.024907   -0.025906   -0.019483
      3          1           0        0.689865   -0.429904   -0.711223
      4          1           0       -0.023679   -0.660721    0.846319
      5          1           0        0.500356    1.017775    0.322425
 ---------------------------------------------------------------------

 SCF Done:  E(RHF) =  -39.9639038809     A.U. after    9 cycles

 The electronic state is 1-A.
 Alpha  occ. eigenvalues --  -11.15747  -0.93822  -0.57249  -0.54459  -0.49737
 Alpha virt. eigenvalues --    0.28327   0.31841   0.35153   0.36304   0.90795
 Alpha virt. eigenvalues --    0.93913   0.97367   1.25272   1.31785   1.35896
 Alpha virt. eigenvalues --    1.38618   1.94616

 Mulliken charges:
               1
     1  H    0.210069
     2  C   -0.775611
     3  H    0.209849
     4  H    0.206035
     5  H    0.149658
 Sum of Mulliken charges =   0.00000

 Dipole moment (field-independent basis, Debye):
    X=              0.0144    Y=             -0.0679    Z=              0.0129  Tot=              0.0706
 Quadrupole moment (field-independent basis, Debye-Ang):
   XX=             -8.1905   YY=             -8.5973   ZZ=             -8.6679
   XY=             -0.1940   XZ=             -0.0514   YZ=             -0.1185

 Normal termination of Gaussian 16 at Fri Sep 22 17:21:12 2023.
