 Gaussian 16, Revision A.03,
 Gaussian 16:  ES64L-G16RevA.03 25-Dec-2016

 ----------
 # hf/3-21g
 ----------

 ------------------------
 tmpdir/M2_conf_189_6.gjf
 ------------------------
 Symbolic Z-matrix:
 Charge =  0 Multiplicity = 1

                         Standard orientation:
 ---------------------------------------------------------------------
 Center     Atomic      Atomic             Coordinates (Angstroms)
 Number     Number       Type             X           Y           Z
 ---------------------------------------------------------------------
      1          1           0       -0.811561   -0.000783    0.973815
      2          6           0       -1.209710    0.000026   -0.023012
      3         17           0        0.682188    0.000011   -0.020460
      4          1           0       -1.763577    0.892909   -0.243474
      5          1           0       -1.763804   -0.892471   -0.244456
 ---------------------------------------------------------------------

 SCF Done:  E(RHF) =  -496.618160713     A.U. after   11 cycles

 The electronic state is 1-A.
 Alpha  occ. eigenvalues -- -104.09703 -11.24343 -10.49238  -7.95596  -7.95175
 Alpha  occ. eigenvalues --   -7.95147  -1.13645  -0.92797  -0.65206  -0.62940
 Alpha  occ. eigenvalues --   -0.50447  -0.44987  -0.41303
 Alpha virt. eigenvalues --    0.13497   0.28462   0.31735   0.31833   0.74185
 Alpha virt. eigenvalues --    0.78515   0.80415   0.84546   0.94202   0.97545
 Alpha virt. eigenvalues --    1.02662   1.26836   1.31406   1.31417   1.84110

 Mulliken charges:
               1
     1  H    0.292094
     2  C   -0.713261
     3  Cl  -0.113586
     4  H    0.267379
     5  H    0.267374
 Sum of Mulliken charges =  -0.00000

 Dipole moment (field-independent basis, Debye):
    X=             -2.5652    Y=             -0.0003    Z=              0.4106  Tot=              2.5978
 Quadrupole moment (field-independent basis, Debye-Ang):
   XX=            -18.5446   YY=            -20.1492   ZZ=            -20.9178
   XY=             -0.0004   XZ=              0.7287   YZ=             -0.0001

 Normal termination of Gaussian 16 at Fri Sep 22 17:18:56 2023.
