 Gaussian 16, Revision A.03,
 Gaussian 16:  ES64L-G16RevA.03 25-Dec-2016

 ----------
 # hf/3-21g
 ----------

 -----------------------
 tmpdir/M2_conf_23_2.gjf
 -----------------------
 Symbolic Z-matrix:
 Charge =  0 Multiplicity = 1

                         Standard orientation:
 ---------------------------------------------------------------------
 Center     Atomic      Atomic             Coordinates (Angstroms)
 Number     Number       Type             X           Y           Z
 ---------------------------------------------------------------------
      1          6           0        0.001207   -0.030811   -0.000016
      2          1           0        1.189310    0.223898   -0.001910
      3          1           0       -0.307834   -0.540608    0.892621
      4          1           0       -0.311650   -0.538897   -0.892535
      5          1           0       -0.577070    1.040473    0.001920
 ---------------------------------------------------------------------

 SCF Done:  E(RHF) =  -39.9572473633     A.U. after    9 cycles

 The electronic state is 1-A.
 Alpha  occ. eigenvalues --  -11.17346  -0.92547  -0.55899  -0.52924  -0.49912
 Alpha virt. eigenvalues --    0.27277   0.30609   0.33783   0.35683   0.91633
 Alpha virt. eigenvalues --    0.95690   1.00644   1.22460   1.25694   1.33719
 Alpha virt. eigenvalues --    1.36570   1.93034

 Mulliken charges:
               1
     1  C   -0.744955
     2  H    0.166842
     3  H    0.210769
     4  H    0.210717
     5  H    0.156626
 Sum of Mulliken charges =   0.00000

 Dipole moment (field-independent basis, Debye):
    X=             -0.0775    Y=             -0.0725    Z=              0.0002  Tot=              0.1061
 Quadrupole moment (field-independent basis, Debye-Ang):
   XX=             -8.4857   YY=             -8.7157   ZZ=             -8.5205
   XY=              0.1371   XZ=              0.0009   YZ=             -0.0008

 Normal termination of Gaussian 16 at Fri Sep 22 17:14:42 2023.
