 Gaussian 16, Revision A.03,
 Gaussian 16:  ES64L-G16RevA.03 25-Dec-2016

 ----------
 # hf/3-21g
 ----------

 -----------------------
 tmpdir/M2_conf_51_6.gjf
 -----------------------
 Symbolic Z-matrix:
 Charge =  0 Multiplicity = 1

                         Standard orientation:
 ---------------------------------------------------------------------
 Center     Atomic      Atomic             Coordinates (Angstroms)
 Number     Number       Type             X           Y           Z
 ---------------------------------------------------------------------
      1          1           0       -1.360603   -0.011336    1.058681
      2          6           0       -1.202675    0.000050   -0.002977
      3         17           0        0.689221    0.000049   -0.005603
      4          1           0       -1.569828    0.897745   -0.463360
      5          1           0       -1.570273   -0.887535   -0.482218
 ---------------------------------------------------------------------

 SCF Done:  E(RHF) =  -496.686965564     A.U. after   11 cycles

 The electronic state is 1-A.
 Alpha  occ. eigenvalues -- -104.08797 -11.24993 -10.48187  -7.94561  -7.94157
 Alpha  occ. eigenvalues --   -7.94157  -1.11345  -0.93319  -0.63371  -0.63203
 Alpha  occ. eigenvalues --   -0.51229  -0.43825  -0.43600
 Alpha virt. eigenvalues --    0.16446   0.27343   0.31371   0.31417   0.73859
 Alpha virt. eigenvalues --    0.80258   0.80998   0.85591   0.92757   0.94616
 Alpha virt. eigenvalues --    0.99847   1.30953   1.31182   1.32333   1.91627

 Mulliken charges:
               1
     1  H    0.274922
     2  C   -0.703444
     3  Cl  -0.107060
     4  H    0.267801
     5  H    0.267781
 Sum of Mulliken charges =  -0.00000

 Dipole moment (field-independent basis, Debye):
    X=             -2.8585    Y=             -0.0008    Z=              0.0772  Tot=              2.8595
 Quadrupole moment (field-independent basis, Debye-Ang):
   XX=            -18.5618   YY=            -20.1822   ZZ=            -20.2114
   XY=             -0.0017   XZ=              0.2089   YZ=             -0.0002

 Normal termination of Gaussian 16 at Fri Sep 22 17:15:23 2023.
