 Gaussian 16, Revision A.03,
 Gaussian 16:  ES64L-G16RevA.03 25-Dec-2016

 ----------
 # hf/3-21g
 ----------

 ------------------------
 tmpdir/M2_conf_298_6.gjf
 ------------------------
 Symbolic Z-matrix:
 Charge =  0 Multiplicity = 1

                         Standard orientation:
 ---------------------------------------------------------------------
 Center     Atomic      Atomic             Coordinates (Angstroms)
 Number     Number       Type             X           Y           Z
 ---------------------------------------------------------------------
      1          1           0       -1.534409   -0.101678    1.016346
      2          6           0       -1.202373   -0.000046    0.000663
      3         17           0        0.689524   -0.000141    0.001281
      4          1           0       -1.486385    0.940441   -0.432273
      5          1           0       -1.486876   -0.836089   -0.609828
 ---------------------------------------------------------------------

 SCF Done:  E(RHF) =  -496.689357048     A.U. after   11 cycles

 The electronic state is 1-A.
 Alpha  occ. eigenvalues -- -104.08773 -11.25001 -10.48163  -7.94537  -7.94133
 Alpha  occ. eigenvalues --   -7.94133  -1.11283  -0.93336  -0.63257  -0.63238
 Alpha  occ. eigenvalues --   -0.51319  -0.43743  -0.43709
 Alpha virt. eigenvalues --    0.16598   0.27332   0.31371   0.31388   0.73826
 Alpha virt. eigenvalues --    0.80579   0.80782   0.85504   0.93446   0.93873
 Alpha virt. eigenvalues --    0.99547   1.31202   1.31237   1.32206   1.91990

 Mulliken charges:
               1
     1  H    0.268820
     2  C   -0.702670
     3  Cl  -0.107043
     4  H    0.270458
     5  H    0.270435
 Sum of Mulliken charges =   0.00000

 Dipole moment (field-independent basis, Debye):
    X=             -2.8659    Y=              0.0017    Z=             -0.0166  Tot=              2.8660
 Quadrupole moment (field-independent basis, Debye-Ang):
   XX=            -18.5698   YY=            -20.1792   ZZ=            -20.1833
   XY=              0.0054   XZ=             -0.0481   YZ=              0.0000

 Normal termination of Gaussian 16 at Fri Sep 22 17:21:46 2023.
