 Gaussian 16, Revision A.03,
 Gaussian 16:  ES64L-G16RevA.03 25-Dec-2016

 ----------
 # hf/3-21g
 ----------

 -----------------------
 tmpdir/M2_conf_42_2.gjf
 -----------------------
 Symbolic Z-matrix:
 Charge =  0 Multiplicity = 1

                         Standard orientation:
 ---------------------------------------------------------------------
 Center     Atomic      Atomic             Coordinates (Angstroms)
 Number     Number       Type             X           Y           Z
 ---------------------------------------------------------------------
      1          6           0        0.020988   -0.022098   -0.000015
      2          1           0        0.905873    0.693608   -0.004052
      3          1           0       -0.023263   -0.615003    0.893688
      4          1           0       -0.029541   -0.618248   -0.891459
      5          1           0       -0.978995    0.672229    0.001912
 ---------------------------------------------------------------------

 SCF Done:  E(RHF) =  -39.9649002130     A.U. after    9 cycles

 The electronic state is 1-A.
 Alpha  occ. eigenvalues --  -11.16476  -0.93131  -0.55748  -0.54289  -0.50198
 Alpha virt. eigenvalues --    0.28012   0.31643   0.34545   0.35688   0.91778
 Alpha virt. eigenvalues --    0.94425   0.98265   1.24605   1.28813   1.34630
 Alpha virt. eigenvalues --    1.36786   1.93911

 Mulliken charges:
               1
     1  C   -0.760390
     2  H    0.189198
     3  H    0.208655
     4  H    0.208605
     5  H    0.153931
 Sum of Mulliken charges =   0.00000

 Dipole moment (field-independent basis, Debye):
    X=              0.0186    Y=             -0.0644    Z=              0.0001  Tot=              0.0671
 Quadrupole moment (field-independent basis, Debye-Ang):
   XX=             -8.6048   YY=             -8.5157   ZZ=             -8.4519
   XY=              0.1484   XZ=              0.0012   YZ=             -0.0003

 Normal termination of Gaussian 16 at Fri Sep 22 17:15:10 2023.
