 Gaussian 16, Revision A.03,
 Gaussian 16:  ES64L-G16RevA.03 25-Dec-2016

 ----------
 # hf/3-21g
 ----------

 ------------------------
 tmpdir/M2_conf_220_3.gjf
 ------------------------
 Symbolic Z-matrix:
 Charge =  0 Multiplicity = 1

                         Standard orientation:
 ---------------------------------------------------------------------
 Center     Atomic      Atomic             Coordinates (Angstroms)
 Number     Number       Type             X           Y           Z
 ---------------------------------------------------------------------
      1          6           0       -2.035814    0.000009    0.000008
      2         17           0        1.130786   -0.000009   -0.000002
      3          1           0       -2.336183   -0.278194    0.992266
      4          1           0       -2.335869    0.998718   -0.255262
      5          1           0       -2.336421   -0.720436   -0.737023
 ---------------------------------------------------------------------

 SCF Done:  E(RHF) =  -496.548820032     A.U. after   10 cycles

 The electronic state is 1-A.
 Alpha  occ. eigenvalues -- -104.02308 -11.36010 -10.40987  -7.87304  -7.87102
 Alpha  occ. eigenvalues --   -7.87102  -1.04259  -0.95627  -0.69375  -0.69370
 Alpha  occ. eigenvalues --   -0.37497  -0.37497  -0.35056
 Alpha virt. eigenvalues --   -0.06766   0.21810   0.26558   0.26562   0.72315
 Alpha virt. eigenvalues --    0.79372   0.79382   0.84642   0.89850   0.89854
 Alpha virt. eigenvalues --    0.98350   1.16742   1.23637   1.23647   1.67635

 Mulliken charges:
               1
     1  C   -0.352124
     2  Cl  -0.539533
     3  H    0.297225
     4  H    0.297231
     5  H    0.297202
 Sum of Mulliken charges =  -0.00000

 Dipole moment (field-independent basis, Debye):
    X=             -8.5551    Y=              0.0001    Z=              0.0001  Tot=              8.5551
 Quadrupole moment (field-independent basis, Debye-Ang):
   XX=             -9.4976   YY=            -20.4050   ZZ=            -20.4065
   XY=              0.0002   XZ=             -0.0000   YZ=             -0.0001

 Normal termination of Gaussian 16 at Fri Sep 22 17:19:42 2023.
