 Gaussian 16, Revision A.03,
 Gaussian 16:  ES64L-G16RevA.03 25-Dec-2016

 ----------
 # hf/3-21g
 ----------

 ------------------------
 tmpdir/M2_conf_142_6.gjf
 ------------------------
 Symbolic Z-matrix:
 Charge =  0 Multiplicity = 1

                         Standard orientation:
 ---------------------------------------------------------------------
 Center     Atomic      Atomic             Coordinates (Angstroms)
 Number     Number       Type             X           Y           Z
 ---------------------------------------------------------------------
      1          1           0       -1.245063   -0.004145    1.066881
      2          6           0       -1.203388    0.000038   -0.005701
      3         17           0        0.688508    0.000028   -0.009821
      4          1           0       -1.619418    0.894404   -0.429541
      5          1           0       -1.619827   -0.890963   -0.436170
 ---------------------------------------------------------------------

 SCF Done:  E(RHF) =  -496.681090483     A.U. after   11 cycles

 The electronic state is 1-A.
 Alpha  occ. eigenvalues -- -104.08859 -11.24967 -10.48254  -7.94627  -7.94222
 Alpha  occ. eigenvalues --   -7.94219  -1.11504  -0.93278  -0.63582  -0.63176
 Alpha  occ. eigenvalues --   -0.51037  -0.43938  -0.43419
 Alpha virt. eigenvalues --    0.16102   0.27389   0.31389   0.31463   0.73930
 Alpha virt. eigenvalues --    0.79924   0.81054   0.85639   0.92430   0.95332
 Alpha virt. eigenvalues --    1.00395   1.30479   1.31165   1.32378   1.90745

 Mulliken charges:
               1
     1  H    0.278879
     2  C   -0.704768
     3  Cl  -0.107494
     4  H    0.266700
     5  H    0.266683
 Sum of Mulliken charges =  -0.00000

 Dipole moment (field-independent basis, Debye):
    X=             -2.8393    Y=             -0.0005    Z=              0.1419  Tot=              2.8428
 Quadrupole moment (field-independent basis, Debye-Ang):
   XX=            -18.5457   YY=            -20.1826   ZZ=            -20.2842
   XY=             -0.0010   XZ=              0.3661   YZ=             -0.0001

 Normal termination of Gaussian 16 at Fri Sep 22 17:17:40 2023.
