 Gaussian 16, Revision A.03,
 Gaussian 16:  ES64L-G16RevA.03 25-Dec-2016

 ----------
 # hf/3-21g
 ----------

 -----------------------
 tmpdir/M2_conf_94_2.gjf
 -----------------------
 Symbolic Z-matrix:
 Charge =  0 Multiplicity = 1

                         Standard orientation:
 ---------------------------------------------------------------------
 Center     Atomic      Atomic             Coordinates (Angstroms)
 Number     Number       Type             X           Y           Z
 ---------------------------------------------------------------------
      1          6           0        0.031665    0.000046    0.000075
      2          1           0        0.332575   -0.365691    0.962893
      3          1           0        0.334137   -0.649988   -0.798777
      4          1           0        0.329024    1.018509   -0.164040
      5          1           0       -1.185728   -0.003106   -0.000528
 ---------------------------------------------------------------------

 SCF Done:  E(RHF) =  -39.9669434442     A.U. after    9 cycles

 The electronic state is 1-A.
 Alpha  occ. eigenvalues --  -11.15719  -0.93783  -0.55649  -0.55638  -0.50270
 Alpha virt. eigenvalues --    0.28320   0.32234   0.35688   0.35698   0.91892
 Alpha virt. eigenvalues --    0.91920   0.97634   1.25071   1.32475   1.36946
 Alpha virt. eigenvalues --    1.36976   1.94657

 Mulliken charges:
               1
     1  C   -0.770766
     2  H    0.206574
     3  H    0.206454
     4  H    0.206406
     5  H    0.151331
 Sum of Mulliken charges =  -0.00000

 Dipole moment (field-independent basis, Debye):
    X=              0.0710    Y=              0.0001    Z=              0.0002  Tot=              0.0710
 Quadrupole moment (field-independent basis, Debye-Ang):
   XX=             -8.6565   YY=             -8.3894   ZZ=             -8.3906
   XY=             -0.0016   XZ=              0.0001   YZ=             -0.0003

 Normal termination of Gaussian 16 at Fri Sep 22 17:16:28 2023.
