 Gaussian 16, Revision A.03,
 Gaussian 16:  ES64L-G16RevA.03 25-Dec-2016

 ----------
 # hf/3-21g
 ----------

 ------------------------
 tmpdir/M2_conf_240_6.gjf
 ------------------------
 Symbolic Z-matrix:
 Charge =  0 Multiplicity = 1

                         Standard orientation:
 ---------------------------------------------------------------------
 Center     Atomic      Atomic             Coordinates (Angstroms)
 Number     Number       Type             X           Y           Z
 ---------------------------------------------------------------------
      1          1           0       -1.120026   -0.002155    1.060778
      2          6           0       -1.204603    0.000033   -0.009283
      3         17           0        0.687287    0.000019   -0.013875
      4          1           0       -1.667940    0.893504   -0.382966
      5          1           0       -1.668303   -0.891873   -0.386237
 ---------------------------------------------------------------------

 SCF Done:  E(RHF) =  -496.670416157     A.U. after   11 cycles

 The electronic state is 1-A.
 Alpha  occ. eigenvalues -- -104.08982 -11.24904 -10.48390  -7.94759  -7.94353
 Alpha  occ. eigenvalues --   -7.94347  -1.11814  -0.93202  -0.63914  -0.63146
 Alpha  occ. eigenvalues --   -0.50769  -0.44111  -0.43107
 Alpha virt. eigenvalues --    0.15545   0.27513   0.31432   0.31530   0.74033
 Alpha virt. eigenvalues --    0.79559   0.80951   0.85441   0.92679   0.96048
 Alpha virt. eigenvalues --    1.01095   1.29811   1.31169   1.32256   1.89254

 Mulliken charges:
               1
     1  H    0.282915
     2  C   -0.706336
     3  Cl  -0.108826
     4  H    0.266130
     5  H    0.266116
 Sum of Mulliken charges =  -0.00000

 Dipole moment (field-independent basis, Debye):
    X=             -2.8016    Y=             -0.0004    Z=              0.2140  Tot=              2.8098
 Quadrupole moment (field-independent basis, Debye-Ang):
   XX=            -18.5257   YY=            -20.1805   ZZ=            -20.4099
   XY=             -0.0007   XZ=              0.5160   YZ=             -0.0001

 Normal termination of Gaussian 16 at Fri Sep 22 17:20:13 2023.
