 Gaussian 16, Revision A.03,
 Gaussian 16:  ES64L-G16RevA.03 25-Dec-2016

 ----------
 # hf/3-21g
 ----------

 ------------------------
 tmpdir/M2_conf_151_8.gjf
 ------------------------
 Symbolic Z-matrix:
 Charge =  0 Multiplicity = 1

                         Standard orientation:
 ---------------------------------------------------------------------
 Center     Atomic      Atomic             Coordinates (Angstroms)
 Number     Number       Type             X           Y           Z
 ---------------------------------------------------------------------
      1          1           0       -1.366577   -0.012918    1.058114
      2          6           0       -1.202656    0.000022   -0.002819
      3         17           0        0.689247    0.000071   -0.005377
      4          1           0       -1.567250   -0.886619   -0.485640
      5          1           0       -1.567436    0.898202   -0.464152
 ---------------------------------------------------------------------

 SCF Done:  E(RHF) =  -496.687174011     A.U. after   11 cycles

 The electronic state is 1-A.
 Alpha  occ. eigenvalues -- -104.08795 -11.24994 -10.48185  -7.94559  -7.94155
 Alpha  occ. eigenvalues --   -7.94154  -1.11339  -0.93321  -0.63365  -0.63203
 Alpha  occ. eigenvalues --   -0.51235  -0.43820  -0.43607
 Alpha virt. eigenvalues --    0.16458   0.27341   0.31370   0.31416   0.73856
 Alpha virt. eigenvalues --    0.80273   0.80993   0.85586   0.92798   0.94566
 Alpha virt. eigenvalues --    0.99823   1.30985   1.31188   1.32311   1.91657

 Mulliken charges:
               1
     1  H    0.274673
     2  C   -0.703369
     3  Cl  -0.107062
     4  H    0.267903
     5  H    0.267855
 Sum of Mulliken charges =  -0.00000

 Dipole moment (field-independent basis, Debye):
    X=             -2.8592    Y=             -0.0010    Z=              0.0736  Tot=              2.8601
 Quadrupole moment (field-independent basis, Debye-Ang):
   XX=            -18.5626   YY=            -20.1832   ZZ=            -20.2077
   XY=             -0.0025   XZ=              0.2010   YZ=             -0.0000

 Normal termination of Gaussian 16 at Fri Sep 22 17:17:53 2023.
