 Gaussian 16, Revision A.03,
 Gaussian 16:  ES64L-G16RevA.03 25-Dec-2016

 ----------
 # hf/3-21g
 ----------

 ------------------------
 tmpdir/M2_conf_274_0.gjf
 ------------------------
 Symbolic Z-matrix:
 Charge =  0 Multiplicity = 1

                         Standard orientation:
 ---------------------------------------------------------------------
 Center     Atomic      Atomic             Coordinates (Angstroms)
 Number     Number       Type             X           Y           Z
 ---------------------------------------------------------------------
      1          6           0       -0.032255    0.000055    0.013283
      2          1           0       -0.154140   -0.001304    0.996254
      3          1           0       -0.408504    0.894482   -0.446131
      4          1           0       -0.413372   -0.890893   -0.448850
      5          1           0        1.169548   -0.002617   -0.180972
 ---------------------------------------------------------------------

 SCF Done:  E(RHF) =  -39.9604074705     A.U. after    9 cycles

 The electronic state is 1-A.
 Alpha  occ. eigenvalues --  -11.14763  -0.94852  -0.57460  -0.55524  -0.50289
 Alpha virt. eigenvalues --    0.28528   0.32592   0.35681   0.37548   0.88141
 Alpha virt. eigenvalues --    0.92124   0.97559   1.25378   1.34104   1.37096
 Alpha virt. eigenvalues --    1.44810   1.95920

 Mulliken charges:
               1
     1  C   -0.779952
     2  H    0.226009
     3  H    0.203126
     4  H    0.203119
     5  H    0.147698
 Sum of Mulliken charges =  -0.00000

 Dipole moment (field-independent basis, Debye):
    X=             -0.0837    Y=              0.0002    Z=              0.0569  Tot=              0.1012
 Quadrupole moment (field-independent basis, Debye-Ang):
   XX=             -8.5680   YY=             -8.3062   ZZ=             -8.3777
   XY=              0.0011   XZ=              0.0442   YZ=             -0.0004

 Normal termination of Gaussian 16 at Fri Sep 22 17:21:05 2023.
