 Gaussian 16, Revision A.03,
 Gaussian 16:  ES64L-G16RevA.03 25-Dec-2016

 ----------
 # hf/3-21g
 ----------

 ------------------------
 tmpdir/M2_conf_200_3.gjf
 ------------------------
 Symbolic Z-matrix:
 Charge =  0 Multiplicity = 1

                         Standard orientation:
 ---------------------------------------------------------------------
 Center     Atomic      Atomic             Coordinates (Angstroms)
 Number     Number       Type             X           Y           Z
 ---------------------------------------------------------------------
      1          6           0       -1.930218    0.000010    0.000009
      2         17           0        1.074882   -0.000009   -0.000002
      3          1           0       -2.230586   -0.278193    0.992266
      4          1           0       -2.230273    0.998719   -0.255262
      5          1           0       -2.230825   -0.720435   -0.737023
 ---------------------------------------------------------------------

 SCF Done:  E(RHF) =  -496.565548740     A.U. after   10 cycles

 The electronic state is 1-A.
 Alpha  occ. eigenvalues -- -104.03322 -11.35017 -10.41975  -7.88291  -7.88082
 Alpha  occ. eigenvalues --   -7.88082  -1.03464  -0.96453  -0.68466  -0.68461
 Alpha  occ. eigenvalues --   -0.38327  -0.38327  -0.36405
 Alpha virt. eigenvalues --   -0.05165   0.22480   0.27267   0.27271   0.72460
 Alpha virt. eigenvalues --    0.79204   0.79213   0.85909   0.90412   0.90417
 Alpha virt. eigenvalues --    0.98065   1.19146   1.24478   1.24487   1.70108

 Mulliken charges:
               1
     1  C   -0.361543
     2  Cl  -0.513138
     3  H    0.291567
     4  H    0.291572
     5  H    0.291542
 Sum of Mulliken charges =  -0.00000

 Dipole moment (field-independent basis, Debye):
    X=             -7.7844    Y=              0.0001    Z=              0.0001  Tot=              7.7844
 Quadrupole moment (field-independent basis, Debye-Ang):
   XX=            -10.6750   YY=            -20.4133   ZZ=            -20.4149
   XY=              0.0003   XZ=             -0.0000   YZ=             -0.0001

 Normal termination of Gaussian 16 at Fri Sep 22 17:19:13 2023.
