 Gaussian 16, Revision A.03,
 Gaussian 16:  ES64L-G16RevA.03 25-Dec-2016

 ----------
 # hf/3-21g
 ----------

 ------------------------
 tmpdir/M2_conf_164_8.gjf
 ------------------------
 Symbolic Z-matrix:
 Charge =  0 Multiplicity = 1

                         Standard orientation:
 ---------------------------------------------------------------------
 Center     Atomic      Atomic             Coordinates (Angstroms)
 Number     Number       Type             X           Y           Z
 ---------------------------------------------------------------------
      1          1           0       -1.116116   -0.001371    1.060574
      2          6           0       -1.204649   -0.000003   -0.009369
      3         17           0        0.687243    0.000025   -0.013998
      4          1           0       -1.669430   -0.891990   -0.384225
      5          1           0       -1.669681    0.892959   -0.382173
 ---------------------------------------------------------------------

 SCF Done:  E(RHF) =  -496.670008239     A.U. after   11 cycles

 The electronic state is 1-A.
 Alpha  occ. eigenvalues -- -104.08987 -11.24901 -10.48395  -7.94765  -7.94358
 Alpha  occ. eigenvalues --   -7.94352  -1.11826  -0.93199  -0.63928  -0.63143
 Alpha  occ. eigenvalues --   -0.50760  -0.44118  -0.43095
 Alpha virt. eigenvalues --    0.15525   0.27516   0.31435   0.31533   0.74036
 Alpha virt. eigenvalues --    0.79546   0.80948   0.85432   0.92702   0.96057
 Alpha virt. eigenvalues --    1.01120   1.29800   1.31174   1.32231   1.89197

 Mulliken charges:
               1
     1  H    0.282993
     2  C   -0.706363
     3  Cl  -0.108879
     4  H    0.266148
     5  H    0.266101
 Sum of Mulliken charges =  -0.00000

 Dipole moment (field-independent basis, Debye):
    X=             -2.8001    Y=             -0.0004    Z=              0.2160  Tot=              2.8084
 Quadrupole moment (field-independent basis, Debye-Ang):
   XX=            -18.5251   YY=            -20.1815   ZZ=            -20.4136
   XY=             -0.0008   XZ=              0.5211   YZ=              0.0000

 Normal termination of Gaussian 16 at Fri Sep 22 17:18:13 2023.
