 Gaussian 16, Revision A.03,
 Gaussian 16:  ES64L-G16RevA.03 25-Dec-2016

 ----------
 # hf/3-21g
 ----------

 -----------------------
 tmpdir/M2_conf_97_9.gjf
 -----------------------
 Symbolic Z-matrix:
 Charge =  0 Multiplicity = 1

                         Standard orientation:
 ---------------------------------------------------------------------
 Center     Atomic      Atomic             Coordinates (Angstroms)
 Number     Number       Type             X           Y           Z
 ---------------------------------------------------------------------
      1          1           0        1.643842   -0.016853    0.981695
      2          6           0        1.202692   -0.000038    0.003062
      3         17           0       -0.689205   -0.000110    0.005764
      4          1           0        1.428456   -0.882937   -0.564137
      5          1           0        1.428035    0.901887   -0.533927
 ---------------------------------------------------------------------

 SCF Done:  E(RHF) =  -496.686932781     A.U. after   11 cycles

 The electronic state is 1-A.
 Alpha  occ. eigenvalues -- -104.08794 -11.24995 -10.48184  -7.94558  -7.94154
 Alpha  occ. eigenvalues --   -7.94154  -1.11341  -0.93318  -0.63310  -0.63268
 Alpha  occ. eigenvalues --   -0.51217  -0.43766  -0.43655
 Alpha virt. eigenvalues --    0.16425   0.27329   0.31362   0.31436   0.73856
 Alpha virt. eigenvalues --    0.80195   0.81135   0.85636   0.92645   0.94494
 Alpha virt. eigenvalues --    1.00020   1.30817   1.31292   1.32414   1.91658

 Mulliken charges:
               1
     1  H    0.265255
     2  C   -0.703981
     3  Cl  -0.106686
     4  H    0.272716
     5  H    0.272696
 Sum of Mulliken charges =  -0.00000

 Dipole moment (field-independent basis, Debye):
    X=              2.8588    Y=              0.0012    Z=             -0.0736  Tot=              2.8597
 Quadrupole moment (field-independent basis, Debye-Ang):
   XX=            -18.5601   YY=            -20.1775   ZZ=            -20.2174
   XY=             -0.0044   XZ=              0.2161   YZ=              0.0000

 Normal termination of Gaussian 16 at Fri Sep 22 17:16:33 2023.
