 Gaussian 16, Revision A.03,
 Gaussian 16:  ES64L-G16RevA.03 25-Dec-2016

 ----------
 # hf/3-21g
 ----------

 ------------------------
 tmpdir/M2_conf_140_8.gjf
 ------------------------
 Symbolic Z-matrix:
 Charge =  0 Multiplicity = 1

                         Standard orientation:
 ---------------------------------------------------------------------
 Center     Atomic      Atomic             Coordinates (Angstroms)
 Number     Number       Type             X           Y           Z
 ---------------------------------------------------------------------
      1          1           0       -1.316417   -0.006690    1.063621
      2          6           0       -1.202903    0.000012   -0.003940
      3         17           0        0.688994    0.000051   -0.007263
      4          1           0       -1.589429   -0.889583   -0.463718
      5          1           0       -1.589628    0.895333   -0.452785
 ---------------------------------------------------------------------

 SCF Done:  E(RHF) =  -496.685140708     A.U. after   11 cycles

 The electronic state is 1-A.
 Alpha  occ. eigenvalues -- -104.08815 -11.24986 -10.48207  -7.94581  -7.94177
 Alpha  occ. eigenvalues --   -7.94175  -1.11393  -0.93306  -0.63443  -0.63191
 Alpha  occ. eigenvalues --   -0.51164  -0.43864  -0.43540
 Alpha virt. eigenvalues --    0.16335   0.27353   0.31376   0.31434   0.73882
 Alpha virt. eigenvalues --    0.80128   0.81043   0.85627   0.92582   0.94884
 Alpha virt. eigenvalues --    1.00038   1.30802   1.31178   1.32350   1.91347

 Mulliken charges:
               1
     1  H    0.276417
     2  C   -0.703903
     3  Cl  -0.107155
     4  H    0.267344
     5  H    0.267297
 Sum of Mulliken charges =   0.00000

 Dipole moment (field-independent basis, Debye):
    X=             -2.8526    Y=             -0.0008    Z=              0.1015  Tot=              2.8544
 Quadrupole moment (field-independent basis, Debye-Ang):
   XX=            -18.5565   YY=            -20.1836   ZZ=            -20.2332
   XY=             -0.0017   XZ=              0.2714   YZ=              0.0000

 Normal termination of Gaussian 16 at Fri Sep 22 17:17:37 2023.
