 Gaussian 16, Revision A.03,
 Gaussian 16:  ES64L-G16RevA.03 25-Dec-2016

 ----------
 # hf/3-21g
 ----------

 ------------------------
 tmpdir/M2_conf_291_1.gjf
 ------------------------
 Symbolic Z-matrix:
 Charge =  0 Multiplicity = 1

                         Standard orientation:
 ---------------------------------------------------------------------
 Center     Atomic      Atomic             Coordinates (Angstroms)
 Number     Number       Type             X           Y           Z
 ---------------------------------------------------------------------
      1          6           0       -0.031705   -0.000073    0.000534
      2          1           0       -0.320199   -0.085028    1.028963
      3          1           0       -0.336782   -0.847744   -0.583043
      4          1           0       -0.338414    0.931198   -0.436808
      5          1           0        1.185623    0.002012   -0.012319
 ---------------------------------------------------------------------

 SCF Done:  E(RHF) =  -39.9669271608     A.U. after    9 cycles

 The electronic state is 1-A.
 Alpha  occ. eigenvalues --  -11.15701  -0.93800  -0.55685  -0.55632  -0.50271
 Alpha virt. eigenvalues --    0.28326   0.32244   0.35686   0.35731   0.91830
 Alpha virt. eigenvalues --    0.91918   0.97629   1.25078   1.32533   1.36946
 Alpha virt. eigenvalues --    1.37078   1.94676

 Mulliken charges:
               1
     1  C   -0.770976
     2  H    0.206961
     3  H    0.206401
     4  H    0.206346
     5  H    0.151268
 Sum of Mulliken charges =   0.00000

 Dipole moment (field-independent basis, Debye):
    X=             -0.0714    Y=             -0.0004    Z=              0.0019  Tot=              0.0714
 Quadrupole moment (field-independent basis, Debye-Ang):
   XX=             -8.6551   YY=             -8.3888   ZZ=             -8.3894
   XY=             -0.0006   XZ=              0.0037   YZ=             -0.0002

 Normal termination of Gaussian 16 at Fri Sep 22 17:21:36 2023.
