 Gaussian 16, Revision A.03,
 Gaussian 16:  ES64L-G16RevA.03 25-Dec-2016

 ----------
 # hf/3-21g
 ----------

 ------------------------
 tmpdir/M2_conf_123_9.gjf
 ------------------------
 Symbolic Z-matrix:
 Charge =  0 Multiplicity = 1

                         Standard orientation:
 ---------------------------------------------------------------------
 Center     Atomic      Atomic             Coordinates (Angstroms)
 Number     Number       Type             X           Y           Z
 ---------------------------------------------------------------------
      1          1           0        1.575510   -0.071456    1.005685
      2          6           0        1.202446   -0.000095    0.001520
      3         17           0       -0.689457   -0.000220    0.002960
      4          1           0        1.465488   -0.852427   -0.595586
      5          1           0        1.465102    0.928197   -0.469533
 ---------------------------------------------------------------------

 SCF Done:  E(RHF) =  -496.688815134     A.U. after   11 cycles

 The electronic state is 1-A.
 Alpha  occ. eigenvalues -- -104.08778 -11.24999 -10.48168  -7.94542  -7.94138
 Alpha  occ. eigenvalues --   -7.94138  -1.11296  -0.93332  -0.63275  -0.63238
 Alpha  occ. eigenvalues --   -0.51296  -0.43758  -0.43688
 Alpha virt. eigenvalues --    0.16559   0.27332   0.31367   0.31400   0.73833
 Alpha virt. eigenvalues --    0.80438   0.80911   0.85534   0.93146   0.94143
 Alpha virt. eigenvalues --    0.99647   1.31090   1.31260   1.32263   1.91913

 Mulliken charges:
               1
     1  H    0.267399
     2  C   -0.702934
     3  Cl  -0.106982
     4  H    0.271269
     5  H    0.271248
 Sum of Mulliken charges =  -0.00000

 Dipole moment (field-independent basis, Debye):
    X=              2.8643    Y=              0.0027    Z=             -0.0383  Tot=              2.8646
 Quadrupole moment (field-independent basis, Debye-Ang):
   XX=            -18.5675   YY=            -20.1790   ZZ=            -20.1909
   XY=             -0.0085   XZ=              0.1107   YZ=              0.0002

 Normal termination of Gaussian 16 at Fri Sep 22 17:17:11 2023.
