 Gaussian 16, Revision A.03,
 Gaussian 16:  ES64L-G16RevA.03 25-Dec-2016

 ----------
 # hf/3-21g
 ----------

 ------------------------
 tmpdir/M2_conf_188_2.gjf
 ------------------------
 Symbolic Z-matrix:
 Charge =  0 Multiplicity = 1

                         Standard orientation:
 ---------------------------------------------------------------------
 Center     Atomic      Atomic             Coordinates (Angstroms)
 Number     Number       Type             X           Y           Z
 ---------------------------------------------------------------------
      1          6           0        0.000330   -0.031014    0.000016
      2          1           0       -1.201916    0.202947    0.001795
      3          1           0        0.319082   -0.534897   -0.892563
      4          1           0        0.322689   -0.533022    0.892593
      5          1           0        0.558165    1.051055   -0.001921
 ---------------------------------------------------------------------

 SCF Done:  E(RHF) =  -39.9559924189     A.U. after    9 cycles

 The electronic state is 1-A.
 Alpha  occ. eigenvalues --  -11.17453  -0.92486  -0.55919  -0.52784  -0.49848
 Alpha virt. eigenvalues --    0.27141   0.30481   0.33724   0.35682   0.91616
 Alpha virt. eigenvalues --    0.95742   1.01024   1.22026   1.25554   1.33634
 Alpha virt. eigenvalues --    1.36541   1.92916

 Mulliken charges:
               1
     1  C   -0.742796
     2  H    0.163919
     3  H    0.210998
     4  H    0.210945
     5  H    0.156934
 Sum of Mulliken charges =  -0.00000

 Dipole moment (field-independent basis, Debye):
    X=              0.0877    Y=             -0.0718    Z=             -0.0002  Tot=              0.1134
 Quadrupole moment (field-independent basis, Debye-Ang):
   XX=             -8.4829   YY=             -8.7283   ZZ=             -8.5288
   XY=             -0.1340   XZ=              0.0009   YZ=              0.0008

 Normal termination of Gaussian 16 at Fri Sep 22 17:18:54 2023.
