 Gaussian 16, Revision A.03,
 Gaussian 16:  ES64L-G16RevA.03 25-Dec-2016

 ----------
 # hf/3-21g
 ----------

 ------------------------
 tmpdir/M2_conf_250_5.gjf
 ------------------------
 Symbolic Z-matrix:
 Charge =  0 Multiplicity = 1

                         Standard orientation:
 ---------------------------------------------------------------------
 Center     Atomic      Atomic             Coordinates (Angstroms)
 Number     Number       Type             X           Y           Z
 ---------------------------------------------------------------------
      1          1           0       -0.466085   -0.172704    0.945307
      2          6           0       -0.016813    0.021646   -0.009978
      3          1           0       -0.718926   -0.376188   -0.718066
      4          1           0        0.274526    1.048455   -0.125709
      5          1           0        1.011363   -0.629438   -0.041666
 ---------------------------------------------------------------------

 SCF Done:  E(RHF) =  -39.9651484943     A.U. after    9 cycles

 The electronic state is 1-A.
 Alpha  occ. eigenvalues --  -11.15720  -0.93833  -0.56918  -0.53906  -0.50599
 Alpha virt. eigenvalues --    0.28237   0.32338   0.35029   0.36169   0.90631
 Alpha virt. eigenvalues --    0.93213   0.98200   1.24837   1.32719   1.35441
 Alpha virt. eigenvalues --    1.38442   1.94313

 Mulliken charges:
               1
     1  H    0.204636
     2  C   -0.772867
     3  H    0.206538
     4  H    0.207942
     5  H    0.153751
 Sum of Mulliken charges =  -0.00000

 Dipole moment (field-independent basis, Debye):
    X=             -0.0992    Y=              0.0208    Z=              0.0515  Tot=              0.1137
 Quadrupole moment (field-independent basis, Debye-Ang):
   XX=             -8.3615   YY=             -8.3937   ZZ=             -8.6794
   XY=              0.2160   XZ=              0.0234   YZ=             -0.0105

 Normal termination of Gaussian 16 at Fri Sep 22 17:20:28 2023.
