 Gaussian 16, Revision A.03,
 Gaussian 16:  ES64L-G16RevA.03 25-Dec-2016

 ----------
 # hf/3-21g
 ----------

 ------------------------
 tmpdir/M2_conf_200_7.gjf
 ------------------------
 Symbolic Z-matrix:
 Charge =  0 Multiplicity = 1

                         Standard orientation:
 ---------------------------------------------------------------------
 Center     Atomic      Atomic             Coordinates (Angstroms)
 Number     Number       Type             X           Y           Z
 ---------------------------------------------------------------------
      1          1           0        0.469759   -0.168441    0.943624
      2          6           0        0.015983    0.022176   -0.010509
      3          1           0        0.727673   -0.363690   -0.715654
      4          1           0       -0.291761    1.044433   -0.122124
      5          1           0       -1.001570   -0.645358   -0.042795
 ---------------------------------------------------------------------

 SCF Done:  E(RHF) =  -39.9649510901     A.U. after    9 cycles

 The electronic state is 1-A.
 Alpha  occ. eigenvalues --  -11.15720  -0.93838  -0.56980  -0.53820  -0.50612
 Alpha virt. eigenvalues --    0.28231   0.32340   0.34995   0.36190   0.90596
 Alpha virt. eigenvalues --    0.93260   0.98237   1.24826   1.32725   1.35368
 Alpha virt. eigenvalues --    1.38525   1.94287

 Mulliken charges:
               1
     1  H    0.204506
     2  C   -0.773094
     3  H    0.206606
     4  H    0.208095
     5  H    0.153887
 Sum of Mulliken charges =   0.00000

 Dipole moment (field-independent basis, Debye):
    X=              0.1009    Y=              0.0214    Z=              0.0541  Tot=              0.1165
 Quadrupole moment (field-independent basis, Debye-Ang):
   XX=             -8.3447   YY=             -8.3971   ZZ=             -8.6931
   XY=             -0.2192   XZ=             -0.0241   YZ=             -0.0111

 Normal termination of Gaussian 16 at Fri Sep 22 17:19:12 2023.
