 Gaussian 16, Revision A.03,
 Gaussian 16:  ES64L-G16RevA.03 25-Dec-2016

 ----------
 # hf/3-21g
 ----------

 ------------------------
 tmpdir/M2_conf_132_2.gjf
 ------------------------
 Symbolic Z-matrix:
 Charge =  0 Multiplicity = 1

                         Standard orientation:
 ---------------------------------------------------------------------
 Center     Atomic      Atomic             Coordinates (Angstroms)
 Number     Number       Type             X           Y           Z
 ---------------------------------------------------------------------
      1          6           0        0.032009    0.000015    0.003706
      2          1           0        0.266961   -0.013467    1.032020
      3          1           0        0.364523   -0.884826   -0.504909
      4          1           0        0.359716    0.900169   -0.481014
      5          1           0       -1.183254   -0.001966   -0.068336
 ---------------------------------------------------------------------

 SCF Done:  E(RHF) =  -39.9665255748     A.U. after    9 cycles

 The electronic state is 1-A.
 Alpha  occ. eigenvalues --  -11.15507  -0.93993  -0.56042  -0.55610  -0.50278
 Alpha virt. eigenvalues --    0.28379   0.32341   0.35688   0.36083   0.91081
 Alpha virt. eigenvalues --    0.91960   0.97583   1.25152   1.33062   1.36985
 Alpha virt. eigenvalues --    1.38306   1.94889

 Mulliken charges:
               1
     1  C   -0.773175
     2  H    0.211104
     3  H    0.205778
     4  H    0.205731
     5  H    0.150562
 Sum of Mulliken charges =   0.00000

 Dipole moment (field-independent basis, Debye):
    X=              0.0751    Y=             -0.0001    Z=              0.0151  Tot=              0.0766
 Quadrupole moment (field-independent basis, Debye-Ang):
   XX=             -8.6385   YY=             -8.3719   ZZ=             -8.3868
   XY=             -0.0011   XZ=             -0.0171   YZ=             -0.0005

 Normal termination of Gaussian 16 at Fri Sep 22 17:17:25 2023.
