 Gaussian 16, Revision A.03,
 Gaussian 16:  ES64L-G16RevA.03 25-Dec-2016

 ----------
 # hf/3-21g
 ----------

 ------------------------
 tmpdir/M2_conf_192_3.gjf
 ------------------------
 Symbolic Z-matrix:
 Charge =  0 Multiplicity = 1

                         Standard orientation:
 ---------------------------------------------------------------------
 Center     Atomic      Atomic             Coordinates (Angstroms)
 Number     Number       Type             X           Y           Z
 ---------------------------------------------------------------------
      1          6           0       -1.865422    0.000011    0.000009
      2         17           0        1.040578   -0.000009   -0.000002
      3          1           0       -2.165790   -0.278193    0.992266
      4          1           0       -2.165476    0.998720   -0.255261
      5          1           0       -2.166030   -0.720434   -0.737022
 ---------------------------------------------------------------------

 SCF Done:  E(RHF) =  -496.576722545     A.U. after   10 cycles

 The electronic state is 1-A.
 Alpha  occ. eigenvalues -- -104.03966 -11.34341 -10.42604  -7.88919  -7.88706
 Alpha  occ. eigenvalues --   -7.88706  -1.02992  -0.96954  -0.67871  -0.67866
 Alpha  occ. eigenvalues --   -0.38860  -0.38860  -0.37321
 Alpha virt. eigenvalues --   -0.04073   0.22915   0.27722   0.27726   0.72620
 Alpha virt. eigenvalues --    0.79054   0.79062   0.86976   0.90863   0.90869
 Alpha virt. eigenvalues --    0.97708   1.20592   1.25034   1.25043   1.71770

 Mulliken charges:
               1
     1  C   -0.369690
     2  Cl  -0.494246
     3  H    0.287986
     4  H    0.287990
     5  H    0.287959
 Sum of Mulliken charges =   0.00000

 Dipole moment (field-independent basis, Debye):
    X=             -7.3072    Y=              0.0001    Z=              0.0001  Tot=              7.3072
 Quadrupole moment (field-independent basis, Debye-Ang):
   XX=            -11.3976   YY=            -20.4183   ZZ=            -20.4199
   XY=              0.0003   XZ=             -0.0000   YZ=             -0.0001

 Normal termination of Gaussian 16 at Fri Sep 22 17:19:00 2023.
