 Gaussian 16, Revision A.03,
 Gaussian 16:  ES64L-G16RevA.03 25-Dec-2016

 ----------
 # hf/3-21g
 ----------

 ------------------------
 tmpdir/M2_conf_210_0.gjf
 ------------------------
 Symbolic Z-matrix:
 Charge =  0 Multiplicity = 1

                         Standard orientation:
 ---------------------------------------------------------------------
 Center     Atomic      Atomic             Coordinates (Angstroms)
 Number     Number       Type             X           Y           Z
 ---------------------------------------------------------------------
      1          6           0       -0.031169   -0.003040   -0.000055
      2          1           0       -0.396363    1.019458   -0.009707
      3          1           0       -0.297721   -0.542918   -0.888934
      4          1           0       -0.302982   -0.527572    0.896376
      5          1           0        1.184082    0.069273    0.002596
 ---------------------------------------------------------------------

 SCF Done:  E(RHF) =  -39.9669550942     A.U. after    9 cycles

 The electronic state is 1-A.
 Alpha  occ. eigenvalues --  -11.15871  -0.93640  -0.55656  -0.55371  -0.50262
 Alpha virt. eigenvalues --    0.28273   0.32144   0.35437   0.35686   0.91897
 Alpha virt. eigenvalues --    0.92453   0.97693   1.25004   1.31914   1.36229
 Alpha virt. eigenvalues --    1.36908   1.94500

 Mulliken charges:
               1
     1  C   -0.768905
     2  H    0.203291
     3  H    0.206873
     4  H    0.206869
     5  H    0.151872
 Sum of Mulliken charges =   0.00000

 Dipole moment (field-independent basis, Debye):
    X=             -0.0668    Y=             -0.0113    Z=             -0.0001  Tot=              0.0678
 Quadrupole moment (field-independent basis, Debye-Ang):
   XX=             -8.6672   YY=             -8.3950   ZZ=             -8.4021
   XY=             -0.0183   XZ=             -0.0012   YZ=              0.0002

 Normal termination of Gaussian 16 at Fri Sep 22 17:19:28 2023.
