 Gaussian 16, Revision A.03,
 Gaussian 16:  ES64L-G16RevA.03 25-Dec-2016

 ----------
 # hf/3-21g
 ----------

 ------------------------
 tmpdir/M2_conf_240_4.gjf
 ------------------------
 Symbolic Z-matrix:
 Charge =  0 Multiplicity = 1

                         Standard orientation:
 ---------------------------------------------------------------------
 Center     Atomic      Atomic             Coordinates (Angstroms)
 Number     Number       Type             X           Y           Z
 ---------------------------------------------------------------------
      1          1           0        0.431690   -0.219194    0.956770
      2          6           0        0.022234    0.017306   -0.006870
      3          1           0        0.642482   -0.473178   -0.733040
      4          1           0       -0.120791    1.072404   -0.144408
      5          1           0       -1.086784   -0.483868   -0.038104
 ---------------------------------------------------------------------

 SCF Done:  E(RHF) =  -39.9661710164     A.U. after    9 cycles

 The electronic state is 1-A.
 Alpha  occ. eigenvalues --  -11.15720  -0.93805  -0.56541  -0.54418  -0.50520
 Alpha virt. eigenvalues --    0.28269   0.32329   0.35222   0.36043   0.90932
 Alpha virt. eigenvalues --    0.92845   0.97996   1.24904   1.32709   1.35844
 Alpha virt. eigenvalues --    1.37961   1.94464

 Mulliken charges:
               1
     1  H    0.205069
     2  C   -0.771656
     3  H    0.206233
     4  H    0.207370
     5  H    0.152984
 Sum of Mulliken charges =   0.00000

 Dipole moment (field-independent basis, Debye):
    X=              0.0899    Y=              0.0139    Z=              0.0363  Tot=              0.0980
 Quadrupole moment (field-independent basis, Debye-Ang):
   XX=             -8.4774   YY=             -8.3618   ZZ=             -8.5945
   XY=             -0.1795   XZ=             -0.0211   YZ=             -0.0067

 Normal termination of Gaussian 16 at Fri Sep 22 17:20:13 2023.
