 Gaussian 16, Revision A.03,
 Gaussian 16:  ES64L-G16RevA.03 25-Dec-2016

 ----------
 # hf/3-21g
 ----------

 ------------------------
 tmpdir/M2_conf_189_0.gjf
 ------------------------
 Symbolic Z-matrix:
 Charge =  0 Multiplicity = 1

                         Standard orientation:
 ---------------------------------------------------------------------
 Center     Atomic      Atomic             Coordinates (Angstroms)
 Number     Number       Type             X           Y           Z
 ---------------------------------------------------------------------
      1          6           0       -0.032231    0.000055    0.010292
      2          1           0       -0.180589   -0.001818    1.012367
      3          1           0       -0.397463    0.894739   -0.457437
      4          1           0       -0.402389   -0.890634   -0.461151
      5          1           0        1.173824   -0.002619   -0.155529
 ---------------------------------------------------------------------

 SCF Done:  E(RHF) =  -39.9634647729     A.U. after    9 cycles

 The electronic state is 1-A.
 Alpha  occ. eigenvalues --  -11.15021  -0.94531  -0.56962  -0.55551  -0.50287
 Alpha virt. eigenvalues --    0.28484   0.32522   0.35683   0.37027   0.89164
 Alpha virt. eigenvalues --    0.92068   0.97550   1.25307   1.33839   1.37059
 Alpha virt. eigenvalues --    1.42310   1.95510

 Mulliken charges:
               1
     1  C   -0.777893
     2  H    0.221031
     3  H    0.204072
     4  H    0.204066
     5  H    0.148723
 Sum of Mulliken charges =   0.00000

 Dipole moment (field-independent basis, Debye):
    X=             -0.0812    Y=              0.0002    Z=              0.0440  Tot=              0.0924
 Quadrupole moment (field-independent basis, Debye-Ang):
   XX=             -8.5929   YY=             -8.3295   ZZ=             -8.3815
   XY=              0.0012   XZ=              0.0386   YZ=             -0.0004

 Normal termination of Gaussian 16 at Fri Sep 22 17:18:56 2023.
