 Gaussian 16, Revision A.03,
 Gaussian 16:  ES64L-G16RevA.03 25-Dec-2016

 ----------
 # hf/3-21g
 ----------

 -----------------------
 tmpdir/M2_conf_19_6.gjf
 -----------------------
 Symbolic Z-matrix:
 Charge =  0 Multiplicity = 1

                         Standard orientation:
 ---------------------------------------------------------------------
 Center     Atomic      Atomic             Coordinates (Angstroms)
 Number     Number       Type             X           Y           Z
 ---------------------------------------------------------------------
      1          1           0       -1.396653   -0.018707    1.053336
      2          6           0       -1.202536    0.000058   -0.002199
      3         17           0        0.689362    0.000063   -0.004215
      4          1           0       -1.553415    0.901195   -0.468510
      5          1           0       -1.553870   -0.883907   -0.499973
 ---------------------------------------------------------------------

 SCF Done:  E(RHF) =  -496.688083561     A.U. after   11 cycles

 The electronic state is 1-A.
 Alpha  occ. eigenvalues -- -104.08786 -11.24997 -10.48176  -7.94550  -7.94146
 Alpha  occ. eigenvalues --   -7.94145  -1.11315  -0.93327  -0.63325  -0.63212
 Alpha  occ. eigenvalues --   -0.51270  -0.43797  -0.43641
 Alpha virt. eigenvalues --    0.16515   0.27337   0.31369   0.31405   0.73844
 Alpha virt. eigenvalues --    0.80364   0.80944   0.85557   0.92952   0.94383
 Alpha virt. eigenvalues --    0.99716   1.31068   1.31191   1.32293   1.91797

 Mulliken charges:
               1
     1  H    0.273654
     2  C   -0.703110
     3  Cl  -0.107035
     4  H    0.268256
     5  H    0.268235
 Sum of Mulliken charges =  -0.00000

 Dipole moment (field-independent basis, Debye):
    X=             -2.8620    Y=             -0.0010    Z=              0.0574  Tot=              2.8626
 Quadrupole moment (field-independent basis, Debye-Ang):
   XX=            -18.5654   YY=            -20.1818   ZZ=            -20.1974
   XY=             -0.0023   XZ=              0.1572   YZ=             -0.0002

 Normal termination of Gaussian 16 at Fri Sep 22 17:14:36 2023.
