 Gaussian 16, Revision A.03,
 Gaussian 16:  ES64L-G16RevA.03 25-Dec-2016

 ----------
 # hf/3-21g
 ----------

 -----------------------
 tmpdir/M2_conf_39_8.gjf
 -----------------------
 Symbolic Z-matrix:
 Charge =  0 Multiplicity = 1

                         Standard orientation:
 ---------------------------------------------------------------------
 Center     Atomic      Atomic             Coordinates (Angstroms)
 Number     Number       Type             X           Y           Z
 ---------------------------------------------------------------------
      1          1           0       -1.422786   -0.040638    1.048337
      2          6           0       -1.202463    0.000052   -0.001624
      3         17           0        0.689436    0.000128   -0.003192
      4          1           0       -1.541345   -0.872738   -0.526576
      5          1           0       -1.541514    0.910884   -0.457746
 ---------------------------------------------------------------------

 SCF Done:  E(RHF) =  -496.688689053     A.U. after   11 cycles

 The electronic state is 1-A.
 Alpha  occ. eigenvalues -- -104.08780 -11.24999 -10.48169  -7.94544  -7.94140
 Alpha  occ. eigenvalues --   -7.94140  -1.11300  -0.93331  -0.63300  -0.63218
 Alpha  occ. eigenvalues --   -0.51292  -0.43777  -0.43667
 Alpha virt. eigenvalues --    0.16554   0.27334   0.31369   0.31398   0.73836
 Alpha virt. eigenvalues --    0.80439   0.80895   0.85534   0.93124   0.94199
 Alpha virt. eigenvalues --    0.99638   1.31145   1.31203   1.32249   1.91888

 Mulliken charges:
               1
     1  H    0.272692
     2  C   -0.702902
     3  Cl  -0.107039
     4  H    0.268649
     5  H    0.268601
 Sum of Mulliken charges =   0.00000

 Dipole moment (field-independent basis, Debye):
    X=             -2.8639    Y=             -0.0018    Z=              0.0428  Tot=              2.8642
 Quadrupole moment (field-independent basis, Debye-Ang):
   XX=            -18.5676   YY=            -20.1825   ZZ=            -20.1888
   XY=             -0.0046   XZ=              0.1195   YZ=             -0.0001

 Normal termination of Gaussian 16 at Fri Sep 22 17:15:06 2023.
