 Gaussian 16, Revision A.03,
 Gaussian 16:  ES64L-G16RevA.03 25-Dec-2016

 ----------
 # hf/3-21g
 ----------

 ------------------------
 tmpdir/M2_conf_286_6.gjf
 ------------------------
 Symbolic Z-matrix:
 Charge =  0 Multiplicity = 1

                         Standard orientation:
 ---------------------------------------------------------------------
 Center     Atomic      Atomic             Coordinates (Angstroms)
 Number     Number       Type             X           Y           Z
 ---------------------------------------------------------------------
      1          1           0       -1.136091   -0.002313    1.062445
      2          6           0       -1.204422    0.000034   -0.008775
      3         17           0        0.687471    0.000020   -0.013390
      4          1           0       -1.662008    0.893575   -0.389315
      5          1           0       -1.662378   -0.891802   -0.392851
 ---------------------------------------------------------------------

 SCF Done:  E(RHF) =  -496.672063681     A.U. after   11 cycles

 The electronic state is 1-A.
 Alpha  occ. eigenvalues -- -104.08962 -11.24915 -10.48368  -7.94738  -7.94332
 Alpha  occ. eigenvalues --   -7.94326  -1.11764  -0.93214  -0.63865  -0.63150
 Alpha  occ. eigenvalues --   -0.50805  -0.44085  -0.43156
 Alpha virt. eigenvalues --    0.15626   0.27491   0.31425   0.31520   0.74019
 Alpha virt. eigenvalues --    0.79607   0.80971   0.85482   0.92616   0.95960
 Alpha virt. eigenvalues --    1.01003   1.29906   1.31167   1.32281   1.89474

 Mulliken charges:
               1
     1  H    0.282411
     2  C   -0.706130
     3  Cl  -0.108601
     4  H    0.266167
     5  H    0.266153
 Sum of Mulliken charges =   0.00000

 Dipole moment (field-independent basis, Debye):
    X=             -2.8077    Y=             -0.0004    Z=              0.2046  Tot=              2.8151
 Quadrupole moment (field-independent basis, Debye-Ang):
   XX=            -18.5281   YY=            -20.1809   ZZ=            -20.3911
   XY=             -0.0007   XZ=              0.4981   YZ=             -0.0001

 Normal termination of Gaussian 16 at Fri Sep 22 17:21:27 2023.
