 Gaussian 16, Revision A.03,
 Gaussian 16:  ES64L-G16RevA.03 25-Dec-2016

 ----------
 # hf/3-21g
 ----------

 ------------------------
 tmpdir/M2_conf_300_8.gjf
 ------------------------
 Symbolic Z-matrix:
 Charge =  0 Multiplicity = 1

                         Standard orientation:
 ---------------------------------------------------------------------
 Center     Atomic      Atomic             Coordinates (Angstroms)
 Number     Number       Type             X           Y           Z
 ---------------------------------------------------------------------
      1          1           0        0.513489    0.000046    0.762525
      2          6           0        1.218128    0.000018   -0.047475
      3         17           0       -0.673558   -0.000010   -0.019437
      4          1           0        1.813941    0.892486   -0.073641
      5          1           0        1.814292   -0.892464   -0.073605
 ---------------------------------------------------------------------

 SCF Done:  E(RHF) =  -496.506095827     A.U. after   12 cycles

 The electronic state is 1-A.
 Alpha  occ. eigenvalues -- -104.11918 -11.22009 -10.51914  -7.98279  -7.97768
 Alpha  occ. eigenvalues --   -7.97700  -1.19359  -0.91643  -0.67429  -0.61986
 Alpha  occ. eigenvalues --   -0.52131  -0.47268  -0.36727
 Alpha virt. eigenvalues --    0.11044   0.31181   0.32817   0.33608   0.73408
 Alpha virt. eigenvalues --    0.76789   0.79192   0.83332   0.91305   0.98697
 Alpha virt. eigenvalues --    1.04207   1.20096   1.31905   1.32673   1.80994

 Mulliken charges:
               1
     1  H    0.289727
     2  C   -0.757068
     3  Cl  -0.074183
     4  H    0.270780
     5  H    0.270744
 Sum of Mulliken charges =  -0.00000

 Dipole moment (field-independent basis, Debye):
    X=              1.7130    Y=              0.0001    Z=              0.7213  Tot=              1.8586
 Quadrupole moment (field-independent basis, Debye-Ang):
   XX=            -18.9293   YY=            -19.9774   ZZ=            -21.6540
   XY=             -0.0003   XZ=             -0.3784   YZ=              0.0000

 Normal termination of Gaussian 16 at Fri Sep 22 17:21:49 2023.
