 Gaussian 16, Revision A.03,
 Gaussian 16:  ES64L-G16RevA.03 25-Dec-2016

 ----------
 # hf/3-21g
 ----------

 -----------------------
 tmpdir/M2_conf_17_1.gjf
 -----------------------
 Symbolic Z-matrix:
 Charge =  0 Multiplicity = 1

                         Standard orientation:
 ---------------------------------------------------------------------
 Center     Atomic      Atomic             Coordinates (Angstroms)
 Number     Number       Type             X           Y           Z
 ---------------------------------------------------------------------
      1          6           0       -0.012338   -0.027772    0.000059
      2          1           0       -1.073558    0.448508   -0.001636
      3          1           0        0.184865   -0.588401    0.893919
      4          1           0        0.186023   -0.592785   -0.891018
      5          1           0        0.776699    0.899307   -0.001618
 ---------------------------------------------------------------------

 SCF Done:  E(RHF) =  -39.9629179097     A.U. after    9 cycles

 The electronic state is 1-A.
 Alpha  occ. eigenvalues --  -11.16764  -0.92921  -0.55791  -0.53809  -0.50137
 Alpha virt. eigenvalues --    0.27831   0.31322   0.34233   0.35685   0.91723
 Alpha virt. eigenvalues --    0.95066   0.98842   1.24223   1.27374   1.34263
 Alpha virt. eigenvalues --    1.36715   1.93634

 Mulliken charges:
               1
     1  C   -0.755713
     2  H    0.182102
     3  H    0.209403
     4  H    0.209348
     5  H    0.154860
 Sum of Mulliken charges =  -0.00000

 Dipole moment (field-independent basis, Debye):
    X=              0.0176    Y=             -0.0729    Z=              0.0003  Tot=              0.0750
 Quadrupole moment (field-independent basis, Debye-Ang):
   XX=             -8.5353   YY=             -8.6117   ZZ=             -8.4754
   XY=             -0.1586   XZ=              0.0002   YZ=              0.0004

 Normal termination of Gaussian 16 at Fri Sep 22 17:14:33 2023.
