 Gaussian 16, Revision A.03,
 Gaussian 16:  ES64L-G16RevA.03 25-Dec-2016

 ----------
 # hf/3-21g
 ----------

 ------------------------
 tmpdir/M2_conf_139_5.gjf
 ------------------------
 Symbolic Z-matrix:
 Charge =  0 Multiplicity = 1

                         Standard orientation:
 ---------------------------------------------------------------------
 Center     Atomic      Atomic             Coordinates (Angstroms)
 Number     Number       Type             X           Y           Z
 ---------------------------------------------------------------------
      1          1           0        1.026441    0.189228   -0.338208
      2          6           0        0.024305   -0.026769   -0.020000
      3          1           0       -0.708378   -0.399223   -0.710701
      4          1           0       -0.004223   -0.664774    0.842987
      5          1           0       -0.459672    1.035382    0.325922
 ---------------------------------------------------------------------

 SCF Done:  E(RHF) =  -39.9637029149     A.U. after    9 cycles

 The electronic state is 1-A.
 Alpha  occ. eigenvalues --  -11.15748  -0.93825  -0.57307  -0.54417  -0.49713
 Alpha virt. eigenvalues --    0.28326   0.31820   0.35135   0.36325   0.90761
 Alpha virt. eigenvalues --    0.94000   0.97359   1.25280   1.31758   1.35865
 Alpha virt. eigenvalues --    1.38684   1.94614

 Mulliken charges:
               1
     1  H    0.210254
     2  C   -0.775960
     3  H    0.210055
     4  H    0.206045
     5  H    0.149606
 Sum of Mulliken charges =  -0.00000

 Dipole moment (field-independent basis, Debye):
    X=             -0.0187    Y=             -0.0676    Z=              0.0139  Tot=              0.0715
 Quadrupole moment (field-independent basis, Debye-Ang):
   XX=             -8.1667   YY=             -8.6120   ZZ=             -8.6779
   XY=              0.1808   XZ=              0.0470   YZ=             -0.1217

 Normal termination of Gaussian 16 at Fri Sep 22 17:17:35 2023.
