 Gaussian 16, Revision A.03,
 Gaussian 16:  ES64L-G16RevA.03 25-Dec-2016

 ----------
 # hf/3-21g
 ----------

 ------------------------
 tmpdir/M2_conf_153_6.gjf
 ------------------------
 Symbolic Z-matrix:
 Charge =  0 Multiplicity = 1

                         Standard orientation:
 ---------------------------------------------------------------------
 Center     Atomic      Atomic             Coordinates (Angstroms)
 Number     Number       Type             X           Y           Z
 ---------------------------------------------------------------------
      1          1           0       -1.136646   -0.002318    1.062498
      2          6           0       -1.204416    0.000034   -0.008758
      3         17           0        0.687477    0.000020   -0.013373
      4          1           0       -1.661801    0.893577   -0.389533
      5          1           0       -1.662171   -0.891799   -0.393079
 ---------------------------------------------------------------------

 SCF Done:  E(RHF) =  -496.672119080     A.U. after   11 cycles

 The electronic state is 1-A.
 Alpha  occ. eigenvalues -- -104.08962 -11.24915 -10.48367  -7.94737  -7.94331
 Alpha  occ. eigenvalues --   -7.94326  -1.11763  -0.93214  -0.63863  -0.63150
 Alpha  occ. eigenvalues --   -0.50806  -0.44084  -0.43158
 Alpha virt. eigenvalues --    0.15629   0.27491   0.31425   0.31520   0.74019
 Alpha virt. eigenvalues --    0.79609   0.80972   0.85483   0.92614   0.95957
 Alpha virt. eigenvalues --    1.01000   1.29910   1.31167   1.32282   1.89481

 Mulliken charges:
               1
     1  H    0.282393
     2  C   -0.706123
     3  Cl  -0.108593
     4  H    0.266169
     5  H    0.266154
 Sum of Mulliken charges =  -0.00000

 Dipole moment (field-independent basis, Debye):
    X=             -2.8079    Y=             -0.0004    Z=              0.2043  Tot=              2.8153
 Quadrupole moment (field-independent basis, Debye-Ang):
   XX=            -18.5282   YY=            -20.1809   ZZ=            -20.3904
   XY=             -0.0007   XZ=              0.4975   YZ=             -0.0001

 Normal termination of Gaussian 16 at Fri Sep 22 17:17:57 2023.
