 Gaussian 16, Revision A.03,
 Gaussian 16:  ES64L-G16RevA.03 25-Dec-2016

 ----------
 # hf/3-21g
 ----------

 ------------------------
 tmpdir/M2_conf_230_9.gjf
 ------------------------
 Symbolic Z-matrix:
 Charge =  0 Multiplicity = 1

                         Standard orientation:
 ---------------------------------------------------------------------
 Center     Atomic      Atomic             Coordinates (Angstroms)
 Number     Number       Type             X           Y           Z
 ---------------------------------------------------------------------
      1          1           0        1.294583   -0.010993    1.065142
      2          6           0        1.203032    0.000052   -0.004490
      3         17           0       -0.688864    0.000078   -0.008062
      4          1           0        1.599072   -0.887814   -0.459508
      5          1           0        1.598842    0.897177   -0.441648
 ---------------------------------------------------------------------

 SCF Done:  E(RHF) =  -496.684045840     A.U. after   11 cycles

 The electronic state is 1-A.
 Alpha  occ. eigenvalues -- -104.08827 -11.24981 -10.48220  -7.94593  -7.94189
 Alpha  occ. eigenvalues --   -7.94187  -1.11422  -0.93299  -0.63479  -0.63188
 Alpha  occ. eigenvalues --   -0.51129  -0.43885  -0.43506
 Alpha virt. eigenvalues --    0.16271   0.27362   0.31378   0.31444   0.73895
 Alpha virt. eigenvalues --    0.80065   0.81053   0.85639   0.92515   0.95023
 Alpha virt. eigenvalues --    1.00141   1.30709   1.31177   1.32361   1.91184

 Mulliken charges:
               1
     1  H    0.277160
     2  C   -0.704164
     3  Cl  -0.107218
     4  H    0.267124
     5  H    0.267099
 Sum of Mulliken charges =  -0.00000

 Dipole moment (field-independent basis, Debye):
    X=              2.8490    Y=             -0.0012    Z=              0.1138  Tot=              2.8513
 Quadrupole moment (field-independent basis, Debye-Ang):
   XX=            -18.5532   YY=            -20.1833   ZZ=            -20.2473
   XY=              0.0027   XZ=             -0.3009   YZ=             -0.0001

 Normal termination of Gaussian 16 at Fri Sep 22 17:19:58 2023.
