 Gaussian 16, Revision A.03,
 Gaussian 16:  ES64L-G16RevA.03 25-Dec-2016

 ----------
 # hf/3-21g
 ----------

 ------------------------
 tmpdir/M2_conf_134_5.gjf
 ------------------------
 Symbolic Z-matrix:
 Charge =  0 Multiplicity = 1

                         Standard orientation:
 ---------------------------------------------------------------------
 Center     Atomic      Atomic             Coordinates (Angstroms)
 Number     Number       Type             X           Y           Z
 ---------------------------------------------------------------------
      1          1           0        1.075731    0.010589   -0.282138
      2          6           0        0.031788   -0.029692   -0.035668
      3          1           0       -0.832034   -0.161025   -0.659509
      4          1           0       -0.179302   -0.736983    0.743941
      5          1           0       -0.255121    1.065569    0.411712
 ---------------------------------------------------------------------

 SCF Done:  E(RHF) =  -39.9538127698     A.U. after    9 cycles

 The electronic state is 1-A.
 Alpha  occ. eigenvalues --  -11.15790  -0.94005  -0.59027  -0.53347  -0.48646
 Alpha virt. eigenvalues --    0.28244   0.30823   0.34670   0.36954   0.89979
 Alpha virt. eigenvalues --    0.97114   0.97495   1.25312   1.30877   1.35164
 Alpha virt. eigenvalues --    1.40842   1.94376

 Mulliken charges:
               1
     1  H    0.218310
     2  C   -0.793223
     3  H    0.220140
     4  H    0.206495
     5  H    0.148278
 Sum of Mulliken charges =   0.00000

 Dipole moment (field-independent basis, Debye):
    X=             -0.0827    Y=             -0.0642    Z=              0.0462  Tot=              0.1144
 Quadrupole moment (field-independent basis, Debye-Ang):
   XX=             -7.7915   YY=             -8.6793   ZZ=             -9.0225
   XY=              0.1004   XZ=              0.0247   YZ=             -0.1613

 Normal termination of Gaussian 16 at Fri Sep 22 17:17:27 2023.
