 Gaussian 16, Revision A.03,
 Gaussian 16:  ES64L-G16RevA.03 25-Dec-2016

 ----------
 # hf/3-21g
 ----------

 ------------------------
 tmpdir/M2_conf_118_4.gjf
 ------------------------
 Symbolic Z-matrix:
 Charge =  0 Multiplicity = 1

                         Standard orientation:
 ---------------------------------------------------------------------
 Center     Atomic      Atomic             Coordinates (Angstroms)
 Number     Number       Type             X           Y           Z
 ---------------------------------------------------------------------
      1          1           0       -0.938623    0.444746   -0.345550
      2          6           0       -0.028727   -0.020481   -0.017158
      3          1           0        0.556660   -0.589431   -0.714459
      4          1           0       -0.167668   -0.616917    0.864638
      5          1           0        0.721995    0.884485    0.298319
 ---------------------------------------------------------------------

 SCF Done:  E(RHF) =  -39.9646596073     A.U. after    9 cycles

 The electronic state is 1-A.
 Alpha  occ. eigenvalues --  -11.15743  -0.93809  -0.57018  -0.54622  -0.49833
 Alpha virt. eigenvalues --    0.28330   0.31923   0.35228   0.36217   0.90941
 Alpha virt. eigenvalues --    0.93568   0.97395   1.25247   1.31897   1.36023
 Alpha virt. eigenvalues --    1.38363   1.94636

 Mulliken charges:
               1
     1  H    0.209377
     2  C   -0.774353
     3  H    0.209071
     4  H    0.206034
     5  H    0.149871
 Sum of Mulliken charges =   0.00000

 Dipole moment (field-independent basis, Debye):
    X=             -0.0073    Y=             -0.0668    Z=              0.0096  Tot=              0.0678
 Quadrupole moment (field-independent basis, Debye-Ang):
   XX=             -8.3277   YY=             -8.5006   ZZ=             -8.6239
   XY=             -0.2457   XZ=             -0.0718   YZ=             -0.0961

 Normal termination of Gaussian 16 at Fri Sep 22 17:17:04 2023.
