 Gaussian 16, Revision A.03,
 Gaussian 16:  ES64L-G16RevA.03 25-Dec-2016

 ----------
 # hf/3-21g
 ----------

 ------------------------
 tmpdir/M2_conf_175_7.gjf
 ------------------------
 Symbolic Z-matrix:
 Charge =  0 Multiplicity = 1

                         Standard orientation:
 ---------------------------------------------------------------------
 Center     Atomic      Atomic             Coordinates (Angstroms)
 Number     Number       Type             X           Y           Z
 ---------------------------------------------------------------------
      1          1           0        0.407718   -0.251750    0.962003
      2          6           0        0.025002    0.014217   -0.005162
      3          1           0        0.588993   -0.524660   -0.742821
      4          1           0       -0.022324    1.076709   -0.150227
      5          1           0       -1.124402   -0.385598   -0.037986
 ---------------------------------------------------------------------

 SCF Done:  E(RHF) =  -39.9665498725     A.U. after    9 cycles

 The electronic state is 1-A.
 Alpha  occ. eigenvalues --  -11.15720  -0.93794  -0.56345  -0.54685  -0.50472
 Alpha virt. eigenvalues --    0.28283   0.32317   0.35321   0.35973   0.91124
 Alpha virt. eigenvalues --    0.92633   0.97904   1.24940   1.32682   1.36060
 Alpha virt. eigenvalues --    1.37725   1.94524

 Mulliken charges:
               1
     1  H    0.205269
     2  C   -0.771178
     3  H    0.206142
     4  H    0.207166
     5  H    0.152601
 Sum of Mulliken charges =   0.00000

 Dipole moment (field-independent basis, Debye):
    X=              0.0853    Y=              0.0099    Z=              0.0285  Tot=              0.0904
 Quadrupole moment (field-independent basis, Debye-Ang):
   XX=             -8.5343   YY=             -8.3501   ZZ=             -8.5495
   XY=             -0.1485   XZ=             -0.0204   YZ=             -0.0048

 Normal termination of Gaussian 16 at Fri Sep 22 17:18:30 2023.
