 Gaussian 16, Revision A.03,
 Gaussian 16:  ES64L-G16RevA.03 25-Dec-2016

 ----------
 # hf/3-21g
 ----------

 ------------------------
 tmpdir/M2_conf_214_4.gjf
 ------------------------
 Symbolic Z-matrix:
 Charge =  0 Multiplicity = 1

                         Standard orientation:
 ---------------------------------------------------------------------
 Center     Atomic      Atomic             Coordinates (Angstroms)
 Number     Number       Type             X           Y           Z
 ---------------------------------------------------------------------
      1          1           0       -0.331767    0.898583   -0.504930
      2          6           0       -0.031696   -0.000019   -0.000291
      3          1           0       -0.325154   -0.887134   -0.528986
      4          1           0       -0.338581   -0.015157    1.028395
      5          1           0        1.185678    0.003820    0.007269
 ---------------------------------------------------------------------

 SCF Done:  E(RHF) =  -39.9669433238     A.U. after    9 cycles

 The electronic state is 1-A.
 Alpha  occ. eigenvalues --  -11.15726  -0.93776  -0.55653  -0.55625  -0.50266
 Alpha virt. eigenvalues --    0.28319   0.32229   0.35681   0.35694   0.91909
 Alpha virt. eigenvalues --    0.91930   0.97634   1.25069   1.32449   1.36926
 Alpha virt. eigenvalues --    1.36960   1.94651

 Mulliken charges:
               1
     1  H    0.206498
     2  C   -0.770691
     3  H    0.206440
     4  H    0.206414
     5  H    0.151339
 Sum of Mulliken charges =  -0.00000

 Dipole moment (field-independent basis, Debye):
    X=             -0.0706    Y=             -0.0004    Z=             -0.0002  Tot=              0.0706
 Quadrupole moment (field-independent basis, Debye-Ang):
   XX=             -8.6577   YY=             -8.3881   ZZ=             -8.3921
   XY=             -0.0018   XZ=             -0.0029   YZ=             -0.0003

 Normal termination of Gaussian 16 at Fri Sep 22 17:19:34 2023.
