 Gaussian 16, Revision A.03,
 Gaussian 16:  ES64L-G16RevA.03 25-Dec-2016

 ----------
 # hf/3-21g
 ----------

 ------------------------
 tmpdir/M2_conf_275_6.gjf
 ------------------------
 Symbolic Z-matrix:
 Charge =  0 Multiplicity = 1

                         Standard orientation:
 ---------------------------------------------------------------------
 Center     Atomic      Atomic             Coordinates (Angstroms)
 Number     Number       Type             X           Y           Z
 ---------------------------------------------------------------------
      1          1           0       -1.261311   -0.004621    1.066529
      2          6           0       -1.203262    0.000039   -0.005290
      3         17           0        0.688631    0.000030   -0.009252
      4          1           0       -1.612717    0.894623   -0.435033
      5          1           0       -1.613131   -0.890742   -0.442467
 ---------------------------------------------------------------------

 SCF Done:  E(RHF) =  -496.682135848     A.U. after   11 cycles

 The electronic state is 1-A.
 Alpha  occ. eigenvalues -- -104.08848 -11.24972 -10.48242  -7.94614  -7.94210
 Alpha  occ. eigenvalues --   -7.94208  -1.11475  -0.93285  -0.63547  -0.63180
 Alpha  occ. eigenvalues --   -0.51068  -0.43920  -0.43449
 Alpha virt. eigenvalues --    0.16161   0.27379   0.31385   0.31456   0.73918
 Alpha virt. eigenvalues --    0.79970   0.81057   0.85643   0.92444   0.95234
 Alpha virt. eigenvalues --    1.00309   1.30554   1.31166   1.32382   1.90900

 Mulliken charges:
               1
     1  H    0.278335
     2  C   -0.704571
     3  Cl  -0.107390
     4  H    0.266822
     5  H    0.266804
 Sum of Mulliken charges =  -0.00000

 Dipole moment (field-independent basis, Debye):
    X=             -2.8428    Y=             -0.0005    Z=              0.1327  Tot=              2.8459
 Quadrupole moment (field-independent basis, Debye-Ang):
   XX=            -18.5483   YY=            -20.1826   ZZ=            -20.2715
   XY=             -0.0010   XZ=              0.3449   YZ=             -0.0001

 Normal termination of Gaussian 16 at Fri Sep 22 17:21:07 2023.
