 Gaussian 16, Revision A.03,
 Gaussian 16:  ES64L-G16RevA.03 25-Dec-2016

 ----------
 # hf/3-21g
 ----------

 -----------------------
 tmpdir/M2_conf_92_0.gjf
 -----------------------
 Symbolic Z-matrix:
 Charge =  0 Multiplicity = 1

                         Standard orientation:
 ---------------------------------------------------------------------
 Center     Atomic      Atomic             Coordinates (Angstroms)
 Number     Number       Type             X           Y           Z
 ---------------------------------------------------------------------
      1          6           0       -0.032243    0.000055    0.019379
      2          1           0       -0.116508   -0.000778    0.955694
      3          1           0       -0.423805    0.894221   -0.427576
      4          1           0       -0.428585   -0.891155   -0.429243
      5          1           0        1.162354   -0.002616   -0.215150
 ---------------------------------------------------------------------

 SCF Done:  E(RHF) =  -39.9491139094     A.U. after    9 cycles

 The electronic state is 1-A.
 Alpha  occ. eigenvalues --  -11.14202  -0.95657  -0.58572  -0.55472  -0.50289
 Alpha virt. eigenvalues --    0.28603   0.32705   0.35676   0.38707   0.85913
 Alpha virt. eigenvalues --    0.92252   0.97614   1.25513   1.34548   1.37160
 Alpha virt. eigenvalues --    1.50991   1.97154

 Mulliken charges:
               1
     1  C   -0.783276
     2  H    0.236178
     3  H    0.200886
     4  H    0.200878
     5  H    0.145334
 Sum of Mulliken charges =  -0.00000

 Dipole moment (field-independent basis, Debye):
    X=             -0.0884    Y=              0.0002    Z=              0.0808  Tot=              0.1198
 Quadrupole moment (field-independent basis, Debye-Ang):
   XX=             -8.5118   YY=             -8.2527   ZZ=             -8.3667
   XY=              0.0011   XZ=              0.0504   YZ=             -0.0004

 Normal termination of Gaussian 16 at Fri Sep 22 17:16:25 2023.
