 Gaussian 16, Revision A.03,
 Gaussian 16:  ES64L-G16RevA.03 25-Dec-2016

 ----------
 # hf/3-21g
 ----------

 ------------------------
 tmpdir/M2_conf_278_5.gjf
 ------------------------
 Symbolic Z-matrix:
 Charge =  0 Multiplicity = 1

                         Standard orientation:
 ---------------------------------------------------------------------
 Center     Atomic      Atomic             Coordinates (Angstroms)
 Number     Number       Type             X           Y           Z
 ---------------------------------------------------------------------
      1          1           0        1.052590    0.055657   -0.322330
      2          6           0        0.024546   -0.029236   -0.025504
      3          1           0       -0.781688   -0.256129   -0.697159
      4          1           0       -0.109767   -0.697544    0.803914
      5          1           0       -0.308410    1.073434    0.368601
 ---------------------------------------------------------------------

 SCF Done:  E(RHF) =  -39.9611958870     A.U. after    9 cycles

 The electronic state is 1-A.
 Alpha  occ. eigenvalues --  -11.15760  -0.93869  -0.57888  -0.54023  -0.49424
 Alpha virt. eigenvalues --    0.28310   0.31561   0.34956   0.36542   0.90435
 Alpha virt. eigenvalues --    0.94978   0.97306   1.25329   1.31462   1.35583
 Alpha virt. eigenvalues --    1.39359   1.94547

 Mulliken charges:
               1
     1  H    0.212386
     2  C   -0.780240
     3  H    0.212610
     4  H    0.206129
     5  H    0.149114
 Sum of Mulliken charges =   0.00000

 Dipole moment (field-independent basis, Debye):
    X=             -0.0444    Y=             -0.0651    Z=              0.0234  Tot=              0.0822
 Quadrupole moment (field-independent basis, Debye-Ang):
   XX=             -8.0203   YY=             -8.6555   ZZ=             -8.7910
   XY=              0.1236   XZ=              0.0317   YZ=             -0.1431

 Normal termination of Gaussian 16 at Fri Sep 22 17:21:11 2023.
