 Gaussian 16, Revision A.03,
 Gaussian 16:  ES64L-G16RevA.03 25-Dec-2016

 ----------
 # hf/3-21g
 ----------

 -----------------------
 tmpdir/M2_conf_99_8.gjf
 -----------------------
 Symbolic Z-matrix:
 Charge =  0 Multiplicity = 1

                         Standard orientation:
 ---------------------------------------------------------------------
 Center     Atomic      Atomic             Coordinates (Angstroms)
 Number     Number       Type             X           Y           Z
 ---------------------------------------------------------------------
      1          1           0       -1.396677   -0.021938    1.053499
      2          6           0       -1.202539    0.000034   -0.002173
      3         17           0        0.689360    0.000093   -0.004216
      4          1           0       -1.553514   -0.882203   -0.502826
      5          1           0       -1.553690    0.902366   -0.465970
 ---------------------------------------------------------------------

 SCF Done:  E(RHF) =  -496.688084399     A.U. after   11 cycles

 The electronic state is 1-A.
 Alpha  occ. eigenvalues -- -104.08785 -11.24997 -10.48175  -7.94550  -7.94146
 Alpha  occ. eigenvalues --   -7.94145  -1.11315  -0.93327  -0.63327  -0.63211
 Alpha  occ. eigenvalues --   -0.51269  -0.43796  -0.43641
 Alpha virt. eigenvalues --    0.16516   0.27336   0.31369   0.31406   0.73844
 Alpha virt. eigenvalues --    0.80362   0.80946   0.85557   0.92964   0.94371
 Alpha virt. eigenvalues --    0.99716   1.31078   1.31195   1.32278   1.91796

 Mulliken charges:
               1
     1  H    0.273614
     2  C   -0.703100
     3  Cl  -0.107040
     4  H    0.268287
     5  H    0.268239
 Sum of Mulliken charges =  -0.00000

 Dipole moment (field-independent basis, Debye):
    X=             -2.8620    Y=             -0.0013    Z=              0.0571  Tot=              2.8626
 Quadrupole moment (field-independent basis, Debye-Ang):
   XX=            -18.5656   YY=            -20.1829   ZZ=            -20.1963
   XY=             -0.0033   XZ=              0.1577   YZ=             -0.0000

 Normal termination of Gaussian 16 at Fri Sep 22 17:16:35 2023.
