 Gaussian 16, Revision A.03,
 Gaussian 16:  ES64L-G16RevA.03 25-Dec-2016

 ----------
 # hf/3-21g
 ----------

 ------------------------
 tmpdir/M2_conf_253_3.gjf
 ------------------------
 Symbolic Z-matrix:
 Charge =  0 Multiplicity = 1

                         Standard orientation:
 ---------------------------------------------------------------------
 Center     Atomic      Atomic             Coordinates (Angstroms)
 Number     Number       Type             X           Y           Z
 ---------------------------------------------------------------------
      1          6           0       -2.397457    0.000007    0.000008
      2         17           0        1.322243   -0.000007   -0.000002
      3          1           0       -2.697825   -0.278197    0.992266
      4          1           0       -2.697513    0.998715   -0.255263
      5          1           0       -2.698061   -0.720439   -0.737023
 ---------------------------------------------------------------------

 SCF Done:  E(RHF) =  -496.504152456     A.U. after   10 cycles

 The electronic state is 1-A.
 Alpha  occ. eigenvalues -- -103.99246 -11.38467 -10.38004  -7.84323  -7.84141
 Alpha  occ. eigenvalues --   -7.84141  -1.06587  -0.93098  -0.71821  -0.71816
 Alpha  occ. eigenvalues --   -0.35032  -0.35032  -0.31468
 Alpha virt. eigenvalues --   -0.10894   0.19937   0.24557   0.24561   0.73953
 Alpha virt. eigenvalues --    0.78756   0.78769   0.83451   0.89888   0.89889
 Alpha virt. eigenvalues --    0.96145   1.10202   1.21394   1.21403   1.62273

 Mulliken charges:
               1
     1  C   -0.338071
     2  Cl  -0.598462
     3  H    0.312181
     4  H    0.312189
     5  H    0.312163
 Sum of Mulliken charges =   0.00000

 Dipole moment (field-independent basis, Debye):
    X=            -11.0595    Y=              0.0001    Z=              0.0001  Tot=             11.0595
 Quadrupole moment (field-independent basis, Debye-Ang):
   XX=             -5.3873   YY=            -20.3828   ZZ=            -20.3844
   XY=              0.0002   XZ=              0.0000   YZ=             -0.0001

 Normal termination of Gaussian 16 at Fri Sep 22 17:20:33 2023.
