 Gaussian 16, Revision A.03,
 Gaussian 16:  ES64L-G16RevA.03 25-Dec-2016

 ----------
 # hf/3-21g
 ----------

 ------------------------
 tmpdir/M2_conf_108_2.gjf
 ------------------------
 Symbolic Z-matrix:
 Charge =  0 Multiplicity = 1

                         Standard orientation:
 ---------------------------------------------------------------------
 Center     Atomic      Atomic             Coordinates (Angstroms)
 Number     Number       Type             X           Y           Z
 ---------------------------------------------------------------------
      1          6           0        0.031028   -0.003832   -0.000013
      2          1           0        0.415721    1.014280   -0.017089
      3          1           0        0.293146   -0.526582    0.900112
      4          1           0        0.287683   -0.555084   -0.884813
      5          1           0       -1.182718    0.090377    0.001871
 ---------------------------------------------------------------------

 SCF Done:  E(RHF) =  -39.9669269935     A.U. after    9 cycles

 The electronic state is 1-A.
 Alpha  occ. eigenvalues --  -11.15900  -0.93613  -0.55662  -0.55315  -0.50260
 Alpha virt. eigenvalues --    0.28263   0.32125   0.35386   0.35689   0.91883
 Alpha virt. eigenvalues --    0.92569   0.97707   1.24991   1.31786   1.36101
 Alpha virt. eigenvalues --    1.36910   1.94471

 Mulliken charges:
               1
     1  C   -0.768535
     2  H    0.202586
     3  H    0.207011
     4  H    0.206963
     5  H    0.151975
 Sum of Mulliken charges =  -0.00000

 Dipole moment (field-independent basis, Debye):
    X=              0.0657    Y=             -0.0144    Z=              0.0001  Tot=              0.0673
 Quadrupole moment (field-independent basis, Debye-Ang):
   XX=             -8.6687   YY=             -8.3961   ZZ=             -8.4049
   XY=              0.0242   XZ=              0.0011   YZ=              0.0003

 Normal termination of Gaussian 16 at Fri Sep 22 17:16:49 2023.
