 Gaussian 16, Revision A.03,
 Gaussian 16:  ES64L-G16RevA.03 25-Dec-2016

 ----------
 # hf/3-21g
 ----------

 ------------------------
 tmpdir/M2_conf_251_7.gjf
 ------------------------
 Symbolic Z-matrix:
 Charge =  0 Multiplicity = 1

                         Standard orientation:
 ---------------------------------------------------------------------
 Center     Atomic      Atomic             Coordinates (Angstroms)
 Number     Number       Type             X           Y           Z
 ---------------------------------------------------------------------
      1          1           0       -1.037467    0.132940   -0.335360
      2          6           0       -0.023551   -0.027933   -0.021176
      3          1           0        0.736722   -0.348768   -0.707955
      4          1           0        0.044045   -0.673273    0.833892
      5          1           0        0.398005    1.056702    0.336479
 ---------------------------------------------------------------------

 SCF Done:  E(RHF) =  -39.9632255165     A.U. after    9 cycles

 The electronic state is 1-A.
 Alpha  occ. eigenvalues --  -11.15751  -0.93834  -0.57428  -0.54334  -0.49656
 Alpha virt. eigenvalues --    0.28323   0.31769   0.35099   0.36370   0.90679
 Alpha virt. eigenvalues --    0.94209   0.97346   1.25292   1.31687   1.35814
 Alpha virt. eigenvalues --    1.38820   1.94598

 Mulliken charges:
               1
     1  H    0.210621
     2  C   -0.776763
     3  H    0.210532
     4  H    0.206112
     5  H    0.149497
 Sum of Mulliken charges =   0.00000

 Dipole moment (field-independent basis, Debye):
    X=              0.0260    Y=             -0.0669    Z=              0.0160  Tot=              0.0735
 Quadrupole moment (field-independent basis, Debye-Ang):
   XX=             -8.1257   YY=             -8.6304   ZZ=             -8.7025
   XY=             -0.1588   XZ=             -0.0409   YZ=             -0.1283

 Normal termination of Gaussian 16 at Fri Sep 22 17:20:30 2023.
