 Gaussian 16, Revision A.03,
 Gaussian 16:  ES64L-G16RevA.03 25-Dec-2016

 ----------
 # hf/3-21g
 ----------

 ------------------------
 tmpdir/M2_conf_190_9.gjf
 ------------------------
 Symbolic Z-matrix:
 Charge =  0 Multiplicity = 1

                         Standard orientation:
 ---------------------------------------------------------------------
 Center     Atomic      Atomic             Coordinates (Angstroms)
 Number     Number       Type             X           Y           Z
 ---------------------------------------------------------------------
      1          1           0        1.051487   -0.002544    1.050855
      2          6           0        1.205470    0.000027   -0.011642
      3         17           0       -0.686422    0.000037   -0.015814
      4          1           0        1.692475   -0.891658   -0.357938
      5          1           0        1.692390    0.893419   -0.354228
 ---------------------------------------------------------------------

 SCF Done:  E(RHF) =  -496.662375336     A.U. after   11 cycles

 The electronic state is 1-A.
 Alpha  occ. eigenvalues -- -104.09082 -11.24844 -10.48502  -7.94870  -7.94462
 Alpha  occ. eigenvalues --   -7.94453  -1.12062  -0.93145  -0.64140  -0.63124
 Alpha  occ. eigenvalues --   -0.50625  -0.44239  -0.42862
 Alpha virt. eigenvalues --    0.15166   0.27626   0.31468   0.31577   0.74090
 Alpha virt. eigenvalues --    0.79350   0.80849   0.85234   0.93025   0.96406
 Alpha virt. eigenvalues --    1.01484   1.29372   1.31193   1.32108   1.88237

 Mulliken charges:
               1
     1  H    0.284979
     2  C   -0.707236
     3  Cl  -0.109941
     4  H    0.266114
     5  H    0.266084
 Sum of Mulliken charges =  -0.00000

 Dipole moment (field-independent basis, Debye):
    X=              2.7709    Y=             -0.0007    Z=              0.2545  Tot=              2.7826
 Quadrupole moment (field-independent basis, Debye-Ang):
   XX=            -18.5169   YY=            -20.1784   ZZ=            -20.4984
   XY=              0.0012   XZ=             -0.5866   YZ=             -0.0001

 Normal termination of Gaussian 16 at Fri Sep 22 17:18:57 2023.
