 Gaussian 16, Revision A.03,
 Gaussian 16:  ES64L-G16RevA.03 25-Dec-2016

 ----------
 # hf/3-21g
 ----------

 ------------------------
 tmpdir/M2_conf_277_5.gjf
 ------------------------
 Symbolic Z-matrix:
 Charge =  0 Multiplicity = 1

                         Standard orientation:
 ---------------------------------------------------------------------
 Center     Atomic      Atomic             Coordinates (Angstroms)
 Number     Number       Type             X           Y           Z
 ---------------------------------------------------------------------
      1          1           0        1.046724    0.083567   -0.328807
      2          6           0        0.023818   -0.028781   -0.023473
      3          1           0       -0.764369   -0.293010   -0.702861
      4          1           0       -0.083912   -0.687104    0.817726
      5          1           0       -0.341350    1.069235    0.354778
 ---------------------------------------------------------------------

 SCF Done:  E(RHF) =  -39.9622326258     A.U. after    9 cycles

 The electronic state is 1-A.
 Alpha  occ. eigenvalues --  -11.15756  -0.93851  -0.57669  -0.54168  -0.49540
 Alpha virt. eigenvalues --    0.28317   0.31667   0.35021   0.36461   0.90551
 Alpha virt. eigenvalues --    0.94593   0.97324   1.25313   1.31575   1.35684
 Alpha virt. eigenvalues --    1.39099   1.94574

 Mulliken charges:
               1
     1  H    0.211522
     2  C   -0.778456
     3  H    0.211554
     4  H    0.206087
     5  H    0.149293
 Sum of Mulliken charges =  -0.00000

 Dipole moment (field-independent basis, Debye):
    X=             -0.0362    Y=             -0.0658    Z=              0.0196  Tot=              0.0776
 Quadrupole moment (field-independent basis, Debye-Ang):
   XX=             -8.0680   YY=             -8.6467   ZZ=             -8.7481
   XY=              0.1370   XZ=              0.0353   YZ=             -0.1369

 Normal termination of Gaussian 16 at Fri Sep 22 17:21:10 2023.
