 Gaussian 16, Revision A.03,
 Gaussian 16:  ES64L-G16RevA.03 25-Dec-2016

 ----------
 # hf/3-21g
 ----------

 -----------------------
 tmpdir/M2_conf_18_6.gjf
 -----------------------
 Symbolic Z-matrix:
 Charge =  0 Multiplicity = 1

                         Standard orientation:
 ---------------------------------------------------------------------
 Center     Atomic      Atomic             Coordinates (Angstroms)
 Number     Number       Type             X           Y           Z
 ---------------------------------------------------------------------
      1          1           0       -1.442681   -0.048165    1.043819
      2          6           0       -1.202414    0.000076   -0.001232
      3         17           0        0.689483    0.000099   -0.002405
      4          1           0       -1.531786    0.914760   -0.456730
      5          1           0       -1.532255   -0.868732   -0.538806
 ---------------------------------------------------------------------

 SCF Done:  E(RHF) =  -496.689035481     A.U. after   11 cycles

 The electronic state is 1-A.
 Alpha  occ. eigenvalues -- -104.08776 -11.25000 -10.48166  -7.94540  -7.94137
 Alpha  occ. eigenvalues --   -7.94136  -1.11291  -0.93334  -0.63280  -0.63225
 Alpha  occ. eigenvalues --   -0.51306  -0.43764  -0.43684
 Alpha virt. eigenvalues --    0.16577   0.27333   0.31371   0.31391   0.73831
 Alpha virt. eigenvalues --    0.80501   0.80847   0.85519   0.93243   0.94078
 Alpha virt. eigenvalues --    0.99592   1.31180   1.31204   1.32238   1.91942

 Mulliken charges:
               1
     1  H    0.272026
     2  C   -0.702788
     3  Cl  -0.107038
     4  H    0.268911
     5  H    0.268889
 Sum of Mulliken charges =  -0.00000

 Dipole moment (field-independent basis, Debye):
    X=             -2.8650    Y=             -0.0014    Z=              0.0323  Tot=              2.8651
 Quadrupole moment (field-independent basis, Debye-Ang):
   XX=            -18.5686   YY=            -20.1810   ZZ=            -20.1857
   XY=             -0.0036   XZ=              0.0896   YZ=             -0.0002

 Normal termination of Gaussian 16 at Fri Sep 22 17:14:34 2023.
