 Gaussian 16, Revision A.03,
 Gaussian 16:  ES64L-G16RevA.03 25-Dec-2016

 ----------
 # hf/3-21g
 ----------

 ------------------------
 tmpdir/M2_conf_166_1.gjf
 ------------------------
 Symbolic Z-matrix:
 Charge =  0 Multiplicity = 1

                         Standard orientation:
 ---------------------------------------------------------------------
 Center     Atomic      Atomic             Coordinates (Angstroms)
 Number     Number       Type             X           Y           Z
 ---------------------------------------------------------------------
      1          6           0       -0.032106   -0.000060    0.005947
      2          1           0       -0.230410   -0.004674    1.029504
      3          1           0       -0.377573   -0.890769   -0.483411
      4          1           0       -0.379535    0.894158   -0.476001
      5          1           0        1.180153    0.001648   -0.105773
 ---------------------------------------------------------------------

 SCF Done:  E(RHF) =  -39.9659475931     A.U. after    9 cycles

 The electronic state is 1-A.
 Alpha  occ. eigenvalues --  -11.15363  -0.94144  -0.56315  -0.55589  -0.50282
 Alpha virt. eigenvalues --    0.28413   0.32404   0.35685   0.36356   0.90523
 Alpha virt. eigenvalues --    0.91985   0.97564   1.25202   1.33357   1.37008
 Alpha virt. eigenvalues --    1.39373   1.95057

 Mulliken charges:
               1
     1  C   -0.774692
     2  H    0.214107
     3  H    0.205306
     4  H    0.205251
     5  H    0.150028
 Sum of Mulliken charges =   0.00000

 Dipole moment (field-independent basis, Debye):
    X=             -0.0771    Y=             -0.0003    Z=              0.0246  Tot=              0.0810
 Quadrupole moment (field-independent basis, Debye-Ang):
   XX=             -8.6249   YY=             -8.3601   ZZ=             -8.3850
   XY=             -0.0005   XZ=              0.0276   YZ=             -0.0001

 Normal termination of Gaussian 16 at Fri Sep 22 17:18:16 2023.
