 Gaussian 16, Revision A.03,
 Gaussian 16:  ES64L-G16RevA.03 25-Dec-2016

 ----------
 # hf/3-21g
 ----------

 ----------------------
 tmpdir/M2_conf_1_5.gjf
 ----------------------
 Symbolic Z-matrix:
 Charge =  0 Multiplicity = 1

                         Standard orientation:
 ---------------------------------------------------------------------
 Center     Atomic      Atomic             Coordinates (Angstroms)
 Number     Number       Type             X           Y           Z
 ---------------------------------------------------------------------
      1          1           0        1.033547    0.154865   -0.336302
      2          6           0        0.023899   -0.027463   -0.020778
      3          1           0       -0.726277   -0.367993   -0.709177
      4          1           0       -0.028616   -0.670752    0.837145
      5          1           0       -0.422046    1.048658    0.332999
 ---------------------------------------------------------------------

 SCF Done:  E(RHF) =  -39.9634052202     A.U. after    9 cycles

 The electronic state is 1-A.
 Alpha  occ. eigenvalues --  -11.15750  -0.93831  -0.57386  -0.54362  -0.49677
 Alpha virt. eigenvalues --    0.28324   0.31789   0.35109   0.36355   0.90713
 Alpha virt. eigenvalues --    0.94126   0.97351   1.25288   1.31718   1.35823
 Alpha virt. eigenvalues --    1.38774   1.94606

 Mulliken charges:
               1
     1  H    0.210516
     2  C   -0.776462
     3  H    0.210359
     4  H    0.206051
     5  H    0.149535
 Sum of Mulliken charges =  -0.00000

 Dipole moment (field-independent basis, Debye):
    X=             -0.0233    Y=             -0.0672    Z=              0.0151  Tot=              0.0727
 Quadrupole moment (field-independent basis, Debye-Ang):
   XX=             -8.1407   YY=             -8.6240   ZZ=             -8.6932
   XY=              0.1676   XZ=              0.0434   YZ=             -0.1259

 Normal termination of Gaussian 16 at Fri Sep 22 17:14:09 2023.
