 Gaussian 16, Revision A.03,
 Gaussian 16:  ES64L-G16RevA.03 25-Dec-2016

 ----------
 # hf/3-21g
 ----------

 ------------------------
 tmpdir/M2_conf_150_5.gjf
 ------------------------
 Symbolic Z-matrix:
 Charge =  0 Multiplicity = 1

                         Standard orientation:
 ---------------------------------------------------------------------
 Center     Atomic      Atomic             Coordinates (Angstroms)
 Number     Number       Type             X           Y           Z
 ---------------------------------------------------------------------
      1          1           0        0.838012    0.611414   -0.346255
      2          6           0        0.031543   -0.015187   -0.015851
      3          1           0       -0.420261   -0.692043   -0.716110
      4          1           0        0.274454   -0.561410    0.875913
      5          1           0       -0.881465    0.733160    0.281560
 ---------------------------------------------------------------------

 SCF Done:  E(RHF) =  -39.9650103770     A.U. after    9 cycles

 The electronic state is 1-A.
 Alpha  occ. eigenvalues --  -11.15741  -0.93803  -0.56898  -0.54707  -0.49881
 Alpha virt. eigenvalues --    0.28331   0.31961   0.35268   0.36171   0.91020
 Alpha virt. eigenvalues --    0.93398   0.97409   1.25234   1.31953   1.36090
 Alpha virt. eigenvalues --    1.38234   1.94647

 Mulliken charges:
               1
     1  H    0.209048
     2  C   -0.773784
     3  H    0.208703
     4  H    0.206047
     5  H    0.149985
 Sum of Mulliken charges =   0.00000

 Dipole moment (field-independent basis, Debye):
    X=              0.0226    Y=             -0.0623    Z=              0.0083  Tot=              0.0668
 Quadrupole moment (field-independent basis, Debye-Ang):
   XX=             -8.4394   YY=             -8.4109   ZZ=             -8.6003
   XY=              0.2499   XZ=              0.0842   YZ=             -0.0760

 Normal termination of Gaussian 16 at Fri Sep 22 17:17:52 2023.
