 Gaussian 16, Revision A.03,
 Gaussian 16:  ES64L-G16RevA.03 25-Dec-2016

 ----------
 # hf/3-21g
 ----------

 -----------------------
 tmpdir/M2_conf_91_2.gjf
 -----------------------
 Symbolic Z-matrix:
 Charge =  0 Multiplicity = 1

                         Standard orientation:
 ---------------------------------------------------------------------
 Center     Atomic      Atomic             Coordinates (Angstroms)
 Number     Number       Type             X           Y           Z
 ---------------------------------------------------------------------
      1          6           0        0.030497   -0.006071   -0.000014
      2          1           0        0.468797    0.998408   -0.011422
      3          1           0        0.265441   -0.546221    0.897337
      4          1           0        0.259778   -0.564668   -0.887720
      5          1           0       -1.176995    0.148907    0.001888
 ---------------------------------------------------------------------

 SCF Done:  E(RHF) =  -39.9668047007     A.U. after    9 cycles

 The electronic state is 1-A.
 Alpha  occ. eigenvalues --  -11.15987  -0.93535  -0.55675  -0.55156  -0.50254
 Alpha virt. eigenvalues --    0.28232   0.32065   0.35242   0.35689   0.91867
 Alpha virt. eigenvalues --    0.92884   0.97754   1.24948   1.31392   1.35767
 Alpha virt. eigenvalues --    1.36892   1.94383

 Mulliken charges:
               1
     1  C   -0.767400
     2  H    0.200621
     3  H    0.207274
     4  H    0.207225
     5  H    0.152281
 Sum of Mulliken charges =   0.00000

 Dipole moment (field-independent basis, Debye):
    X=              0.0622    Y=             -0.0220    Z=              0.0001  Tot=              0.0660
 Quadrupole moment (field-independent basis, Debye-Ang):
   XX=             -8.6720   YY=             -8.4014   ZZ=             -8.4121
   XY=              0.0394   XZ=              0.0012   YZ=              0.0002

 Normal termination of Gaussian 16 at Fri Sep 22 17:16:23 2023.
