 Gaussian 16, Revision A.03,
 Gaussian 16:  ES64L-G16RevA.03 25-Dec-2016

 ----------
 # hf/3-21g
 ----------

 ------------------------
 tmpdir/M2_conf_298_2.gjf
 ------------------------
 Symbolic Z-matrix:
 Charge =  0 Multiplicity = 1

                         Standard orientation:
 ---------------------------------------------------------------------
 Center     Atomic      Atomic             Coordinates (Angstroms)
 Number     Number       Type             X           Y           Z
 ---------------------------------------------------------------------
      1          6           0        0.012615   -0.027637   -0.000015
      2          1           0        1.069801    0.456086   -0.002969
      3          1           0       -0.178202   -0.591593    0.893149
      4          1           0       -0.183677   -0.591949   -0.892004
      5          1           0       -0.783609    0.893277    0.001916
 ---------------------------------------------------------------------

 SCF Done:  E(RHF) =  -39.9629714252     A.U. after    9 cycles

 The electronic state is 1-A.
 Alpha  occ. eigenvalues --  -11.16757  -0.92925  -0.55793  -0.53815  -0.50140
 Alpha virt. eigenvalues --    0.27836   0.31332   0.34235   0.35687   0.91729
 Alpha virt. eigenvalues --    0.95046   0.98830   1.24234   1.27406   1.34266
 Alpha virt. eigenvalues --    1.36720   1.93640

 Mulliken charges:
               1
     1  C   -0.755827
     2  H    0.182270
     3  H    0.209386
     4  H    0.209336
     5  H    0.154835
 Sum of Mulliken charges =  -0.00000

 Dipole moment (field-independent basis, Debye):
    X=             -0.0167    Y=             -0.0730    Z=              0.0001  Tot=              0.0749
 Quadrupole moment (field-independent basis, Debye-Ang):
   XX=             -8.5366   YY=             -8.6104   ZZ=             -8.4743
   XY=              0.1586   XZ=              0.0011   YZ=             -0.0006

 Normal termination of Gaussian 16 at Fri Sep 22 17:21:46 2023.
