 Gaussian 16, Revision A.03,
 Gaussian 16:  ES64L-G16RevA.03 25-Dec-2016

 ----------
 # hf/3-21g
 ----------

 -----------------------
 tmpdir/M2_conf_36_5.gjf
 -----------------------
 Symbolic Z-matrix:
 Charge =  0 Multiplicity = 1

                         Standard orientation:
 ---------------------------------------------------------------------
 Center     Atomic      Atomic             Coordinates (Angstroms)
 Number     Number       Type             X           Y           Z
 ---------------------------------------------------------------------
      1          1           0       -0.560039   -0.075581    0.880317
      2          6           0        0.004599    0.028456   -0.026627
      3          1           0       -0.856248   -0.165249   -0.638212
      4          1           0        0.565895    0.943082   -0.058516
      5          1           0        0.822797   -0.872990   -0.023829
 ---------------------------------------------------------------------

 SCF Done:  E(RHF) =  -39.9538775967     A.U. after    9 cycles

 The electronic state is 1-A.
 Alpha  occ. eigenvalues --  -11.15746  -0.94138  -0.58809  -0.51304  -0.50787
 Alpha virt. eigenvalues --    0.27960   0.32217   0.34076   0.36577   0.89911
 Alpha virt. eigenvalues --    0.94640   0.99777   1.24462   1.31577   1.34240
 Alpha virt. eigenvalues --    1.41145   1.92699

 Mulliken charges:
               1
     1  H    0.201811
     2  C   -0.782359
     3  H    0.209537
     4  H    0.212464
     5  H    0.158546
 Sum of Mulliken charges =   0.00000

 Dipole moment (field-independent basis, Debye):
    X=             -0.1719    Y=              0.0328    Z=              0.1413  Tot=              0.2249
 Quadrupole moment (field-independent basis, Debye-Ang):
   XX=             -7.8866   YY=             -8.4530   ZZ=             -9.1248
   XY=              0.2364   XZ=              0.0225   YZ=             -0.0138

 Normal termination of Gaussian 16 at Fri Sep 22 17:15:01 2023.
