 Gaussian 16, Revision A.03,
 Gaussian 16:  ES64L-G16RevA.03 25-Dec-2016

 ----------
 # hf/3-21g
 ----------

 ------------------------
 tmpdir/M2_conf_239_5.gjf
 ------------------------
 Symbolic Z-matrix:
 Charge =  0 Multiplicity = 1

                         Standard orientation:
 ---------------------------------------------------------------------
 Center     Atomic      Atomic             Coordinates (Angstroms)
 Number     Number       Type             X           Y           Z
 ---------------------------------------------------------------------
      1          1           0        1.042269    0.107915   -0.332220
      2          6           0        0.023658   -0.028352   -0.022300
      3          1           0       -0.750891   -0.320774   -0.705804
      4          1           0       -0.063942   -0.680498    0.826016
      5          1           0       -0.369386    1.063469    0.345809
 ---------------------------------------------------------------------

 SCF Done:  E(RHF) =  -39.9627704475     A.U. after    9 cycles

 The electronic state is 1-A.
 Alpha  occ. eigenvalues --  -11.15753  -0.93842  -0.57545  -0.54252  -0.49602
 Alpha virt. eigenvalues --    0.28321   0.31723   0.35060   0.36415   0.90621
 Alpha virt. eigenvalues --    0.94384   0.97335   1.25303   1.31638   1.35744
 Alpha virt. eigenvalues --    1.38955   1.94589

 Mulliken charges:
               1
     1  H    0.211065
     2  C   -0.777538
     3  H    0.211007
     4  H    0.206068
     5  H    0.149398
 Sum of Mulliken charges =   0.00000

 Dipole moment (field-independent basis, Debye):
    X=             -0.0310    Y=             -0.0664    Z=              0.0176  Tot=              0.0753
 Quadrupole moment (field-independent basis, Debye-Ang):
   XX=             -8.0975   YY=             -8.6391   ZZ=             -8.7239
   XY=              0.1480   XZ=              0.0382   YZ=             -0.1326

 Normal termination of Gaussian 16 at Fri Sep 22 17:20:11 2023.
