 Gaussian 16, Revision A.03,
 Gaussian 16:  ES64L-G16RevA.03 25-Dec-2016

 ----------
 # hf/3-21g
 ----------

 -----------------------
 tmpdir/M2_conf_67_4.gjf
 -----------------------
 Symbolic Z-matrix:
 Charge =  0 Multiplicity = 1

                         Standard orientation:
 ---------------------------------------------------------------------
 Center     Atomic      Atomic             Coordinates (Angstroms)
 Number     Number       Type             X           Y           Z
 ---------------------------------------------------------------------
      1          1           0        0.429307   -0.222282    0.957412
      2          6           0        0.022550    0.016988   -0.006686
      3          1           0        0.636916   -0.479272   -0.733940
      4          1           0       -0.110334    1.073241   -0.145520
      5          1           0       -1.091189   -0.473612   -0.037834
 ---------------------------------------------------------------------

 SCF Done:  E(RHF) =  -39.9662184753     A.U. after    9 cycles

 The electronic state is 1-A.
 Alpha  occ. eigenvalues --  -11.15720  -0.93804  -0.56519  -0.54448  -0.50515
 Alpha virt. eigenvalues --    0.28270   0.32327   0.35233   0.36035   0.90951
 Alpha virt. eigenvalues --    0.92823   0.97986   1.24908   1.32706   1.35869
 Alpha virt. eigenvalues --    1.37934   1.94471

 Mulliken charges:
               1
     1  H    0.205096
     2  C   -0.771596
     3  H    0.206219
     4  H    0.207340
     5  H    0.152941
 Sum of Mulliken charges =  -0.00000

 Dipole moment (field-independent basis, Debye):
    X=              0.0894    Y=              0.0134    Z=              0.0354  Tot=              0.0971
 Quadrupole moment (field-independent basis, Debye-Ang):
   XX=             -8.4841   YY=             -8.3601   ZZ=             -8.5895
   XY=             -0.1765   XZ=             -0.0209   YZ=             -0.0065

 Normal termination of Gaussian 16 at Fri Sep 22 17:15:48 2023.
