 Gaussian 16, Revision A.03,
 Gaussian 16:  ES64L-G16RevA.03 25-Dec-2016

 ----------
 # hf/3-21g
 ----------

 -----------------------
 tmpdir/M2_conf_23_7.gjf
 -----------------------
 Symbolic Z-matrix:
 Charge =  0 Multiplicity = 1

                         Standard orientation:
 ---------------------------------------------------------------------
 Center     Atomic      Atomic             Coordinates (Angstroms)
 Number     Number       Type             X           Y           Z
 ---------------------------------------------------------------------
      1          1           0       -0.381104    0.958014   -0.350248
      2          6           0       -0.033637    0.001056   -0.009492
      3          1           0       -0.110110   -0.805802   -0.713584
      4          1           0       -0.467838   -0.282824    0.930218
      5          1           0        1.160873    0.124279    0.190565
 ---------------------------------------------------------------------

 SCF Done:  E(RHF) =  -39.9662418916     A.U. after    9 cycles

 The electronic state is 1-A.
 Alpha  occ. eigenvalues --  -11.15733  -0.93784  -0.56337  -0.55117  -0.50075
 Alpha virt. eigenvalues --    0.28330   0.32108   0.35458   0.35955   0.91395
 Alpha virt. eigenvalues --    0.92683   0.97495   1.25162   1.32194   1.36449
 Alpha virt. eigenvalues --    1.37638   1.94668

 Mulliken charges:
               1
     1  H    0.207667
     2  C   -0.771791
     3  H    0.207368
     4  H    0.206198
     5  H    0.150557
 Sum of Mulliken charges =  -0.00000

 Dipole moment (field-independent basis, Debye):
    X=             -0.0600    Y=             -0.0251    Z=              0.0025  Tot=              0.0651
 Quadrupole moment (field-independent basis, Debye-Ang):
   XX=             -8.6651   YY=             -8.2798   ZZ=             -8.4989
   XY=             -0.0577   XZ=             -0.0772   YZ=             -0.0105

 Normal termination of Gaussian 16 at Fri Sep 22 17:14:42 2023.
