 Gaussian 16, Revision A.03,
 Gaussian 16:  ES64L-G16RevA.03 25-Dec-2016

 ----------
 # hf/3-21g
 ----------

 ------------------------
 tmpdir/M2_conf_142_7.gjf
 ------------------------
 Symbolic Z-matrix:
 Charge =  0 Multiplicity = 1

                         Standard orientation:
 ---------------------------------------------------------------------
 Center     Atomic      Atomic             Coordinates (Angstroms)
 Number     Number       Type             X           Y           Z
 ---------------------------------------------------------------------
      1          1           0       -1.056863    0.037739   -0.316800
      2          6           0       -0.025274   -0.029550   -0.027122
      3          1           0        0.793532   -0.230921   -0.691664
      4          1           0        0.127830   -0.704662    0.793218
      5          1           0        0.287146    1.075144    0.377975
 ---------------------------------------------------------------------

 SCF Done:  E(RHF) =  -39.9602422567     A.U. after    9 cycles

 The electronic state is 1-A.
 Alpha  occ. eigenvalues --  -11.15764  -0.93887  -0.58066  -0.53909  -0.49319
 Alpha virt. eigenvalues --    0.28303   0.31462   0.34909   0.36607   0.90338
 Alpha virt. eigenvalues --    0.95324   0.97295   1.25338   1.31357   1.35518
 Alpha virt. eigenvalues --    1.39575   1.94519

 Mulliken charges:
               1
     1  H    0.213119
     2  C   -0.781889
     3  H    0.213566
     4  H    0.206232
     5  H    0.148972
 Sum of Mulliken charges =  -0.00000

 Dipole moment (field-independent basis, Debye):
    X=              0.0509    Y=             -0.0646    Z=              0.0267  Tot=              0.0865
 Quadrupole moment (field-independent basis, Debye-Ang):
   XX=             -7.9822   YY=             -8.6608   ZZ=             -8.8274
   XY=             -0.1147   XZ=             -0.0293   YZ=             -0.1475

 Normal termination of Gaussian 16 at Fri Sep 22 17:17:39 2023.
