 Gaussian 16, Revision A.03,
 Gaussian 16:  ES64L-G16RevA.03 25-Dec-2016

 ----------
 # hf/3-21g
 ----------

 ------------------------
 tmpdir/M2_conf_203_9.gjf
 ------------------------
 Symbolic Z-matrix:
 Charge =  0 Multiplicity = 1

                         Standard orientation:
 ---------------------------------------------------------------------
 Center     Atomic      Atomic             Coordinates (Angstroms)
 Number     Number       Type             X           Y           Z
 ---------------------------------------------------------------------
      1          1           0        0.961455   -0.001775    1.029909
      2          6           0        1.206837    0.000022   -0.015271
      3         17           0       -0.685062    0.000031   -0.017985
      4          1           0        1.721802   -0.891980   -0.317495
      5          1           0        1.721774    0.893098   -0.315038
 ---------------------------------------------------------------------

 SCF Done:  E(RHF) =  -496.649038409     A.U. after   11 cycles

 The electronic state is 1-A.
 Alpha  occ. eigenvalues -- -104.09256 -11.24722 -10.48704  -7.95068  -7.94657
 Alpha  occ. eigenvalues --   -7.94643  -1.12501  -0.93046  -0.64488  -0.63080
 Alpha  occ. eigenvalues --   -0.50473  -0.44455  -0.42428
 Alpha virt. eigenvalues --    0.14598   0.27847   0.31535   0.31652   0.74154
 Alpha virt. eigenvalues --    0.79062   0.80689   0.84929   0.93553   0.96858
 Alpha virt. eigenvalues --    1.01967   1.28649   1.31239   1.31882   1.86746

 Mulliken charges:
               1
     1  H    0.287691
     2  C   -0.708683
     3  Cl  -0.111680
     4  H    0.266351
     5  H    0.266320
 Sum of Mulliken charges =  -0.00000

 Dipole moment (field-independent basis, Debye):
    X=              2.7157    Y=             -0.0006    Z=              0.3099  Tot=              2.7333
 Quadrupole moment (field-independent basis, Debye-Ang):
   XX=            -18.5130   YY=            -20.1720   ZZ=            -20.6365
   XY=              0.0010   XZ=             -0.6621   YZ=             -0.0000

 Normal termination of Gaussian 16 at Fri Sep 22 17:19:17 2023.
