 Gaussian 16, Revision A.03,
 Gaussian 16:  ES64L-G16RevA.03 25-Dec-2016

 ----------
 # hf/3-21g
 ----------

 ------------------------
 tmpdir/M2_conf_285_2.gjf
 ------------------------
 Symbolic Z-matrix:
 Charge =  0 Multiplicity = 1

                         Standard orientation:
 ---------------------------------------------------------------------
 Center     Atomic      Atomic             Coordinates (Angstroms)
 Number     Number       Type             X           Y           Z
 ---------------------------------------------------------------------
      1          6           0        0.031057   -0.003692   -0.000013
      2          1           0        0.412518    1.015092   -0.017675
      3          1           0        0.294779   -0.525142    0.900397
      4          1           0        0.289328   -0.554675   -0.884511
      5          1           0       -1.182966    0.086876    0.001869
 ---------------------------------------------------------------------

 SCF Done:  E(RHF) =  -39.9669325733     A.U. after    9 cycles

 The electronic state is 1-A.
 Alpha  occ. eigenvalues --  -11.15894  -0.93619  -0.55661  -0.55326  -0.50260
 Alpha virt. eigenvalues --    0.28265   0.32129   0.35395   0.35689   0.91884
 Alpha virt. eigenvalues --    0.92547   0.97704   1.24994   1.31811   1.36126
 Alpha virt. eigenvalues --    1.36911   1.94476

 Mulliken charges:
               1
     1  C   -0.768609
     2  H    0.202716
     3  H    0.206994
     4  H    0.206945
     5  H    0.151954
 Sum of Mulliken charges =  -0.00000

 Dipole moment (field-independent basis, Debye):
    X=              0.0659    Y=             -0.0139    Z=              0.0001  Tot=              0.0674
 Quadrupole moment (field-independent basis, Debye-Ang):
   XX=             -8.6684   YY=             -8.3958   ZZ=             -8.4044
   XY=              0.0232   XZ=              0.0011   YZ=              0.0003

 Normal termination of Gaussian 16 at Fri Sep 22 17:21:26 2023.
