 Gaussian 16, Revision A.03,
 Gaussian 16:  ES64L-G16RevA.03 25-Dec-2016

 ----------
 # hf/3-21g
 ----------

 -----------------------
 tmpdir/M2_conf_75_0.gjf
 -----------------------
 Symbolic Z-matrix:
 Charge =  0 Multiplicity = 1

                         Standard orientation:
 ---------------------------------------------------------------------
 Center     Atomic      Atomic             Coordinates (Angstroms)
 Number     Number       Type             X           Y           Z
 ---------------------------------------------------------------------
      1          6           0        0.013112   -0.027400    0.000056
      2          1           0        1.062107    0.469890    0.001406
      3          1           0       -0.174625   -0.592917    0.893124
      4          1           0       -0.170786   -0.595350   -0.892254
      5          1           0       -0.795368    0.882778   -0.002614
 ---------------------------------------------------------------------

 SCF Done:  E(RHF) =  -39.9631250203     A.U. after    9 cycles

 The electronic state is 1-A.
 Alpha  occ. eigenvalues --  -11.16740  -0.92937  -0.55788  -0.53845  -0.50145
 Alpha virt. eigenvalues --    0.27849   0.31354   0.34253   0.35685   0.91739
 Alpha virt. eigenvalues --    0.95013   0.98782   1.24265   1.27494   1.34276
 Alpha virt. eigenvalues --    1.36716   1.93656

 Mulliken charges:
               1
     1  C   -0.756124
     2  H    0.182756
     3  H    0.209293
     4  H    0.209291
     5  H    0.154784
 Sum of Mulliken charges =  -0.00000

 Dipole moment (field-independent basis, Debye):
    X=             -0.0142    Y=             -0.0726    Z=              0.0001  Tot=              0.0740
 Quadrupole moment (field-independent basis, Debye-Ang):
   XX=             -8.5410   YY=             -8.6047   ZZ=             -8.4727
   XY=              0.1588   XZ=             -0.0010   YZ=              0.0007

 Normal termination of Gaussian 16 at Fri Sep 22 17:16:00 2023.
