 Gaussian 16, Revision A.03,
 Gaussian 16:  ES64L-G16RevA.03 25-Dec-2016

 ----------
 # hf/3-21g
 ----------

 -----------------------
 tmpdir/M2_conf_63_5.gjf
 -----------------------
 Symbolic Z-matrix:
 Charge =  0 Multiplicity = 1

                         Standard orientation:
 ---------------------------------------------------------------------
 Center     Atomic      Atomic             Coordinates (Angstroms)
 Number     Number       Type             X           Y           Z
 ---------------------------------------------------------------------
      1          1           0        0.330503    0.974382   -0.344801
      2          6           0        0.032584    0.001073   -0.004065
      3          1           0        0.251843   -0.788537   -0.697644
      4          1           0        0.403145   -0.221411    0.978684
      5          1           0       -1.180994    0.029126    0.088149
 ---------------------------------------------------------------------

 SCF Done:  E(RHF) =  -39.9667714871     A.U. after    9 cycles

 The electronic state is 1-A.
 Alpha  occ. eigenvalues --  -11.15728  -0.93777  -0.55922  -0.55425  -0.50196
 Alpha virt. eigenvalues --    0.28325   0.32188   0.35594   0.35797   0.91710
 Alpha virt. eigenvalues --    0.92202   0.97574   1.25107   1.32357   1.36727
 Alpha virt. eigenvalues --    1.37223   1.94665

 Mulliken charges:
               1
     1  H    0.206932
     2  C   -0.770960
     3  H    0.206719
     4  H    0.206289
     5  H    0.151020
 Sum of Mulliken charges =  -0.00000

 Dipole moment (field-independent basis, Debye):
    X=              0.0668    Y=             -0.0091    Z=              0.0001  Tot=              0.0674
 Quadrupole moment (field-independent basis, Debye-Ang):
   XX=             -8.6672   YY=             -8.3435   ZZ=             -8.4292
   XY=              0.0144   XZ=              0.0361   YZ=             -0.0017

 Normal termination of Gaussian 16 at Fri Sep 22 17:15:41 2023.
