 Gaussian 16, Revision A.03,
 Gaussian 16:  ES64L-G16RevA.03 25-Dec-2016

 ----------
 # hf/3-21g
 ----------

 ------------------------
 tmpdir/M2_conf_188_0.gjf
 ------------------------
 Symbolic Z-matrix:
 Charge =  0 Multiplicity = 1

                         Standard orientation:
 ---------------------------------------------------------------------
 Center     Atomic      Atomic             Coordinates (Angstroms)
 Number     Number       Type             X           Y           Z
 ---------------------------------------------------------------------
      1          6           0       -0.032191    0.000056    0.008240
      2          1           0       -0.202768   -0.002404    1.021277
      3          1           0       -0.388015    0.895030   -0.466136
      4          1           0       -0.392987   -0.890340   -0.470953
      5          1           0        1.176915   -0.002620   -0.133631
 ---------------------------------------------------------------------

 SCF Done:  E(RHF) =  -39.9648682836     A.U. after    9 cycles

 The electronic state is 1-A.
 Alpha  occ. eigenvalues --  -11.15187  -0.94338  -0.56646  -0.55570  -0.50285
 Alpha virt. eigenvalues --    0.28451   0.32468   0.35684   0.36699   0.89819
 Alpha virt. eigenvalues --    0.92033   0.97552   1.25258   1.33629   1.37033
 Alpha virt. eigenvalues --    1.40831   1.95280

 Mulliken charges:
               1
     1  C   -0.776405
     2  H    0.217738
     3  H    0.204655
     4  H    0.204649
     5  H    0.149363
 Sum of Mulliken charges =  -0.00000

 Dipole moment (field-independent basis, Debye):
    X=             -0.0794    Y=              0.0002    Z=              0.0350  Tot=              0.0868
 Quadrupole moment (field-independent basis, Debye-Ang):
   XX=             -8.6086   YY=             -8.3440   ZZ=             -8.3836
   XY=              0.0012   XZ=              0.0335   YZ=             -0.0004

 Normal termination of Gaussian 16 at Fri Sep 22 17:18:54 2023.
