 Gaussian 16, Revision A.03,
 Gaussian 16:  ES64L-G16RevA.03 25-Dec-2016

 ----------
 # hf/3-21g
 ----------

 -----------------------
 tmpdir/M2_conf_23_9.gjf
 -----------------------
 Symbolic Z-matrix:
 Charge =  0 Multiplicity = 1

                         Standard orientation:
 ---------------------------------------------------------------------
 Center     Atomic      Atomic             Coordinates (Angstroms)
 Number     Number       Type             X           Y           Z
 ---------------------------------------------------------------------
      1          1           0        1.467177   -0.334160    0.984526
      2          6           0        1.202376    0.000248   -0.000699
      3         17           0       -0.689524    0.000452   -0.001358
      4          1           0        1.520398   -0.682772   -0.765252
      5          1           0        1.520070    1.007759   -0.192002
 ---------------------------------------------------------------------

 SCF Done:  E(RHF) =  -496.689326036     A.U. after   11 cycles

 The electronic state is 1-A.
 Alpha  occ. eigenvalues -- -104.08774 -11.25001 -10.48163  -7.94538  -7.94134
 Alpha  occ. eigenvalues --   -7.94134  -1.11284  -0.93336  -0.63261  -0.63233
 Alpha  occ. eigenvalues --   -0.51318  -0.43748  -0.43703
 Alpha virt. eigenvalues --    0.16596   0.27332   0.31371   0.31387   0.73827
 Alpha virt. eigenvalues --    0.80573   0.80786   0.85505   0.93418   0.93904
 Alpha virt. eigenvalues --    0.99550   1.31213   1.31220   1.32209   1.91985

 Mulliken charges:
               1
     1  H    0.271118
     2  C   -0.702674
     3  Cl  -0.107042
     4  H    0.269311
     5  H    0.269288
 Sum of Mulliken charges =  -0.00000

 Dipole moment (field-independent basis, Debye):
    X=              2.8658    Y=             -0.0061    Z=              0.0180  Tot=              2.8659
 Quadrupole moment (field-independent basis, Debye-Ang):
   XX=            -18.5695   YY=            -20.1809   ZZ=            -20.1821
   XY=              0.0167   XZ=             -0.0509   YZ=             -0.0005

 Normal termination of Gaussian 16 at Fri Sep 22 17:14:42 2023.
