 Gaussian 16, Revision A.03,
 Gaussian 16:  ES64L-G16RevA.03 25-Dec-2016

 ----------
 # hf/3-21g
 ----------

 ------------------------
 tmpdir/M2_conf_153_0.gjf
 ------------------------
 Symbolic Z-matrix:
 Charge =  0 Multiplicity = 1

                         Standard orientation:
 ---------------------------------------------------------------------
 Center     Atomic      Atomic             Coordinates (Angstroms)
 Number     Number       Type             X           Y           Z
 ---------------------------------------------------------------------
      1          6           0       -0.032079    0.000056    0.005203
      2          1           0       -0.242660   -0.004154    1.030288
      3          1           0       -0.370575    0.895901   -0.480087
      4          1           0       -0.375622   -0.889458   -0.488100
      5          1           0        1.181329   -0.002624   -0.093317
 ---------------------------------------------------------------------

 SCF Done:  E(RHF) =  -39.9661595253     A.U. after    9 cycles

 The electronic state is 1-A.
 Alpha  occ. eigenvalues --  -11.15411  -0.94093  -0.56223  -0.55596  -0.50281
 Alpha virt. eigenvalues --    0.28402   0.32383   0.35685   0.36266   0.90698
 Alpha virt. eigenvalues --    0.91987   0.97570   1.25185   1.33261   1.36995
 Alpha virt. eigenvalues --    1.39018   1.95000

 Mulliken charges:
               1
     1  C   -0.774192
     2  H    0.213164
     3  H    0.205413
     4  H    0.205408
     5  H    0.150207
 Sum of Mulliken charges =   0.00000

 Dipole moment (field-independent basis, Debye):
    X=             -0.0765    Y=              0.0001    Z=              0.0217  Tot=              0.0796
 Quadrupole moment (field-independent basis, Debye-Ang):
   XX=             -8.6295   YY=             -8.3634   ZZ=             -8.3862
   XY=              0.0012   XZ=              0.0237   YZ=             -0.0003

 Normal termination of Gaussian 16 at Fri Sep 22 17:17:56 2023.
