 Gaussian 16, Revision A.03,
 Gaussian 16:  ES64L-G16RevA.03 25-Dec-2016

 ----------
 # hf/3-21g
 ----------

 ------------------------
 tmpdir/M2_conf_158_6.gjf
 ------------------------
 Symbolic Z-matrix:
 Charge =  0 Multiplicity = 1

                         Standard orientation:
 ---------------------------------------------------------------------
 Center     Atomic      Atomic             Coordinates (Angstroms)
 Number     Number       Type             X           Y           Z
 ---------------------------------------------------------------------
      1          1           0       -1.113027   -0.002091    1.059969
      2          6           0       -1.204684    0.000033   -0.009509
      3         17           0        0.687205    0.000019   -0.014083
      4          1           0       -1.670497    0.893476   -0.380170
      5          1           0       -1.670857   -0.891901   -0.383334
 ---------------------------------------------------------------------

 SCF Done:  E(RHF) =  -496.669671157     A.U. after   11 cycles

 The electronic state is 1-A.
 Alpha  occ. eigenvalues -- -104.08991 -11.24899 -10.48400  -7.94769  -7.94363
 Alpha  occ. eigenvalues --   -7.94356  -1.11836  -0.93197  -0.63935  -0.63144
 Alpha  occ. eigenvalues --   -0.50754  -0.44123  -0.43085
 Alpha virt. eigenvalues --    0.15508   0.27523   0.31435   0.31534   0.74039
 Alpha virt. eigenvalues --    0.79539   0.80942   0.85422   0.92709   0.96087
 Alpha virt. eigenvalues --    1.01135   1.29768   1.31170   1.32245   1.89156

 Mulliken charges:
               1
     1  H    0.283134
     2  C   -0.706426
     3  Cl  -0.108929
     4  H    0.266118
     5  H    0.266104
 Sum of Mulliken charges =   0.00000

 Dipole moment (field-independent basis, Debye):
    X=             -2.7989    Y=             -0.0004    Z=              0.2181  Tot=              2.8074
 Quadrupole moment (field-independent basis, Debye-Ang):
   XX=            -18.5247   YY=            -20.1802   ZZ=            -20.4183
   XY=             -0.0006   XZ=              0.5236   YZ=             -0.0001

 Normal termination of Gaussian 16 at Fri Sep 22 17:18:04 2023.
