 Gaussian 16, Revision A.03,
 Gaussian 16:  ES64L-G16RevA.03 25-Dec-2016

 ----------
 # hf/3-21g
 ----------

 ------------------------
 tmpdir/M2_conf_265_7.gjf
 ------------------------
 Symbolic Z-matrix:
 Charge =  0 Multiplicity = 1

                         Standard orientation:
 ---------------------------------------------------------------------
 Center     Atomic      Atomic             Coordinates (Angstroms)
 Number     Number       Type             X           Y           Z
 ---------------------------------------------------------------------
      1          1           0        0.433621   -0.218897    0.955809
      2          6           0        0.021840    0.017736   -0.007030
      3          1           0        0.650300   -0.462466   -0.733017
      4          1           0       -0.133886    1.071482   -0.139478
      5          1           0       -1.081075   -0.496536   -0.041134
 ---------------------------------------------------------------------

 SCF Done:  E(RHF) =  -39.9661134041     A.U. after    9 cycles

 The electronic state is 1-A.
 Alpha  occ. eigenvalues --  -11.15720  -0.93807  -0.56571  -0.54380  -0.50526
 Alpha virt. eigenvalues --    0.28267   0.32331   0.35205   0.36055   0.90917
 Alpha virt. eigenvalues --    0.92860   0.98011   1.24899   1.32719   1.35801
 Alpha virt. eigenvalues --    1.37999   1.94454

 Mulliken charges:
               1
     1  H    0.204980
     2  C   -0.771724
     3  H    0.206243
     4  H    0.207462
     5  H    0.153039
 Sum of Mulliken charges =   0.00000

 Dipole moment (field-independent basis, Debye):
    X=              0.0904    Y=              0.0145    Z=              0.0374  Tot=              0.0989
 Quadrupole moment (field-independent basis, Debye-Ang):
   XX=             -8.4688   YY=             -8.3646   ZZ=             -8.6004
   XY=             -0.1832   XZ=             -0.0225   YZ=             -0.0074

 Normal termination of Gaussian 16 at Fri Sep 22 17:20:51 2023.
