 Gaussian 16, Revision A.03,
 Gaussian 16:  ES64L-G16RevA.03 25-Dec-2016

 ----------
 # hf/3-21g
 ----------

 ------------------------
 tmpdir/M2_conf_282_4.gjf
 ------------------------
 Symbolic Z-matrix:
 Charge =  0 Multiplicity = 1

                         Standard orientation:
 ---------------------------------------------------------------------
 Center     Atomic      Atomic             Coordinates (Angstroms)
 Number     Number       Type             X           Y           Z
 ---------------------------------------------------------------------
      1          1           0       -0.343443    0.968764   -0.352650
      2          6           0       -0.033027    0.001264   -0.006568
      3          1           0       -0.191849   -0.798945   -0.704462
      4          1           0       -0.440539   -0.240292    0.956857
      5          1           0        1.173991    0.062889    0.139665
 ---------------------------------------------------------------------

 SCF Done:  E(RHF) =  -39.9665858750     A.U. after    9 cycles

 The electronic state is 1-A.
 Alpha  occ. eigenvalues --  -11.15730  -0.93779  -0.56099  -0.55293  -0.50147
 Alpha virt. eigenvalues --    0.28327   0.32157   0.35535   0.35866   0.91578
 Alpha virt. eigenvalues --    0.92395   0.97540   1.25130   1.32293   1.36601
 Alpha virt. eigenvalues --    1.37400   1.94668

 Mulliken charges:
               1
     1  H    0.207244
     2  C   -0.771245
     3  H    0.206968
     4  H    0.206214
     5  H    0.150819
 Sum of Mulliken charges =   0.00000

 Dipole moment (field-independent basis, Debye):
    X=             -0.0642    Y=             -0.0155    Z=              0.0005  Tot=              0.0661
 Quadrupole moment (field-independent basis, Debye-Ang):
   XX=             -8.6682   YY=             -8.3153   ZZ=             -8.4580
   XY=             -0.0300   XZ=             -0.0570   YZ=             -0.0045

 Normal termination of Gaussian 16 at Fri Sep 22 17:21:17 2023.
