 Gaussian 16, Revision A.03,
 Gaussian 16:  ES64L-G16RevA.03 25-Dec-2016

 ----------
 # hf/3-21g
 ----------

 ------------------------
 tmpdir/M2_conf_251_8.gjf
 ------------------------
 Symbolic Z-matrix:
 Charge =  0 Multiplicity = 1

                         Standard orientation:
 ---------------------------------------------------------------------
 Center     Atomic      Atomic             Coordinates (Angstroms)
 Number     Number       Type             X           Y           Z
 ---------------------------------------------------------------------
      1          1           0        0.598563    0.000089    0.839888
      2          6           0        1.215286    0.000016   -0.038901
      3         17           0       -0.676527   -0.000011   -0.020758
      4          1           0        1.805166    0.892477   -0.126835
      5          1           0        1.805509   -0.892473   -0.126751
 ---------------------------------------------------------------------

 SCF Done:  E(RHF) =  -496.547508821     A.U. after   12 cycles

 The electronic state is 1-A.
 Alpha  occ. eigenvalues -- -104.10973 -11.23017 -10.50792  -7.97147  -7.96681
 Alpha  occ. eigenvalues --   -7.96624  -1.16949  -0.92111  -0.66638  -0.62405
 Alpha  occ. eigenvalues --   -0.51335  -0.46379  -0.38415
 Alpha virt. eigenvalues --    0.11727   0.30190   0.32392   0.32607   0.73832
 Alpha virt. eigenvalues --    0.77424   0.79896   0.84457   0.92773   0.98365
 Alpha virt. eigenvalues --    1.03648   1.21859   1.31251   1.32106   1.81259

 Mulliken charges:
               1
     1  H    0.294782
     2  C   -0.735764
     3  Cl  -0.098677
     4  H    0.269849
     5  H    0.269810
 Sum of Mulliken charges =  -0.00000

 Dipole moment (field-independent basis, Debye):
    X=              2.0852    Y=              0.0001    Z=              0.6026  Tot=              2.1706
 Quadrupole moment (field-independent basis, Debye-Ang):
   XX=            -18.7579   YY=            -20.0586   ZZ=            -21.4179
   XY=             -0.0003   XZ=             -0.5918   YZ=             -0.0000

 Normal termination of Gaussian 16 at Fri Sep 22 17:20:30 2023.
