 Gaussian 16, Revision A.03,
 Gaussian 16:  ES64L-G16RevA.03 25-Dec-2016

 ----------
 # hf/3-21g
 ----------

 ------------------------
 tmpdir/M2_conf_299_0.gjf
 ------------------------
 Symbolic Z-matrix:
 Charge =  0 Multiplicity = 1

                         Standard orientation:
 ---------------------------------------------------------------------
 Center     Atomic      Atomic             Coordinates (Angstroms)
 Number     Number       Type             X           Y           Z
 ---------------------------------------------------------------------
      1          6           0        0.002868   -0.030546    0.000057
      2          1           0        1.174973    0.249517    0.000958
      3          1           0       -0.297342   -0.544869    0.893348
      4          1           0       -0.294759   -0.548428   -0.892031
      5          1           0       -0.600082    1.027054   -0.002615
 ---------------------------------------------------------------------

 SCF Done:  E(RHF) =  -39.9584857764     A.U. after    9 cycles

 The electronic state is 1-A.
 Alpha  occ. eigenvalues --  -11.17238  -0.92610  -0.55876  -0.53075  -0.49969
 Alpha virt. eigenvalues --    0.27406   0.30744   0.33849   0.35682   0.91658
 Alpha virt. eigenvalues --    0.95624   1.00257   1.22891   1.25879   1.33798
 Alpha virt. eigenvalues --    1.36591   1.93151

 Mulliken charges:
               1
     1  C   -0.747102
     2  H    0.169831
     3  H    0.210480
     4  H    0.210480
     5  H    0.156311
 Sum of Mulliken charges =  -0.00000

 Dipole moment (field-independent basis, Debye):
    X=             -0.0666    Y=             -0.0729    Z=              0.0001  Tot=              0.0988
 Quadrupole moment (field-independent basis, Debye-Ang):
   XX=             -8.4905   YY=             -8.7013   ZZ=             -8.5118
   XY=              0.1405   XZ=             -0.0009   YZ=              0.0009

 Normal termination of Gaussian 16 at Fri Sep 22 17:21:47 2023.
