 Gaussian 16, Revision A.03,
 Gaussian 16:  ES64L-G16RevA.03 25-Dec-2016

 ----------
 # hf/3-21g
 ----------

 ------------------------
 tmpdir/M2_conf_155_4.gjf
 ------------------------
 Symbolic Z-matrix:
 Charge =  0 Multiplicity = 1

                         Standard orientation:
 ---------------------------------------------------------------------
 Center     Atomic      Atomic             Coordinates (Angstroms)
 Number     Number       Type             X           Y           Z
 ---------------------------------------------------------------------
      1          1           0       -0.335749    0.970721   -0.352306
      2          6           0       -0.032799    0.001158   -0.005381
      3          1           0       -0.220341   -0.795947   -0.699700
      4          1           0       -0.424754   -0.227639    0.967567
      5          1           0        1.177638    0.045919    0.116725
 ---------------------------------------------------------------------

 SCF Done:  E(RHF) =  -39.9666862587     A.U. after    9 cycles

 The electronic state is 1-A.
 Alpha  occ. eigenvalues --  -11.15729  -0.93778  -0.56010  -0.55359  -0.50172
 Alpha virt. eigenvalues --    0.28326   0.32173   0.35564   0.35831   0.91644
 Alpha virt. eigenvalues --    0.92297   0.97557   1.25118   1.32326   1.36664
 Alpha virt. eigenvalues --    1.37310   1.94666

 Mulliken charges:
               1
     1  H    0.207082
     2  C   -0.771087
     3  H    0.206837
     4  H    0.206248
     5  H    0.150920
 Sum of Mulliken charges =  -0.00000

 Dipole moment (field-independent basis, Debye):
    X=             -0.0656    Y=             -0.0123    Z=              0.0001  Tot=              0.0667
 Quadrupole moment (field-independent basis, Debye-Ang):
   XX=             -8.6678   YY=             -8.3294   ZZ=             -8.4435
   XY=             -0.0221   XZ=             -0.0477   YZ=             -0.0030

 Normal termination of Gaussian 16 at Fri Sep 22 17:17:59 2023.
