 Gaussian 16, Revision A.03,
 Gaussian 16:  ES64L-G16RevA.03 25-Dec-2016

 ----------
 # hf/3-21g
 ----------

 ------------------------
 tmpdir/M2_conf_262_9.gjf
 ------------------------
 Symbolic Z-matrix:
 Charge =  0 Multiplicity = 1

                         Standard orientation:
 ---------------------------------------------------------------------
 Center     Atomic      Atomic             Coordinates (Angstroms)
 Number     Number       Type             X           Y           Z
 ---------------------------------------------------------------------
      1          1           0        1.058588   -0.002623    1.052132
      2          6           0        1.205377    0.000027   -0.011383
      3         17           0       -0.686520    0.000037   -0.015624
      4          1           0        1.690041   -0.891624   -0.361033
      5          1           0        1.689953    0.893452   -0.357192
 ---------------------------------------------------------------------

 SCF Done:  E(RHF) =  -496.663287870     A.U. after   11 cycles

 The electronic state is 1-A.
 Alpha  occ. eigenvalues -- -104.09070 -11.24851 -10.48489  -7.94857  -7.94449
 Alpha  occ. eigenvalues --   -7.94441  -1.12033  -0.93151  -0.64115  -0.63126
 Alpha  occ. eigenvalues --   -0.50639  -0.44225  -0.42891
 Alpha virt. eigenvalues --    0.15207   0.27613   0.31463   0.31572   0.74084
 Alpha virt. eigenvalues --    0.79372   0.80861   0.85257   0.92986   0.96369
 Alpha virt. eigenvalues --    1.01444   1.29422   1.31191   1.32123   1.88348

 Mulliken charges:
               1
     1  H    0.284763
     2  C   -0.707135
     3  Cl  -0.109816
     4  H    0.266109
     5  H    0.266079
 Sum of Mulliken charges =   0.00000

 Dipole moment (field-independent basis, Debye):
    X=              2.7745    Y=             -0.0007    Z=              0.2503  Tot=              2.7858
 Quadrupole moment (field-independent basis, Debye-Ang):
   XX=            -18.5176   YY=            -20.1787   ZZ=            -20.4886
   XY=              0.0012   XZ=             -0.5798   YZ=             -0.0001

 Normal termination of Gaussian 16 at Fri Sep 22 17:20:47 2023.
