 Gaussian 16, Revision A.03,
 Gaussian 16:  ES64L-G16RevA.03 25-Dec-2016

 ----------
 # hf/3-21g
 ----------

 -----------------------
 tmpdir/M2_conf_80_7.gjf
 -----------------------
 Symbolic Z-matrix:
 Charge =  0 Multiplicity = 1

                         Standard orientation:
 ---------------------------------------------------------------------
 Center     Atomic      Atomic             Coordinates (Angstroms)
 Number     Number       Type             X           Y           Z
 ---------------------------------------------------------------------
      1          1           0       -0.866372    0.571309   -0.346047
      2          6           0       -0.030868   -0.016619   -0.016063
      3          1           0        0.455475   -0.669800   -0.715670
      4          1           0       -0.248258   -0.576236    0.873737
      5          1           0        0.844360    0.774444    0.284359
 ---------------------------------------------------------------------

 SCF Done:  E(RHF) =  -39.9649413685     A.U. after    9 cycles

 The electronic state is 1-A.
 Alpha  occ. eigenvalues --  -11.15741  -0.93805  -0.56919  -0.54693  -0.49872
 Alpha virt. eigenvalues --    0.28331   0.31953   0.35264   0.36177   0.90995
 Alpha virt. eigenvalues --    0.93441   0.97406   1.25236   1.31936   1.36089
 Alpha virt. eigenvalues --    1.38253   1.94643

 Mulliken charges:
               1
     1  H    0.209061
     2  C   -0.773895
     3  H    0.208767
     4  H    0.206102
     5  H    0.149965
 Sum of Mulliken charges =   0.00000

 Dipole moment (field-independent basis, Debye):
    X=             -0.0191    Y=             -0.0637    Z=              0.0087  Tot=              0.0671
 Quadrupole moment (field-independent basis, Debye-Ang):
   XX=             -8.4130   YY=             -8.4324   ZZ=             -8.6054
   XY=             -0.2522   XZ=             -0.0814   YZ=             -0.0809

 Normal termination of Gaussian 16 at Fri Sep 22 17:16:07 2023.
