 Gaussian 16, Revision A.03,
 Gaussian 16:  ES64L-G16RevA.03 25-Dec-2016

 ----------
 # hf/3-21g
 ----------

 ------------------------
 tmpdir/M2_conf_262_3.gjf
 ------------------------
 Symbolic Z-matrix:
 Charge =  0 Multiplicity = 1

                         Standard orientation:
 ---------------------------------------------------------------------
 Center     Atomic      Atomic             Coordinates (Angstroms)
 Number     Number       Type             X           Y           Z
 ---------------------------------------------------------------------
      1          6           0       -2.477291    0.000007    0.000008
      2         17           0        1.364509   -0.000007   -0.000002
      3          1           0       -2.777660   -0.278197    0.992265
      4          1           0       -2.777348    0.998714   -0.255263
      5          1           0       -2.777896   -0.720439   -0.737023
 ---------------------------------------------------------------------

 SCF Done:  E(RHF) =  -496.496555592     A.U. after   10 cycles

 The electronic state is 1-A.
 Alpha  occ. eigenvalues -- -103.98666 -11.38840 -10.37441  -7.83760  -7.83581
 Alpha  occ. eigenvalues --   -7.83581  -1.06982  -0.92626  -0.72224  -0.72219
 Alpha  occ. eigenvalues --   -0.34573  -0.34573  -0.30847
 Alpha virt. eigenvalues --   -0.11571   0.19614   0.24212   0.24216   0.74651
 Alpha virt. eigenvalues --    0.78466   0.78479   0.83511   0.90161   0.90161
 Alpha virt. eigenvalues --    0.95275   1.09364   1.21024   1.21033   1.61630

 Mulliken charges:
               1
     1  C   -0.336716
     2  Cl  -0.606448
     3  H    0.314391
     4  H    0.314400
     5  H    0.314374
 Sum of Mulliken charges =   0.00000

 Dipole moment (field-independent basis, Debye):
    X=            -11.5727    Y=              0.0001    Z=              0.0001  Tot=             11.5727
 Quadrupole moment (field-independent basis, Debye-Ang):
   XX=             -4.4392   YY=            -20.3793   ZZ=            -20.3809
   XY=              0.0002   XZ=              0.0000   YZ=             -0.0001

 Normal termination of Gaussian 16 at Fri Sep 22 17:20:47 2023.
