 Gaussian 16, Revision A.03,
 Gaussian 16:  ES64L-G16RevA.03 25-Dec-2016

 ----------
 # hf/3-21g
 ----------

 -----------------------
 tmpdir/M2_conf_61_6.gjf
 -----------------------
 Symbolic Z-matrix:
 Charge =  0 Multiplicity = 1

                         Standard orientation:
 ---------------------------------------------------------------------
 Center     Atomic      Atomic             Coordinates (Angstroms)
 Number     Number       Type             X           Y           Z
 ---------------------------------------------------------------------
      1          1           0       -1.333953   -0.008453    1.061755
      2          6           0       -1.202804    0.000046   -0.003569
      3         17           0        0.689092    0.000041   -0.006609
      4          1           0       -1.581673    0.896399   -0.457024
      5          1           0       -1.582110   -0.888927   -0.470969
 ---------------------------------------------------------------------

 SCF Done:  E(RHF) =  -496.685925139     A.U. after   11 cycles

 The electronic state is 1-A.
 Alpha  occ. eigenvalues -- -104.08807 -11.24989 -10.48199  -7.94572  -7.94168
 Alpha  occ. eigenvalues --   -7.94167  -1.11372  -0.93312  -0.63412  -0.63196
 Alpha  occ. eigenvalues --   -0.51192  -0.43848  -0.43565
 Alpha virt. eigenvalues --    0.16382   0.27349   0.31373   0.31426   0.73872
 Alpha virt. eigenvalues --    0.80180   0.81027   0.85615   0.92637   0.94786
 Alpha virt. eigenvalues --    0.99958   1.30857   1.31177   1.32357   1.91469

 Mulliken charges:
               1
     1  H    0.275851
     2  C   -0.703723
     3  Cl  -0.107107
     4  H    0.267499
     5  H    0.267480
 Sum of Mulliken charges =  -0.00000

 Dipole moment (field-independent basis, Debye):
    X=             -2.8552    Y=             -0.0007    Z=              0.0920  Tot=              2.8566
 Quadrupole moment (field-independent basis, Debye-Ang):
   XX=            -18.5587   YY=            -20.1824   ZZ=            -20.2245
   XY=             -0.0015   XZ=              0.2464   YZ=             -0.0002

 Normal termination of Gaussian 16 at Fri Sep 22 17:15:38 2023.
