 Gaussian 16, Revision A.03,
 Gaussian 16:  ES64L-G16RevA.03 25-Dec-2016

 ----------
 # hf/3-21g
 ----------

 ------------------------
 tmpdir/M2_conf_286_7.gjf
 ------------------------
 Symbolic Z-matrix:
 Charge =  0 Multiplicity = 1

                         Standard orientation:
 ---------------------------------------------------------------------
 Center     Atomic      Atomic             Coordinates (Angstroms)
 Number     Number       Type             X           Y           Z
 ---------------------------------------------------------------------
      1          1           0       -0.326620    0.976179   -0.343290
      2          6           0       -0.032509    0.001073   -0.003755
      3          1           0       -0.260027   -0.786107   -0.697442
      4          1           0       -0.399912   -0.219307    0.980431
      5          1           0        1.181613    0.022796    0.082831
 ---------------------------------------------------------------------

 SCF Done:  E(RHF) =  -39.9667898481     A.U. after    9 cycles

 The electronic state is 1-A.
 Alpha  occ. eigenvalues --  -11.15728  -0.93777  -0.55898  -0.55443  -0.50203
 Alpha virt. eigenvalues --    0.28324   0.32192   0.35604   0.35786   0.91716
 Alpha virt. eigenvalues --    0.92189   0.97579   1.25103   1.32364   1.36752
 Alpha virt. eigenvalues --    1.37193   1.94663

 Mulliken charges:
               1
     1  H    0.206841
     2  C   -0.770931
     3  H    0.206689
     4  H    0.206353
     5  H    0.151047
 Sum of Mulliken charges =   0.00000

 Dipole moment (field-independent basis, Debye):
    X=             -0.0672    Y=             -0.0082    Z=              0.0001  Tot=              0.0677
 Quadrupole moment (field-independent basis, Debye-Ang):
   XX=             -8.6666   YY=             -8.3465   ZZ=             -8.4265
   XY=             -0.0113   XZ=             -0.0341   YZ=             -0.0014

 Normal termination of Gaussian 16 at Fri Sep 22 17:21:27 2023.
