 Gaussian 16, Revision A.03,
 Gaussian 16:  ES64L-G16RevA.03 25-Dec-2016

 ----------
 # hf/3-21g
 ----------

 ------------------------
 tmpdir/M2_conf_134_7.gjf
 ------------------------
 Symbolic Z-matrix:
 Charge =  0 Multiplicity = 1

                         Standard orientation:
 ---------------------------------------------------------------------
 Center     Atomic      Atomic             Coordinates (Angstroms)
 Number     Number       Type             X           Y           Z
 ---------------------------------------------------------------------
      1          1           0        0.414182   -0.243888    0.960586
      2          6           0        0.024281    0.015117   -0.005597
      3          1           0        0.604712   -0.509900   -0.740491
      4          1           0       -0.049861    1.076491   -0.147593
      5          1           0       -1.114719   -0.413404   -0.038918
 ---------------------------------------------------------------------

 SCF Done:  E(RHF) =  -39.9664602582     A.U. after    9 cycles

 The electronic state is 1-A.
 Alpha  occ. eigenvalues --  -11.15720  -0.93797  -0.56398  -0.54613  -0.50485
 Alpha virt. eigenvalues --    0.28279   0.32321   0.35294   0.35993   0.91074
 Alpha virt. eigenvalues --    0.92687   0.97928   1.24930   1.32693   1.35998
 Alpha virt. eigenvalues --    1.37789   1.94509

 Mulliken charges:
               1
     1  H    0.205198
     2  C   -0.771292
     3  H    0.206159
     4  H    0.207233
     5  H    0.152702
 Sum of Mulliken charges =  -0.00000

 Dipole moment (field-independent basis, Debye):
    X=              0.0864    Y=              0.0110    Z=              0.0306  Tot=              0.0923
 Quadrupole moment (field-independent basis, Debye-Ang):
   XX=             -8.5195   YY=             -8.3529   ZZ=             -8.5615
   XY=             -0.1577   XZ=             -0.0210   YZ=             -0.0054

 Normal termination of Gaussian 16 at Fri Sep 22 17:17:27 2023.
