 Gaussian 16, Revision A.03,
 Gaussian 16:  ES64L-G16RevA.03 25-Dec-2016

 ----------
 # hf/3-21g
 ----------

 ------------------------
 tmpdir/M2_conf_129_6.gjf
 ------------------------
 Symbolic Z-matrix:
 Charge =  0 Multiplicity = 1

                         Standard orientation:
 ---------------------------------------------------------------------
 Center     Atomic      Atomic             Coordinates (Angstroms)
 Number     Number       Type             X           Y           Z
 ---------------------------------------------------------------------
      1          1           0       -1.330040   -0.008130    1.062146
      2          6           0       -1.202828    0.000046   -0.003658
      3         17           0        0.689073    0.000041   -0.006755
      4          1           0       -1.583396    0.896248   -0.455986
      5          1           0       -1.583832   -0.889082   -0.469380
 ---------------------------------------------------------------------

 SCF Done:  E(RHF) =  -496.685756735     A.U. after   11 cycles

 The electronic state is 1-A.
 Alpha  occ. eigenvalues -- -104.08809 -11.24988 -10.48200  -7.94574  -7.94170
 Alpha  occ. eigenvalues --   -7.94169  -1.11376  -0.93310  -0.63418  -0.63195
 Alpha  occ. eigenvalues --   -0.51186  -0.43851  -0.43560
 Alpha virt. eigenvalues --    0.16372   0.27351   0.31374   0.31428   0.73874
 Alpha virt. eigenvalues --    0.80169   0.81030   0.85618   0.92622   0.94810
 Alpha virt. eigenvalues --    0.99976   1.30842   1.31176   1.32360   1.91443

 Mulliken charges:
               1
     1  H    0.275987
     2  C   -0.703763
     3  Cl  -0.107119
     4  H    0.267457
     5  H    0.267438
 Sum of Mulliken charges =  -0.00000

 Dipole moment (field-independent basis, Debye):
    X=             -2.8546    Y=             -0.0007    Z=              0.0942  Tot=              2.8562
 Quadrupole moment (field-independent basis, Debye-Ang):
   XX=            -18.5581   YY=            -20.1825   ZZ=            -20.2266
   XY=             -0.0014   XZ=              0.2519   YZ=             -0.0002

 Normal termination of Gaussian 16 at Fri Sep 22 17:17:20 2023.
