 Gaussian 16, Revision A.03,
 Gaussian 16:  ES64L-G16RevA.03 25-Dec-2016

 ----------
 # hf/3-21g
 ----------

 ------------------------
 tmpdir/M2_conf_129_7.gjf
 ------------------------
 Symbolic Z-matrix:
 Charge =  0 Multiplicity = 1

                         Standard orientation:
 ---------------------------------------------------------------------
 Center     Atomic      Atomic             Coordinates (Angstroms)
 Number     Number       Type             X           Y           Z
 ---------------------------------------------------------------------
      1          1           0       -0.326812    0.976103   -0.343538
      2          6           0       -0.032532    0.001097   -0.003866
      3          1           0       -0.257709   -0.786460   -0.697889
      4          1           0       -0.401687   -0.220048    0.979493
      5          1           0        1.181397    0.023826    0.085128
 ---------------------------------------------------------------------

 SCF Done:  E(RHF) =  -39.9667831037     A.U. after    9 cycles

 The electronic state is 1-A.
 Alpha  occ. eigenvalues --  -11.15728  -0.93777  -0.55906  -0.55437  -0.50200
 Alpha virt. eigenvalues --    0.28324   0.32190   0.35601   0.35789   0.91710
 Alpha virt. eigenvalues --    0.92198   0.97577   1.25104   1.32361   1.36746
 Alpha virt. eigenvalues --    1.37201   1.94664

 Mulliken charges:
               1
     1  H    0.206855
     2  C   -0.770941
     3  H    0.206699
     4  H    0.206350
     5  H    0.151038
 Sum of Mulliken charges =   0.00000

 Dipole moment (field-independent basis, Debye):
    X=             -0.0671    Y=             -0.0085    Z=              0.0002  Tot=              0.0676
 Quadrupole moment (field-independent basis, Debye-Ang):
   XX=             -8.6668   YY=             -8.3452   ZZ=             -8.4277
   XY=             -0.0118   XZ=             -0.0351   YZ=             -0.0015

 Normal termination of Gaussian 16 at Fri Sep 22 17:17:20 2023.
