 Gaussian 16, Revision A.03,
 Gaussian 16:  ES64L-G16RevA.03 25-Dec-2016

 ----------
 # hf/3-21g
 ----------

 ------------------------
 tmpdir/M2_conf_248_1.gjf
 ------------------------
 Symbolic Z-matrix:
 Charge =  0 Multiplicity = 1

                         Standard orientation:
 ---------------------------------------------------------------------
 Center     Atomic      Atomic             Coordinates (Angstroms)
 Number     Number       Type             X           Y           Z
 ---------------------------------------------------------------------
      1          6           0       -0.016698   -0.025419    0.000059
      2          1           0       -1.002244    0.567003   -0.001914
      3          1           0        0.112171   -0.605369    0.894057
      4          1           0        0.113126   -0.610210   -0.890880
      5          1           0        0.877133    0.801091   -0.001617
 ---------------------------------------------------------------------

 SCF Done:  E(RHF) =  -39.9640387600     A.U. after    9 cycles

 The electronic state is 1-A.
 Alpha  occ. eigenvalues --  -11.16612  -0.93030  -0.55766  -0.54062  -0.50171
 Alpha virt. eigenvalues --    0.27933   0.31496   0.34391   0.35686   0.91750
 Alpha virt. eigenvalues --    0.94761   0.98505   1.24453   1.28102   1.34445
 Alpha virt. eigenvalues --    1.36751   1.93781

 Mulliken charges:
               1
     1  C   -0.758237
     2  H    0.185890
     3  H    0.209014
     4  H    0.208959
     5  H    0.154375
 Sum of Mulliken charges =  -0.00000

 Dipole moment (field-independent basis, Debye):
    X=             -0.0010    Y=             -0.0701    Z=              0.0003  Tot=              0.0701
 Quadrupole moment (field-independent basis, Debye-Ang):
   XX=             -8.5683   YY=             -8.5644   ZZ=             -8.4633
   XY=             -0.1589   XZ=              0.0002   YZ=              0.0004

 Normal termination of Gaussian 16 at Fri Sep 22 17:20:25 2023.
