 Gaussian 16, Revision A.03,
 Gaussian 16:  ES64L-G16RevA.03 25-Dec-2016

 ----------
 # hf/3-21g
 ----------

 -----------------------
 tmpdir/M2_conf_61_8.gjf
 -----------------------
 Symbolic Z-matrix:
 Charge =  0 Multiplicity = 1

                         Standard orientation:
 ---------------------------------------------------------------------
 Center     Atomic      Atomic             Coordinates (Angstroms)
 Number     Number       Type             X           Y           Z
 ---------------------------------------------------------------------
      1          1           0       -1.382199   -0.016707    1.055855
      2          6           0       -1.202589    0.000027   -0.002482
      3         17           0        0.689308    0.000080   -0.004777
      4          1           0       -1.560157   -0.884778   -0.493849
      5          1           0       -1.560338    0.899953   -0.465913
 ---------------------------------------------------------------------

 SCF Done:  E(RHF) =  -496.687675218     A.U. after   11 cycles

 The electronic state is 1-A.
 Alpha  occ. eigenvalues -- -104.08790 -11.24995 -10.48180  -7.94554  -7.94150
 Alpha  occ. eigenvalues --   -7.94149  -1.11326  -0.93324  -0.63345  -0.63207
 Alpha  occ. eigenvalues --   -0.51254  -0.43807  -0.43625
 Alpha virt. eigenvalues --    0.16490   0.27338   0.31369   0.31411   0.73849
 Alpha virt. eigenvalues --    0.80319   0.80970   0.85571   0.92881   0.94465
 Alpha virt. eigenvalues --    0.99765   1.31035   1.31192   1.32294   1.91733

 Mulliken charges:
               1
     1  H    0.274124
     2  C   -0.703226
     3  Cl  -0.107045
     4  H    0.268098
     5  H    0.268050
 Sum of Mulliken charges =  -0.00000

 Dipole moment (field-independent basis, Debye):
    X=             -2.8607    Y=             -0.0011    Z=              0.0650  Tot=              2.8615
 Quadrupole moment (field-independent basis, Debye-Ang):
   XX=            -18.5642   YY=            -20.1831   ZZ=            -20.2014
   XY=             -0.0028   XZ=              0.1786   YZ=             -0.0000

 Normal termination of Gaussian 16 at Fri Sep 22 17:15:38 2023.
