 Gaussian 16, Revision A.03,
 Gaussian 16:  ES64L-G16RevA.03 25-Dec-2016

 ----------
 # hf/3-21g
 ----------

 ------------------------
 tmpdir/M2_conf_164_3.gjf
 ------------------------
 Symbolic Z-matrix:
 Charge =  0 Multiplicity = 1

                         Standard orientation:
 ---------------------------------------------------------------------
 Center     Atomic      Atomic             Coordinates (Angstroms)
 Number     Number       Type             X           Y           Z
 ---------------------------------------------------------------------
      1          6           0       -1.565960    0.000014    0.000009
      2         17           0        0.882040   -0.000011   -0.000002
      3          1           0       -1.866328   -0.278189    0.992267
      4          1           0       -1.866011    0.998724   -0.255260
      5          1           0       -1.866571   -0.720429   -0.737022
 ---------------------------------------------------------------------

 SCF Done:  E(RHF) =  -496.635773793     A.U. after   10 cycles

 The electronic state is 1-A.
 Alpha  occ. eigenvalues -- -104.06941 -11.30611 -10.45590  -7.91909  -7.91660
 Alpha  occ. eigenvalues --   -7.91660  -1.02930  -0.97588  -0.64991  -0.64986
 Alpha  occ. eigenvalues --   -0.42585  -0.41479  -0.41478
 Alpha virt. eigenvalues --    0.02472   0.25024   0.29827   0.29831   0.73217
 Alpha virt. eigenvalues --    0.78713   0.78718   0.89599   0.93060   0.93068
 Alpha virt. eigenvalues --    0.99420   1.26370   1.27906   1.27915   1.79292

 Mulliken charges:
               1
     1  C   -0.448365
     2  Cl  -0.372681
     3  H    0.273695
     4  H    0.273692
     5  H    0.273659
 Sum of Mulliken charges =   0.00000

 Dipole moment (field-independent basis, Debye):
    X=             -5.1309    Y=              0.0001    Z=              0.0001  Tot=              5.1309
 Quadrupole moment (field-independent basis, Debye-Ang):
   XX=            -14.7327   YY=            -20.4180   ZZ=            -20.4195
   XY=              0.0004   XZ=             -0.0001   YZ=             -0.0001

 Normal termination of Gaussian 16 at Fri Sep 22 17:18:13 2023.
