 Gaussian 16, Revision A.03,
 Gaussian 16:  ES64L-G16RevA.03 25-Dec-2016

 ----------
 # hf/3-21g
 ----------

 -----------------------
 tmpdir/M2_conf_13_3.gjf
 -----------------------
 Symbolic Z-matrix:
 Charge =  0 Multiplicity = 1

                         Standard orientation:
 ---------------------------------------------------------------------
 Center     Atomic      Atomic             Coordinates (Angstroms)
 Number     Number       Type             X           Y           Z
 ---------------------------------------------------------------------
      1          6           0       -1.314753    0.000017    0.000010
      2         17           0        0.749047   -0.000013   -0.000003
      3          1           0       -1.615120   -0.278185    0.992268
      4          1           0       -1.614800    0.998729   -0.255258
      5          1           0       -1.615368   -0.720424   -0.737021
 ---------------------------------------------------------------------

 SCF Done:  E(RHF) =  -496.681555879     A.U. after   10 cycles

 The electronic state is 1-A.
 Alpha  occ. eigenvalues -- -104.08610 -11.26837 -10.47620  -7.93968  -7.93633
 Alpha  occ. eigenvalues --   -7.93633  -1.07638  -0.94970  -0.63274  -0.63269
 Alpha  occ. eigenvalues --   -0.48396  -0.43370  -0.43370
 Alpha virt. eigenvalues --    0.11169   0.26659   0.31116   0.31119   0.73519
 Alpha virt. eigenvalues --    0.79861   0.79866   0.85891   0.93657   0.93668
 Alpha virt. eigenvalues --    1.02902   1.30249   1.30360   1.30370   1.86766

 Mulliken charges:
               1
     1  C   -0.601531
     2  Cl  -0.208042
     3  H    0.269879
     4  H    0.269863
     5  H    0.269831
 Sum of Mulliken charges =  -0.00000

 Dipole moment (field-independent basis, Debye):
    X=             -3.4937    Y=              0.0001    Z=              0.0001  Tot=              3.4937
 Quadrupole moment (field-independent basis, Debye-Ang):
   XX=            -17.4484   YY=            -20.3044   ZZ=            -20.3058
   XY=              0.0006   XZ=             -0.0001   YZ=             -0.0001

 Normal termination of Gaussian 16 at Fri Sep 22 17:14:26 2023.
