 Gaussian 16, Revision A.03,
 Gaussian 16:  ES64L-G16RevA.03 25-Dec-2016

 ----------
 # hf/3-21g
 ----------

 ------------------------
 tmpdir/M2_conf_241_2.gjf
 ------------------------
 Symbolic Z-matrix:
 Charge =  0 Multiplicity = 1

                         Standard orientation:
 ---------------------------------------------------------------------
 Center     Atomic      Atomic             Coordinates (Angstroms)
 Number     Number       Type             X           Y           Z
 ---------------------------------------------------------------------
      1          6           0        0.032257    0.000014    0.010854
      2          1           0        0.176108   -0.003794    1.009439
      3          1           0        0.403897   -0.889748   -0.460746
      4          1           0        0.399559    0.895394   -0.453909
      5          1           0       -1.173104   -0.001935   -0.159906
 ---------------------------------------------------------------------

 SCF Done:  E(RHF) =  -39.9629867116     A.U. after    9 cycles

 The electronic state is 1-A.
 Alpha  occ. eigenvalues --  -11.14972  -0.94589  -0.57056  -0.55548  -0.50287
 Alpha virt. eigenvalues --    0.28493   0.32537   0.35685   0.37123   0.88977
 Alpha virt. eigenvalues --    0.92071   0.97548   1.25322   1.33903   1.37074
 Alpha virt. eigenvalues --    1.42752   1.95582

 Mulliken charges:
               1
     1  C   -0.778322
     2  H    0.221948
     3  H    0.203944
     4  H    0.203899
     5  H    0.148531
 Sum of Mulliken charges =   0.00000

 Dipole moment (field-independent basis, Debye):
    X=              0.0818    Y=             -0.0001    Z=              0.0462  Tot=              0.0939
 Quadrupole moment (field-independent basis, Debye-Ang):
   XX=             -8.5885   YY=             -8.3254   ZZ=             -8.3803
   XY=             -0.0011   XZ=             -0.0393   YZ=             -0.0005

 Normal termination of Gaussian 16 at Fri Sep 22 17:20:14 2023.
