 Gaussian 16, Revision A.03,
 Gaussian 16:  ES64L-G16RevA.03 25-Dec-2016

 ----------
 # hf/3-21g
 ----------

 -----------------------
 tmpdir/M2_conf_32_8.gjf
 -----------------------
 Symbolic Z-matrix:
 Charge =  0 Multiplicity = 1

                         Standard orientation:
 ---------------------------------------------------------------------
 Center     Atomic      Atomic             Coordinates (Angstroms)
 Number     Number       Type             X           Y           Z
 ---------------------------------------------------------------------
      1          1           0       -1.561047   -0.082944    1.009772
      2          6           0       -1.202417   -0.000111    0.001238
      3         17           0        0.689481   -0.000191    0.002369
      4          1           0       -1.472747   -0.846063   -0.601642
      5          1           0       -1.472874    0.932922   -0.455840
 ---------------------------------------------------------------------

 SCF Done:  E(RHF) =  -496.689054421     A.U. after   11 cycles

 The electronic state is 1-A.
 Alpha  occ. eigenvalues -- -104.08776 -11.25000 -10.48165  -7.94540  -7.94136
 Alpha  occ. eigenvalues --   -7.94136  -1.11290  -0.93334  -0.63267  -0.63239
 Alpha  occ. eigenvalues --   -0.51306  -0.43754  -0.43694
 Alpha virt. eigenvalues --    0.16577   0.27332   0.31368   0.31395   0.73830
 Alpha virt. eigenvalues --    0.80490   0.80865   0.85521   0.93245   0.94058
 Alpha virt. eigenvalues --    0.99601   1.31134   1.31251   1.32242   1.91947

 Mulliken charges:
               1
     1  H    0.267885
     2  C   -0.702819
     3  Cl  -0.107019
     4  H    0.271000
     5  H    0.270952
 Sum of Mulliken charges =  -0.00000

 Dipole moment (field-independent basis, Debye):
    X=             -2.8651    Y=              0.0024    Z=             -0.0309  Tot=              2.8652
 Quadrupole moment (field-independent basis, Debye-Ang):
   XX=            -18.5688   YY=            -20.1798   ZZ=            -20.1867
   XY=              0.0073   XZ=             -0.0885   YZ=              0.0002

 Normal termination of Gaussian 16 at Fri Sep 22 17:14:55 2023.
