 Gaussian 16, Revision A.03,
 Gaussian 16:  ES64L-G16RevA.03 25-Dec-2016

 ----------
 # hf/3-21g
 ----------

 -----------------------
 tmpdir/M2_conf_62_0.gjf
 -----------------------
 Symbolic Z-matrix:
 Charge =  0 Multiplicity = 1

                         Standard orientation:
 ---------------------------------------------------------------------
 Center     Atomic      Atomic             Coordinates (Angstroms)
 Number     Number       Type             X           Y           Z
 ---------------------------------------------------------------------
      1          6           0       -0.032256    0.000055    0.013411
      2          1           0       -0.153146   -0.001287    0.995497
      3          1           0       -0.408913    0.894474   -0.445683
      4          1           0       -0.413780   -0.890901   -0.448370
      5          1           0        1.169375   -0.002617   -0.181909
 ---------------------------------------------------------------------

 SCF Done:  E(RHF) =  -39.9602457360     A.U. after    9 cycles

 The electronic state is 1-A.
 Alpha  occ. eigenvalues --  -11.14751  -0.94867  -0.57482  -0.55523  -0.50289
 Alpha virt. eigenvalues --    0.28530   0.32594   0.35681   0.37571   0.88096
 Alpha virt. eigenvalues --    0.92126   0.97560   1.25381   1.34115   1.37098
 Alpha virt. eigenvalues --    1.44926   1.95940

 Mulliken charges:
               1
     1  C   -0.780035
     2  H    0.226224
     3  H    0.203083
     4  H    0.203076
     5  H    0.147652
 Sum of Mulliken charges =   0.00000

 Dipole moment (field-independent basis, Debye):
    X=             -0.0838    Y=              0.0002    Z=              0.0575  Tot=              0.1016
 Quadrupole moment (field-independent basis, Debye-Ang):
   XX=             -8.5669   YY=             -8.3052   ZZ=             -8.3775
   XY=              0.0011   XZ=              0.0444   YZ=             -0.0004

 Normal termination of Gaussian 16 at Fri Sep 22 17:15:40 2023.
