 Gaussian 16, Revision A.03,
 Gaussian 16:  ES64L-G16RevA.03 25-Dec-2016

 ----------
 # hf/3-21g
 ----------

 -----------------------
 tmpdir/M2_conf_73_4.gjf
 -----------------------
 Symbolic Z-matrix:
 Charge =  0 Multiplicity = 1

                         Standard orientation:
 ---------------------------------------------------------------------
 Center     Atomic      Atomic             Coordinates (Angstroms)
 Number     Number       Type             X           Y           Z
 ---------------------------------------------------------------------
      1          1           0       -0.509221    0.898396   -0.351759
      2          6           0       -0.034133   -0.002406   -0.012592
      3          1           0        0.052225   -0.809000   -0.715846
      4          1           0       -0.457245   -0.369935    0.903106
      5          1           0        1.119041    0.294975    0.240049
 ---------------------------------------------------------------------

 SCF Done:  E(RHF) =  -39.9657563724     A.U. after    9 cycles

 The electronic state is 1-A.
 Alpha  occ. eigenvalues --  -11.15736  -0.93791  -0.56594  -0.54928  -0.49991
 Alpha virt. eigenvalues --    0.28331   0.32047   0.35369   0.36055   0.91224
 Alpha virt. eigenvalues --    0.92990   0.97454   1.25195   1.32090   1.36275
 Alpha virt. eigenvalues --    1.37909   1.94661

 Mulliken charges:
               1
     1  H    0.208280
     2  C   -0.772561
     3  H    0.207913
     4  H    0.206079
     5  H    0.150289
 Sum of Mulliken charges =  -0.00000

 Dipole moment (field-independent basis, Debye):
    X=             -0.0515    Y=             -0.0397    Z=              0.0045  Tot=              0.0651
 Quadrupole moment (field-independent basis, Debye-Ang):
   XX=             -8.6323   YY=             -8.2695   ZZ=             -8.5449
   XY=             -0.1298   XZ=             -0.0932   YZ=             -0.0280

 Normal termination of Gaussian 16 at Fri Sep 22 17:15:57 2023.
