 Gaussian 16, Revision A.03,
 Gaussian 16:  ES64L-G16RevA.03 25-Dec-2016

 ----------
 # hf/3-21g
 ----------

 ------------------------
 tmpdir/M2_conf_178_1.gjf
 ------------------------
 Symbolic Z-matrix:
 Charge =  0 Multiplicity = 1

                         Standard orientation:
 ---------------------------------------------------------------------
 Center     Atomic      Atomic             Coordinates (Angstroms)
 Number     Number       Type             X           Y           Z
 ---------------------------------------------------------------------
      1          6           0       -0.027162   -0.014305    0.000059
      2          1           0       -0.683494    0.891377   -0.003215
      3          1           0       -0.136132   -0.597333    0.894702
      4          1           0       -0.136383   -0.604276   -0.890228
      5          1           0        1.118983    0.396065   -0.001611
 ---------------------------------------------------------------------

 SCF Done:  E(RHF) =  -39.9660289635     A.U. after    9 cycles

 The electronic state is 1-A.
 Alpha  occ. eigenvalues --  -11.16249  -0.93311  -0.55709  -0.54690  -0.50228
 Alpha virt. eigenvalues --    0.28126   0.31857   0.34848   0.35687   0.91814
 Alpha virt. eigenvalues --    0.93774   0.97964   1.24793   1.30045   1.35045
 Alpha virt. eigenvalues --    1.36834   1.94128

 Mulliken charges:
               1
     1  C   -0.763790
     2  H    0.194602
     3  H    0.208032
     4  H    0.207977
     5  H    0.153179
 Sum of Mulliken charges =   0.00000

 Dipole moment (field-independent basis, Debye):
    X=             -0.0449    Y=             -0.0464    Z=              0.0003  Tot=              0.0646
 Quadrupole moment (field-independent basis, Debye-Ang):
   XX=             -8.6602   YY=             -8.4381   ZZ=             -8.4341
   XY=             -0.0989   XZ=              0.0004   YZ=              0.0003

 Normal termination of Gaussian 16 at Fri Sep 22 17:18:34 2023.
