 Gaussian 16, Revision A.03,
 Gaussian 16:  ES64L-G16RevA.03 25-Dec-2016

 ----------
 # hf/3-21g
 ----------

 ------------------------
 tmpdir/M2_conf_118_8.gjf
 ------------------------
 Symbolic Z-matrix:
 Charge =  0 Multiplicity = 1

                         Standard orientation:
 ---------------------------------------------------------------------
 Center     Atomic      Atomic             Coordinates (Angstroms)
 Number     Number       Type             X           Y           Z
 ---------------------------------------------------------------------
      1          1           0       -1.400014   -0.023495    1.052915
      2          6           0       -1.202528    0.000035   -0.002103
      3         17           0        0.689371    0.000096   -0.004086
      4          1           0       -1.551972   -0.881430   -0.505179
      5          1           0       -1.552147    0.903083   -0.465665
 ---------------------------------------------------------------------

 SCF Done:  E(RHF) =  -496.688171210     A.U. after   11 cycles

 The electronic state is 1-A.
 Alpha  occ. eigenvalues -- -104.08785 -11.24997 -10.48175  -7.94549  -7.94145
 Alpha  occ. eigenvalues --   -7.94144  -1.11313  -0.93328  -0.63323  -0.63212
 Alpha  occ. eigenvalues --   -0.51272  -0.43794  -0.43644
 Alpha virt. eigenvalues --    0.16521   0.27336   0.31369   0.31405   0.73843
 Alpha virt. eigenvalues --    0.80372   0.80940   0.85554   0.92983   0.94349
 Alpha virt. eigenvalues --    0.99705   1.31087   1.31196   1.32275   1.91809

 Mulliken charges:
               1
     1  H    0.273496
     2  C   -0.703073
     3  Cl  -0.107039
     4  H    0.268332
     5  H    0.268284
 Sum of Mulliken charges =  -0.00000

 Dipole moment (field-independent basis, Debye):
    X=             -2.8623    Y=             -0.0014    Z=              0.0553  Tot=              2.8628
 Quadrupole moment (field-independent basis, Debye-Ang):
   XX=            -18.5659   YY=            -20.1828   ZZ=            -20.1952
   XY=             -0.0034   XZ=              0.1528   YZ=             -0.0000

 Normal termination of Gaussian 16 at Fri Sep 22 17:17:04 2023.
