 Gaussian 16, Revision A.03,
 Gaussian 16:  ES64L-G16RevA.03 25-Dec-2016

 ----------
 # hf/3-21g
 ----------

 -----------------------
 tmpdir/M2_conf_65_8.gjf
 -----------------------
 Symbolic Z-matrix:
 Charge =  0 Multiplicity = 1

                         Standard orientation:
 ---------------------------------------------------------------------
 Center     Atomic      Atomic             Coordinates (Angstroms)
 Number     Number       Type             X           Y           Z
 ---------------------------------------------------------------------
      1          1           0       -1.253648   -0.003621    1.066964
      2          6           0       -1.203326    0.000005   -0.005450
      3         17           0        0.688575    0.000038   -0.009526
      4          1           0       -1.615977   -0.890999   -0.439050
      5          1           0       -1.616194    0.893942   -0.433276
 ---------------------------------------------------------------------

 SCF Done:  E(RHF) =  -496.681654118     A.U. after   11 cycles

 The electronic state is 1-A.
 Alpha  occ. eigenvalues -- -104.08853 -11.24970 -10.48247  -7.94620  -7.94215
 Alpha  occ. eigenvalues --   -7.94213  -1.11488  -0.93282  -0.63565  -0.63177
 Alpha  occ. eigenvalues --   -0.51053  -0.43928  -0.43435
 Alpha virt. eigenvalues --    0.16134   0.27382   0.31387   0.31461   0.73923
 Alpha virt. eigenvalues --    0.79947   0.81058   0.85643   0.92446   0.95268
 Alpha virt. eigenvalues --    1.00351   1.30533   1.31170   1.32361   1.90825

 Mulliken charges:
               1
     1  H    0.278550
     2  C   -0.704642
     3  Cl  -0.107441
     4  H    0.266790
     5  H    0.266743
 Sum of Mulliken charges =  -0.00000

 Dipole moment (field-independent basis, Debye):
    X=             -2.8411    Y=             -0.0006    Z=              0.1367  Tot=              2.8444
 Quadrupole moment (field-independent basis, Debye-Ang):
   XX=            -18.5472   YY=            -20.1837   ZZ=            -20.2763
   XY=             -0.0012   XZ=              0.3557   YZ=              0.0000

 Normal termination of Gaussian 16 at Fri Sep 22 17:15:45 2023.
