 Gaussian 16, Revision A.03,
 Gaussian 16:  ES64L-G16RevA.03 25-Dec-2016

 ----------
 # hf/3-21g
 ----------

 ------------------------
 tmpdir/M2_conf_203_6.gjf
 ------------------------
 Symbolic Z-matrix:
 Charge =  0 Multiplicity = 1

                         Standard orientation:
 ---------------------------------------------------------------------
 Center     Atomic      Atomic             Coordinates (Angstroms)
 Number     Number       Type             X           Y           Z
 ---------------------------------------------------------------------
      1          1           0       -1.254779   -0.004419    1.066702
      2          6           0       -1.203315    0.000039   -0.005454
      3         17           0        0.688584    0.000029   -0.009482
      4          1           0       -1.615427    0.894530   -0.432843
      5          1           0       -1.615838   -0.890836   -0.439936
 ---------------------------------------------------------------------

 SCF Done:  E(RHF) =  -496.681724340     A.U. after   11 cycles

 The electronic state is 1-A.
 Alpha  occ. eigenvalues -- -104.08852 -11.24970 -10.48246  -7.94619  -7.94214
 Alpha  occ. eigenvalues --   -7.94212  -1.11486  -0.93282  -0.63561  -0.63179
 Alpha  occ. eigenvalues --   -0.51056  -0.43927  -0.43437
 Alpha virt. eigenvalues --    0.16137   0.27383   0.31387   0.31459   0.73923
 Alpha virt. eigenvalues --    0.79952   0.81056   0.85642   0.92437   0.95274
 Alpha virt. eigenvalues --    1.00344   1.30524   1.31166   1.32381   1.90839

 Mulliken charges:
               1
     1  H    0.278555
     2  C   -0.704647
     3  Cl  -0.107433
     4  H    0.266771
     5  H    0.266754
 Sum of Mulliken charges =  -0.00000

 Dipole moment (field-independent basis, Debye):
    X=             -2.8414    Y=             -0.0005    Z=              0.1364  Tot=              2.8447
 Quadrupole moment (field-independent basis, Debye-Ang):
   XX=            -18.5473   YY=            -20.1826   ZZ=            -20.2765
   XY=             -0.0010   XZ=              0.3535   YZ=             -0.0001

 Normal termination of Gaussian 16 at Fri Sep 22 17:19:17 2023.
