 Gaussian 16, Revision A.03,
 Gaussian 16:  ES64L-G16RevA.03 25-Dec-2016

 ----------
 # hf/3-21g
 ----------

 ------------------------
 tmpdir/M2_conf_263_2.gjf
 ------------------------
 Symbolic Z-matrix:
 Charge =  0 Multiplicity = 1

                         Standard orientation:
 ---------------------------------------------------------------------
 Center     Atomic      Atomic             Coordinates (Angstroms)
 Number     Number       Type             X           Y           Z
 ---------------------------------------------------------------------
      1          6           0        0.032277    0.000013    0.014874
      2          1           0        0.143297   -0.002521    0.986448
      3          1           0        0.417382   -0.890389   -0.444556
      4          1           0        0.413225    0.894761   -0.440018
      5          1           0       -1.167565   -0.001930   -0.191117
 ---------------------------------------------------------------------

 SCF Done:  E(RHF) =  -39.9581973535     A.U. after    9 cycles

 The electronic state is 1-A.
 Alpha  occ. eigenvalues --  -11.14618  -0.95044  -0.57742  -0.55511  -0.50289
 Alpha virt. eigenvalues --    0.28550   0.32626   0.35682   0.37841   0.87575
 Alpha virt. eigenvalues --    0.92148   0.97567   1.25416   1.34241   1.37123
 Alpha virt. eigenvalues --    1.46288   1.96184

 Mulliken charges:
               1
     1  C   -0.780978
     2  H    0.228671
     3  H    0.202621
     4  H    0.202577
     5  H    0.147109
 Sum of Mulliken charges =  -0.00000

 Dipole moment (field-independent basis, Debye):
    X=              0.0850    Y=             -0.0001    Z=              0.0633  Tot=              0.1060
 Quadrupole moment (field-independent basis, Debye-Ang):
   XX=             -8.5541   YY=             -8.2931   ZZ=             -8.3747
   XY=             -0.0011   XZ=             -0.0460   YZ=             -0.0005

 Normal termination of Gaussian 16 at Fri Sep 22 17:20:48 2023.
