 Gaussian 16, Revision A.03,
 Gaussian 16:  ES64L-G16RevA.03 25-Dec-2016

 ----------
 # hf/3-21g
 ----------

 ----------------------
 tmpdir/M2_conf_2_5.gjf
 ----------------------
 Symbolic Z-matrix:
 Charge =  0 Multiplicity = 1

                         Standard orientation:
 ---------------------------------------------------------------------
 Center     Atomic      Atomic             Coordinates (Angstroms)
 Number     Number       Type             X           Y           Z
 ---------------------------------------------------------------------
      1          1           0        1.060966    0.029592   -0.309710
      2          6           0        0.026604   -0.029592   -0.029032
      3          1           0       -0.803059   -0.211783   -0.685606
      4          1           0       -0.140677   -0.713423    0.781525
      5          1           0       -0.276853    1.073166    0.387982
 ---------------------------------------------------------------------

 SCF Done:  E(RHF) =  -39.9590619113     A.U. after    9 cycles

 The electronic state is 1-A.
 Alpha  occ. eigenvalues --  -11.15770  -0.93908  -0.58278  -0.53775  -0.49192
 Alpha virt. eigenvalues --    0.28293   0.31344   0.34848   0.36685   0.90250
 Alpha virt. eigenvalues --    0.95715   0.97284   1.25344   1.31259   1.35420
 Alpha virt. eigenvalues --    1.39838   1.94493

 Mulliken charges:
               1
     1  H    0.214126
     2  C   -0.783953
     3  H    0.214780
     4  H    0.206233
     5  H    0.148813
 Sum of Mulliken charges =  -0.00000

 Dipole moment (field-independent basis, Debye):
    X=             -0.0577    Y=             -0.0643    Z=              0.0305  Tot=              0.0917
 Quadrupole moment (field-independent basis, Debye-Ang):
   XX=             -7.9411   YY=             -8.6653   ZZ=             -8.8685
   XY=              0.1101   XZ=              0.0280   YZ=             -0.1514

 Normal termination of Gaussian 16 at Fri Sep 22 17:14:10 2023.
