 Gaussian 16, Revision A.03,
 Gaussian 16:  ES64L-G16RevA.03 25-Dec-2016

 ----------
 # hf/3-21g
 ----------

 ------------------------
 tmpdir/M2_conf_112_1.gjf
 ------------------------
 Symbolic Z-matrix:
 Charge =  0 Multiplicity = 1

                         Standard orientation:
 ---------------------------------------------------------------------
 Center     Atomic      Atomic             Coordinates (Angstroms)
 Number     Number       Type             X           Y           Z
 ---------------------------------------------------------------------
      1          6           0       -0.032214   -0.000060    0.009951
      2          1           0       -0.182451   -0.002482    1.014779
      3          1           0       -0.398128   -0.891867   -0.462245
      4          1           0       -0.400265    0.893071   -0.458516
      5          1           0        1.174129    0.001638   -0.153722
 ---------------------------------------------------------------------

 SCF Done:  E(RHF) =  -39.9637908722     A.U. after    9 cycles

 The electronic state is 1-A.
 Alpha  occ. eigenvalues --  -11.15053  -0.94491  -0.56901  -0.55553  -0.50287
 Alpha virt. eigenvalues --    0.28478   0.32514   0.35684   0.36960   0.89304
 Alpha virt. eigenvalues --    0.92049   0.97549   1.25298   1.33811   1.37059
 Alpha virt. eigenvalues --    1.41996   1.95462

 Mulliken charges:
               1
     1  C   -0.777624
     2  H    0.220348
     3  H    0.204241
     4  H    0.204186
     5  H    0.148848
 Sum of Mulliken charges =   0.00000

 Dipole moment (field-independent basis, Debye):
    X=             -0.0808    Y=             -0.0003    Z=              0.0423  Tot=              0.0912
 Quadrupole moment (field-independent basis, Debye-Ang):
   XX=             -8.5957   YY=             -8.3332   ZZ=             -8.3814
   XY=             -0.0005   XZ=              0.0391   YZ=             -0.0001

 Normal termination of Gaussian 16 at Fri Sep 22 17:16:55 2023.
