 Gaussian 16, Revision A.03,
 Gaussian 16:  ES64L-G16RevA.03 25-Dec-2016

 ----------
 # hf/3-21g
 ----------

 ------------------------
 tmpdir/M2_conf_203_4.gjf
 ------------------------
 Symbolic Z-matrix:
 Charge =  0 Multiplicity = 1

                         Standard orientation:
 ---------------------------------------------------------------------
 Center     Atomic      Atomic             Coordinates (Angstroms)
 Number     Number       Type             X           Y           Z
 ---------------------------------------------------------------------
      1          1           0        0.360447   -0.298234    0.972295
      2          6           0        0.029412    0.006582   -0.002226
      3          1           0        0.452209   -0.629423   -0.756781
      4          1           0        0.186486    1.053598   -0.180241
      5          1           0       -1.175617   -0.165433   -0.021919
 ---------------------------------------------------------------------

 SCF Done:  E(RHF) =  -39.9669524992     A.U. after    9 cycles

 The electronic state is 1-A.
 Alpha  occ. eigenvalues --  -11.15722  -0.93780  -0.55957  -0.55207  -0.50369
 Alpha virt. eigenvalues --    0.28305   0.32279   0.35523   0.35820   0.91521
 Alpha virt. eigenvalues --    0.92250   0.97746   1.25009   1.32574   1.36538
 Alpha virt. eigenvalues --    1.37277   1.94609

 Mulliken charges:
               1
     1  H    0.205894
     2  C   -0.770658
     3  H    0.206175
     4  H    0.206691
     5  H    0.151897
 Sum of Mulliken charges =   0.00000

 Dipole moment (field-independent basis, Debye):
    X=              0.0772    Y=              0.0027    Z=              0.0131  Tot=              0.0783
 Quadrupole moment (field-independent basis, Debye-Ang):
   XX=             -8.6209   YY=             -8.3517   ZZ=             -8.4628
   XY=             -0.0670   XZ=             -0.0116   YZ=             -0.0009

 Normal termination of Gaussian 16 at Fri Sep 22 17:19:17 2023.
