 Gaussian 16, Revision A.03,
 Gaussian 16:  ES64L-G16RevA.03 25-Dec-2016

 ----------
 # hf/3-21g
 ----------

 ------------------------
 tmpdir/M2_conf_109_4.gjf
 ------------------------
 Symbolic Z-matrix:
 Charge =  0 Multiplicity = 1

                         Standard orientation:
 ---------------------------------------------------------------------
 Center     Atomic      Atomic             Coordinates (Angstroms)
 Number     Number       Type             X           Y           Z
 ---------------------------------------------------------------------
      1          1           0        0.438229   -0.210451    0.954951
      2          6           0        0.021324    0.018174   -0.007394
      3          1           0        0.657683   -0.456043   -0.730423
      4          1           0       -0.149782    1.069544   -0.141365
      5          1           0       -1.074075   -0.512097   -0.038798
 ---------------------------------------------------------------------

 SCF Done:  E(RHF) =  -39.9660280612     A.U. after    9 cycles

 The electronic state is 1-A.
 Alpha  occ. eigenvalues --  -11.15720  -0.93809  -0.56604  -0.54332  -0.50534
 Alpha virt. eigenvalues --    0.28264   0.32331   0.35189   0.36065   0.90877
 Alpha virt. eigenvalues --    0.92908   0.98028   1.24893   1.32715   1.35774
 Alpha virt. eigenvalues --    1.38040   1.94442

 Mulliken charges:
               1
     1  H    0.204992
     2  C   -0.771832
     3  H    0.206272
     4  H    0.207458
     5  H    0.153109
 Sum of Mulliken charges =   0.00000

 Dipole moment (field-independent basis, Debye):
    X=              0.0914    Y=              0.0151    Z=              0.0388  Tot=              0.1005
 Quadrupole moment (field-independent basis, Debye-Ang):
   XX=             -8.4584   YY=             -8.3667   ZZ=             -8.6087
   XY=             -0.1876   XZ=             -0.0215   YZ=             -0.0074

 Normal termination of Gaussian 16 at Fri Sep 22 17:16:50 2023.
