 Gaussian 16, Revision A.03,
 Gaussian 16:  ES64L-G16RevA.03 25-Dec-2016

 ----------
 # hf/3-21g
 ----------

 ------------------------
 tmpdir/M2_conf_222_7.gjf
 ------------------------
 Symbolic Z-matrix:
 Charge =  0 Multiplicity = 1

                         Standard orientation:
 ---------------------------------------------------------------------
 Center     Atomic      Atomic             Coordinates (Angstroms)
 Number     Number       Type             X           Y           Z
 ---------------------------------------------------------------------
      1          1           0        0.345051   -0.318219    0.973294
      2          6           0        0.030402    0.004127   -0.001235
      3          1           0        0.410020   -0.646231   -0.766444
      4          1           0        0.244845    1.040546   -0.180185
      5          1           0       -1.182328   -0.100856   -0.019254
 ---------------------------------------------------------------------

 SCF Done:  E(RHF) =  -39.9669891623     A.U. after    9 cycles

 The electronic state is 1-A.
 Alpha  occ. eigenvalues --  -11.15723  -0.93778  -0.55837  -0.55369  -0.50333
 Alpha virt. eigenvalues --    0.28311   0.32263   0.35583   0.35772   0.91674
 Alpha virt. eigenvalues --    0.92114   0.97702   1.25032   1.32533   1.36681
 Alpha virt. eigenvalues --    1.37152   1.94627

 Mulliken charges:
               1
     1  H    0.206050
     2  C   -0.770614
     3  H    0.206238
     4  H    0.206637
     5  H    0.151688
 Sum of Mulliken charges =   0.00000

 Dipole moment (field-independent basis, Debye):
    X=              0.0746    Y=              0.0015    Z=              0.0084  Tot=              0.0751
 Quadrupole moment (field-independent basis, Debye-Ang):
   XX=             -8.6379   YY=             -8.3634   ZZ=             -8.4349
   XY=             -0.0410   XZ=             -0.0097   YZ=             -0.0003

 Normal termination of Gaussian 16 at Fri Sep 22 17:19:46 2023.
