 Gaussian 16, Revision A.03,
 Gaussian 16:  ES64L-G16RevA.03 25-Dec-2016

 ----------
 # hf/3-21g
 ----------

 ------------------------
 tmpdir/M2_conf_270_8.gjf
 ------------------------
 Symbolic Z-matrix:
 Charge =  0 Multiplicity = 1

                         Standard orientation:
 ---------------------------------------------------------------------
 Center     Atomic      Atomic             Coordinates (Angstroms)
 Number     Number       Type             X           Y           Z
 ---------------------------------------------------------------------
      1          1           0        0.540330    0.000058    0.788753
      2          6           0        1.217186    0.000017   -0.044604
      3         17           0       -0.674550   -0.000011   -0.019962
      4          1           0        1.811776    0.892484   -0.090908
      5          1           0        1.812125   -0.892466   -0.090859
 ---------------------------------------------------------------------

 SCF Done:  E(RHF) =  -496.520238889     A.U. after   12 cycles

 The electronic state is 1-A.
 Alpha  occ. eigenvalues -- -104.11577 -11.22367 -10.51515  -7.97875  -7.97381
 Alpha  occ. eigenvalues --   -7.97316  -1.18497  -0.91806  -0.67160  -0.62134
 Alpha  occ. eigenvalues --   -0.51848  -0.46962  -0.37294
 Alpha virt. eigenvalues --    0.11251   0.30862   0.32664   0.33211   0.73571
 Alpha virt. eigenvalues --    0.77008   0.79502   0.83938   0.91692   0.98589
 Alpha virt. eigenvalues --    1.04013   1.20502   1.31623   1.32469   1.80998

 Mulliken charges:
               1
     1  H    0.292175
     2  C   -0.749221
     3  Cl  -0.083952
     4  H    0.270518
     5  H    0.270481
 Sum of Mulliken charges =  -0.00000

 Dipole moment (field-independent basis, Debye):
    X=              1.8472    Y=              0.0001    Z=              0.6794  Tot=              1.9681
 Quadrupole moment (field-independent basis, Debye-Ang):
   XX=            -18.8695   YY=            -20.0072   ZZ=            -21.5765
   XY=             -0.0003   XZ=             -0.4612   YZ=              0.0000

 Normal termination of Gaussian 16 at Fri Sep 22 17:20:59 2023.
