 Gaussian 16, Revision A.03,
 Gaussian 16:  ES64L-G16RevA.03 25-Dec-2016

 ----------
 # hf/3-21g
 ----------

 -----------------------
 tmpdir/M2_conf_16_8.gjf
 -----------------------
 Symbolic Z-matrix:
 Charge =  0 Multiplicity = 1

                         Standard orientation:
 ---------------------------------------------------------------------
 Center     Atomic      Atomic             Coordinates (Angstroms)
 Number     Number       Type             X           Y           Z
 ---------------------------------------------------------------------
      1          1           0        1.478519   -0.796708   -0.663803
      2          6           0        1.202373    0.000357    0.000311
      3         17           0       -0.689530    0.000752    0.000621
      4          1           0        1.514552   -0.180521    1.011254
      5          1           0        1.514705    0.962297   -0.359882
 ---------------------------------------------------------------------

 SCF Done:  E(RHF) =  -496.689410880     A.U. after   11 cycles

 The electronic state is 1-A.
 Alpha  occ. eigenvalues -- -104.08773 -11.25001 -10.48162  -7.94537  -7.94133
 Alpha  occ. eigenvalues --   -7.94133  -1.11282  -0.93336  -0.63258  -0.63235
 Alpha  occ. eigenvalues --   -0.51320  -0.43741  -0.43711
 Alpha virt. eigenvalues --    0.16601   0.27332   0.31374   0.31384   0.73826
 Alpha virt. eigenvalues --    0.80607   0.80755   0.85501   0.93500   0.93823
 Alpha virt. eigenvalues --    0.99536   1.31217   1.31230   1.32200   1.91997

 Mulliken charges:
               1
     1  H    0.270725
     2  C   -0.702637
     3  Cl  -0.107061
     4  H    0.269510
     5  H    0.269462
 Sum of Mulliken charges =  -0.00000

 Dipole moment (field-independent basis, Debye):
    X=              2.8661    Y=             -0.0099    Z=             -0.0081  Tot=              2.8662
 Quadrupole moment (field-independent basis, Debye-Ang):
   XX=            -18.5701   YY=            -20.1804   ZZ=            -20.1813
   XY=              0.0282   XZ=              0.0235   YZ=              0.0006

 Normal termination of Gaussian 16 at Fri Sep 22 17:14:31 2023.
