 Gaussian 16, Revision A.03,
 Gaussian 16:  ES64L-G16RevA.03 25-Dec-2016

 ----------
 # hf/3-21g
 ----------

 ------------------------
 tmpdir/M2_conf_276_6.gjf
 ------------------------
 Symbolic Z-matrix:
 Charge =  0 Multiplicity = 1

                         Standard orientation:
 ---------------------------------------------------------------------
 Center     Atomic      Atomic             Coordinates (Angstroms)
 Number     Number       Type             X           Y           Z
 ---------------------------------------------------------------------
      1          1           0       -1.258135   -0.004521    1.066618
      2          6           0       -1.203287    0.000039   -0.005370
      3         17           0        0.688608    0.000029   -0.009364
      4          1           0       -1.614036    0.894577   -0.433972
      5          1           0       -1.614449   -0.890789   -0.441237
 ---------------------------------------------------------------------

 SCF Done:  E(RHF) =  -496.681937265     A.U. after   11 cycles

 The electronic state is 1-A.
 Alpha  occ. eigenvalues -- -104.08850 -11.24971 -10.48244  -7.94617  -7.94212
 Alpha  occ. eigenvalues --   -7.94210  -1.11480  -0.93283  -0.63553  -0.63179
 Alpha  occ. eigenvalues --   -0.51062  -0.43923  -0.43443
 Alpha virt. eigenvalues --    0.16149   0.27381   0.31386   0.31457   0.73921
 Alpha virt. eigenvalues --    0.79961   0.81056   0.85643   0.92441   0.95253
 Alpha virt. eigenvalues --    1.00326   1.30539   1.31166   1.32381   1.90870

 Mulliken charges:
               1
     1  H    0.278442
     2  C   -0.704608
     3  Cl  -0.107411
     4  H    0.266797
     5  H    0.266779
 Sum of Mulliken charges =  -0.00000

 Dipole moment (field-independent basis, Debye):
    X=             -2.8421    Y=             -0.0005    Z=              0.1345  Tot=              2.8453
 Quadrupole moment (field-independent basis, Debye-Ang):
   XX=            -18.5478   YY=            -20.1826   ZZ=            -20.2739
   XY=             -0.0010   XZ=              0.3491   YZ=             -0.0001

 Normal termination of Gaussian 16 at Fri Sep 22 17:21:08 2023.
