 Gaussian 16, Revision A.03,
 Gaussian 16:  ES64L-G16RevA.03 25-Dec-2016

 ----------
 # hf/3-21g
 ----------

 ------------------------
 tmpdir/M2_conf_242_4.gjf
 ------------------------
 Symbolic Z-matrix:
 Charge =  0 Multiplicity = 1

                         Standard orientation:
 ---------------------------------------------------------------------
 Center     Atomic      Atomic             Coordinates (Angstroms)
 Number     Number       Type             X           Y           Z
 ---------------------------------------------------------------------
      1          1           0        0.458769   -0.181819    0.948284
      2          6           0        0.018081    0.020778   -0.009284
      3          1           0        0.703292   -0.399214   -0.721115
      4          1           0       -0.241286    1.055416   -0.131172
      5          1           0       -1.029260   -0.599052   -0.040290
 ---------------------------------------------------------------------

 SCF Done:  E(RHF) =  -39.9654273527     A.U. after    9 cycles

 The electronic state is 1-A.
 Alpha  occ. eigenvalues --  -11.15720  -0.93825  -0.56828  -0.54026  -0.50583
 Alpha virt. eigenvalues --    0.28245   0.32338   0.35074   0.36141   0.90696
 Alpha virt. eigenvalues --    0.93129   0.98148   1.24853   1.32724   1.35533
 Alpha virt. eigenvalues --    1.38326   1.94355

 Mulliken charges:
               1
     1  H    0.204731
     2  C   -0.772550
     3  H    0.206455
     4  H    0.207797
     5  H    0.153567
 Sum of Mulliken charges =   0.00000

 Dipole moment (field-independent basis, Debye):
    X=              0.0970    Y=              0.0192    Z=              0.0479  Tot=              0.1099
 Quadrupole moment (field-independent basis, Debye-Ang):
   XX=             -8.3898   YY=             -8.3850   ZZ=             -8.6594
   XY=             -0.2095   XZ=             -0.0227   YZ=             -0.0096

 Normal termination of Gaussian 16 at Fri Sep 22 17:20:16 2023.
