 Gaussian 16, Revision A.03,
 Gaussian 16:  ES64L-G16RevA.03 25-Dec-2016

 ----------
 # hf/3-21g
 ----------

 -----------------------
 tmpdir/M2_conf_81_0.gjf
 -----------------------
 Symbolic Z-matrix:
 Charge =  0 Multiplicity = 1

                         Standard orientation:
 ---------------------------------------------------------------------
 Center     Atomic      Atomic             Coordinates (Angstroms)
 Number     Number       Type             X           Y           Z
 ---------------------------------------------------------------------
      1          6           0       -0.032256    0.000055    0.013602
      2          1           0       -0.151681   -0.001263    0.994357
      3          1           0       -0.409518    0.894462   -0.445019
      4          1           0       -0.414380   -0.890913   -0.447659
      5          1           0        1.169118   -0.002617   -0.183289
 ---------------------------------------------------------------------

 SCF Done:  E(RHF) =  -39.9599988134     A.U. after    9 cycles

 The electronic state is 1-A.
 Alpha  occ. eigenvalues --  -11.14734  -0.94889  -0.57516  -0.55521  -0.50289
 Alpha virt. eigenvalues --    0.28532   0.32599   0.35681   0.37606   0.88028
 Alpha virt. eigenvalues --    0.92130   0.97561   1.25385   1.34130   1.37100
 Alpha virt. eigenvalues --    1.45099   1.95970

 Mulliken charges:
               1
     1  C   -0.780159
     2  H    0.226546
     3  H    0.203018
     4  H    0.203012
     5  H    0.147583
 Sum of Mulliken charges =  -0.00000

 Dipole moment (field-independent basis, Debye):
    X=             -0.0839    Y=              0.0002    Z=              0.0583  Tot=              0.1022
 Quadrupole moment (field-independent basis, Debye-Ang):
   XX=             -8.5653   YY=             -8.3036   ZZ=             -8.3773
   XY=              0.0011   XZ=              0.0447   YZ=             -0.0004

 Normal termination of Gaussian 16 at Fri Sep 22 17:16:08 2023.
