 Gaussian 16, Revision A.03,
 Gaussian 16:  ES64L-G16RevA.03 25-Dec-2016

 ----------
 # hf/3-21g
 ----------

 ------------------------
 tmpdir/M2_conf_174_4.gjf
 ------------------------
 Symbolic Z-matrix:
 Charge =  0 Multiplicity = 1

                         Standard orientation:
 ---------------------------------------------------------------------
 Center     Atomic      Atomic             Coordinates (Angstroms)
 Number     Number       Type             X           Y           Z
 ---------------------------------------------------------------------
      1          1           0        0.360986   -0.297722    0.972193
      2          6           0        0.029371    0.006680   -0.002260
      3          1           0        0.453979   -0.628390   -0.756590
      4          1           0        0.184073    1.054114   -0.179889
      5          1           0       -1.175260   -0.168081   -0.022156
 ---------------------------------------------------------------------

 SCF Done:  E(RHF) =  -39.9669502767     A.U. after    9 cycles

 The electronic state is 1-A.
 Alpha  occ. eigenvalues --  -11.15722  -0.93781  -0.55961  -0.55201  -0.50371
 Alpha virt. eigenvalues --    0.28305   0.32280   0.35520   0.35822   0.91516
 Alpha virt. eigenvalues --    0.92254   0.97748   1.25008   1.32576   1.36532
 Alpha virt. eigenvalues --    1.37282   1.94608

 Mulliken charges:
               1
     1  H    0.205887
     2  C   -0.770660
     3  H    0.206173
     4  H    0.206695
     5  H    0.151906
 Sum of Mulliken charges =   0.00000

 Dipole moment (field-independent basis, Debye):
    X=              0.0773    Y=              0.0027    Z=              0.0133  Tot=              0.0785
 Quadrupole moment (field-independent basis, Debye-Ang):
   XX=             -8.6201   YY=             -8.3514   ZZ=             -8.4639
   XY=             -0.0681   XZ=             -0.0117   YZ=             -0.0009

 Normal termination of Gaussian 16 at Fri Sep 22 17:18:28 2023.
