 Gaussian 16, Revision A.03,
 Gaussian 16:  ES64L-G16RevA.03 25-Dec-2016

 ----------
 # hf/3-21g
 ----------

 ------------------------
 tmpdir/M2_conf_112_5.gjf
 ------------------------
 Symbolic Z-matrix:
 Charge =  0 Multiplicity = 1

                         Standard orientation:
 ---------------------------------------------------------------------
 Center     Atomic      Atomic             Coordinates (Angstroms)
 Number     Number       Type             X           Y           Z
 ---------------------------------------------------------------------
      1          1           0        1.067449    0.018514   -0.298212
      2          6           0        0.028721   -0.029688   -0.031926
      3          1           0       -0.816751   -0.186037   -0.674845
      4          1           0       -0.159429   -0.724630    0.764482
      5          1           0       -0.263593    1.070284    0.400132
 ---------------------------------------------------------------------

 SCF Done:  E(RHF) =  -39.9569770555     A.U. after    9 cycles

 The electronic state is 1-A.
 Alpha  occ. eigenvalues --  -11.15778  -0.93946  -0.58603  -0.53581  -0.48973
 Alpha virt. eigenvalues --    0.28275   0.31135   0.34766   0.36803   0.90118
 Alpha virt. eigenvalues --    0.96378   0.97281   1.25342   1.31090   1.35300
 Alpha virt. eigenvalues --    1.40259   1.94443

 Mulliken charges:
               1
     1  H    0.215798
     2  C   -0.787619
     3  H    0.216907
     4  H    0.206340
     5  H    0.148575
 Sum of Mulliken charges =  -0.00000

 Dipole moment (field-independent basis, Debye):
    X=             -0.0685    Y=             -0.0641    Z=              0.0369  Tot=              0.1008
 Quadrupole moment (field-independent basis, Debye-Ang):
   XX=             -7.8764   YY=             -8.6716   ZZ=             -8.9344
   XY=              0.1043   XZ=              0.0261   YZ=             -0.1564

 Normal termination of Gaussian 16 at Fri Sep 22 17:16:55 2023.
