 Gaussian 16, Revision A.03,
 Gaussian 16:  ES64L-G16RevA.03 25-Dec-2016

 ----------
 # hf/3-21g
 ----------

 -----------------------
 tmpdir/M2_conf_99_5.gjf
 -----------------------
 Symbolic Z-matrix:
 Charge =  0 Multiplicity = 1

                         Standard orientation:
 ---------------------------------------------------------------------
 Center     Atomic      Atomic             Coordinates (Angstroms)
 Number     Number       Type             X           Y           Z
 ---------------------------------------------------------------------
      1          1           0       -0.503110   -0.122861    0.926189
      2          6           0       -0.009047    0.025347   -0.015152
      3          1           0       -0.786224   -0.272939   -0.693115
      4          1           0        0.423172    1.004191   -0.102676
      5          1           0        0.920443   -0.760475   -0.039483
 ---------------------------------------------------------------------

 SCF Done:  E(RHF) =  -39.9627018712     A.U. after    9 cycles

 The electronic state is 1-A.
 Alpha  occ. eigenvalues --  -11.15724  -0.93897  -0.57514  -0.53078  -0.50707
 Alpha virt. eigenvalues --    0.28172   0.32327   0.34724   0.36339   0.90264
 Alpha virt. eigenvalues --    0.93754   0.98601   1.24729   1.32581   1.34907
 Alpha virt. eigenvalues --    1.39264   1.93973

 Mulliken charges:
               1
     1  H    0.203962
     2  C   -0.775474
     3  H    0.207343
     4  H    0.209070
     5  H    0.155099
 Sum of Mulliken charges =   0.00000

 Dipole moment (field-independent basis, Debye):
    X=             -0.1177    Y=              0.0275    Z=              0.0770  Tot=              0.1433
 Quadrupole moment (field-independent basis, Debye-Ang):
   XX=             -8.1936   YY=             -8.4293   ZZ=             -8.8162
   XY=              0.2352   XZ=              0.0241   YZ=             -0.0137

 Normal termination of Gaussian 16 at Fri Sep 22 17:16:35 2023.
