 Gaussian 16, Revision A.03,
 Gaussian 16:  ES64L-G16RevA.03 25-Dec-2016

 ----------
 # hf/3-21g
 ----------

 ------------------------
 tmpdir/M2_conf_123_0.gjf
 ------------------------
 Symbolic Z-matrix:
 Charge =  0 Multiplicity = 1

                         Standard orientation:
 ---------------------------------------------------------------------
 Center     Atomic      Atomic             Coordinates (Angstroms)
 Number     Number       Type             X           Y           Z
 ---------------------------------------------------------------------
      1          6           0       -0.032258    0.000055    0.015545
      2          1           0       -0.137999   -0.001055    0.982178
      3          1           0       -0.415123    0.894359   -0.438611
      4          1           0       -0.419955   -0.891017   -0.440838
      5          1           0        1.166622   -0.002617   -0.196003
 ---------------------------------------------------------------------

 SCF Done:  E(RHF) =  -39.9571128487     A.U. after    9 cycles

 The electronic state is 1-A.
 Alpha  occ. eigenvalues --  -11.14558  -0.95128  -0.57861  -0.55504  -0.50289
 Alpha virt. eigenvalues --    0.28558   0.32638   0.35679   0.37968   0.87329
 Alpha virt. eigenvalues --    0.92169   0.97575   1.25430   1.34281   1.37122
 Alpha virt. eigenvalues --    1.46948   1.96304

 Mulliken charges:
               1
     1  C   -0.781353
     2  H    0.229822
     3  H    0.202339
     4  H    0.202332
     5  H    0.146858
 Sum of Mulliken charges =   0.00000

 Dipole moment (field-independent basis, Debye):
    X=             -0.0855    Y=              0.0002    Z=              0.0663  Tot=              0.1082
 Quadrupole moment (field-independent basis, Debye-Ang):
   XX=             -8.5479   YY=             -8.2872   ZZ=             -8.3742
   XY=              0.0011   XZ=              0.0472   YZ=             -0.0004

 Normal termination of Gaussian 16 at Fri Sep 22 17:17:11 2023.
