 Gaussian 16, Revision A.03,
 Gaussian 16:  ES64L-G16RevA.03 25-Dec-2016

 ----------
 # hf/3-21g
 ----------

 ------------------------
 tmpdir/M2_conf_117_5.gjf
 ------------------------
 Symbolic Z-matrix:
 Charge =  0 Multiplicity = 1

                         Standard orientation:
 ---------------------------------------------------------------------
 Center     Atomic      Atomic             Coordinates (Angstroms)
 Number     Number       Type             X           Y           Z
 ---------------------------------------------------------------------
      1          1           0        0.512335    0.897562   -0.349624
      2          6           0        0.034191   -0.002428   -0.012601
      3          1           0       -0.053078   -0.808194   -0.716683
      4          1           0        0.454205   -0.372531    0.903490
      5          1           0       -1.118611    0.297732    0.238420
 ---------------------------------------------------------------------

 SCF Done:  E(RHF) =  -39.9657432229     A.U. after    9 cycles

 The electronic state is 1-A.
 Alpha  occ. eigenvalues --  -11.15736  -0.93792  -0.56601  -0.54923  -0.49989
 Alpha virt. eigenvalues --    0.28332   0.32045   0.35367   0.36058   0.91220
 Alpha virt. eigenvalues --    0.92998   0.97451   1.25197   1.32087   1.36270
 Alpha virt. eigenvalues --    1.37918   1.94662

 Mulliken charges:
               1
     1  H    0.208299
     2  C   -0.772590
     3  H    0.207927
     4  H    0.206084
     5  H    0.150280
 Sum of Mulliken charges =   0.00000

 Dipole moment (field-independent basis, Debye):
    X=              0.0512    Y=             -0.0400    Z=              0.0048  Tot=              0.0652
 Quadrupole moment (field-independent basis, Debye-Ang):
   XX=             -8.6327   YY=             -8.2688   ZZ=             -8.5452
   XY=              0.1310   XZ=              0.0925   YZ=             -0.0280

 Normal termination of Gaussian 16 at Fri Sep 22 17:17:02 2023.
