 Gaussian 16, Revision A.03,
 Gaussian 16:  ES64L-G16RevA.03 25-Dec-2016

 ----------
 # hf/3-21g
 ----------

 -----------------------
 tmpdir/M2_conf_79_0.gjf
 -----------------------
 Symbolic Z-matrix:
 Charge =  0 Multiplicity = 1

                         Standard orientation:
 ---------------------------------------------------------------------
 Center     Atomic      Atomic             Coordinates (Angstroms)
 Number     Number       Type             X           Y           Z
 ---------------------------------------------------------------------
      1          6           0        0.024251   -0.018592    0.000056
      2          1           0        0.804518    0.796971    0.002186
      3          1           0        0.050330   -0.614470    0.892733
      4          1           0        0.055403   -0.614177   -0.892643
      5          1           0       -1.055760    0.543228   -0.002612
 ---------------------------------------------------------------------

 SCF Done:  E(RHF) =  -39.9654930877     A.U. after    9 cycles

 The electronic state is 1-A.
 Alpha  occ. eigenvalues --  -11.16370  -0.93214  -0.55729  -0.54475  -0.50214
 Alpha virt. eigenvalues --    0.28068   0.31749   0.34681   0.35686   0.91804
 Alpha virt. eigenvalues --    0.94127   0.98106   1.24702   1.29400   1.34798
 Alpha virt. eigenvalues --    1.36802   1.94012

 Mulliken charges:
               1
     1  C   -0.762018
     2  H    0.191805
     3  H    0.208316
     4  H    0.208314
     5  H    0.153582
 Sum of Mulliken charges =   0.00000

 Dipole moment (field-independent basis, Debye):
    X=              0.0323    Y=             -0.0568    Z=              0.0001  Tot=              0.0653
 Quadrupole moment (field-independent basis, Debye-Ang):
   XX=             -8.6355   YY=             -8.4753   ZZ=             -8.4430
   XY=              0.1287   XZ=             -0.0012   YZ=              0.0003

 Normal termination of Gaussian 16 at Fri Sep 22 17:16:05 2023.
