 Gaussian 16, Revision A.03,
 Gaussian 16:  ES64L-G16RevA.03 25-Dec-2016

 ----------
 # hf/3-21g
 ----------

 ------------------------
 tmpdir/M2_conf_195_9.gjf
 ------------------------
 Symbolic Z-matrix:
 Charge =  0 Multiplicity = 1

                         Standard orientation:
 ---------------------------------------------------------------------
 Center     Atomic      Atomic             Coordinates (Angstroms)
 Number     Number       Type             X           Y           Z
 ---------------------------------------------------------------------
      1          1           0        0.880267   -0.001328    1.003090
      2          6           0        1.208298    0.000019   -0.019168
      3         17           0       -0.683607    0.000027   -0.019523
      4          1           0        1.745621   -0.892161   -0.278967
      5          1           0        1.745646    0.892918   -0.277226
 ---------------------------------------------------------------------

 SCF Done:  E(RHF) =  -496.633838584     A.U. after   11 cycles

 The electronic state is 1-A.
 Alpha  occ. eigenvalues -- -104.09469 -11.24552 -10.48956  -7.95317  -7.94902
 Alpha  occ. eigenvalues --   -7.94881  -1.13042  -0.92928  -0.64853  -0.63019
 Alpha  occ. eigenvalues --   -0.50412  -0.44710  -0.41892
 Alpha virt. eigenvalues --    0.14023   0.28133   0.31624   0.31739   0.74187
 Alpha virt. eigenvalues --    0.78779   0.80538   0.84687   0.93982   0.97237
 Alpha virt. eigenvalues --    1.02360   1.27798   1.31314   1.31634   1.85317

 Mulliken charges:
               1
     1  H    0.290090
     2  C   -0.710634
     3  Cl  -0.113079
     4  H    0.266828
     5  H    0.266795
 Sum of Mulliken charges =   0.00000

 Dipole moment (field-independent basis, Debye):
    X=              2.6457    Y=             -0.0005    Z=              0.3625  Tot=              2.6704
 Quadrupole moment (field-independent basis, Debye-Ang):
   XX=            -18.5221   YY=            -20.1624   ZZ=            -20.7809
   XY=              0.0008   XZ=             -0.7094   YZ=             -0.0000

 Normal termination of Gaussian 16 at Fri Sep 22 17:19:05 2023.
