 Gaussian 16, Revision A.03,
 Gaussian 16:  ES64L-G16RevA.03 25-Dec-2016

 ----------
 # hf/3-21g
 ----------

 -----------------------
 tmpdir/M2_conf_56_9.gjf
 -----------------------
 Symbolic Z-matrix:
 Charge =  0 Multiplicity = 1

                         Standard orientation:
 ---------------------------------------------------------------------
 Center     Atomic      Atomic             Coordinates (Angstroms)
 Number     Number       Type             X           Y           Z
 ---------------------------------------------------------------------
      1          1           0        1.709811   -0.006966    0.951194
      2          6           0        1.203098   -0.000018    0.004722
      3         17           0       -0.688796   -0.000074    0.008440
      4          1           0        1.390792   -0.888352   -0.567843
      5          1           0        1.390337    0.896683   -0.555165
 ---------------------------------------------------------------------

 SCF Done:  E(RHF) =  -496.683877870     A.U. after   11 cycles

 The electronic state is 1-A.
 Alpha  occ. eigenvalues -- -104.08819 -11.24987 -10.48210  -7.94583  -7.94178
 Alpha  occ. eigenvalues --   -7.94178  -1.11412  -0.93296  -0.63352  -0.63331
 Alpha  occ. eigenvalues --   -0.51089  -0.43752  -0.43627
 Alpha virt. eigenvalues --    0.16203   0.27320   0.31366   0.31490   0.73887
 Alpha virt. eigenvalues --    0.79976   0.81362   0.85788   0.92146   0.94710
 Alpha virt. eigenvalues --    1.00639   1.30493   1.31328   1.32598   1.91274

 Mulliken charges:
               1
     1  H    0.263462
     2  C   -0.705890
     3  Cl  -0.106062
     4  H    0.274255
     5  H    0.274236
 Sum of Mulliken charges =  -0.00000

 Dipole moment (field-independent basis, Debye):
    X=              2.8500    Y=              0.0008    Z=             -0.1067  Tot=              2.8520
 Quadrupole moment (field-independent basis, Debye-Ang):
   XX=            -18.5480   YY=            -20.1760   ZZ=            -20.2590
   XY=             -0.0031   XZ=              0.3174   YZ=              0.0000

 Normal termination of Gaussian 16 at Fri Sep 22 17:15:31 2023.
