 Gaussian 16, Revision A.03,
 Gaussian 16:  ES64L-G16RevA.03 25-Dec-2016

 ----------
 # hf/3-21g
 ----------

 ------------------------
 tmpdir/M2_conf_138_9.gjf
 ------------------------
 Symbolic Z-matrix:
 Charge =  0 Multiplicity = 1

                         Standard orientation:
 ---------------------------------------------------------------------
 Center     Atomic      Atomic             Coordinates (Angstroms)
 Number     Number       Type             X           Y           Z
 ---------------------------------------------------------------------
      1          1           0        1.025017   -0.002276    1.045618
      2          6           0        1.205849    0.000026   -0.012641
      3         17           0       -0.686051    0.000035   -0.016499
      4          1           0        1.701409   -0.891771   -0.346281
      5          1           0        1.701342    0.893306   -0.343009
 ---------------------------------------------------------------------

 SCF Done:  E(RHF) =  -496.658800897     A.U. after   11 cycles

 The electronic state is 1-A.
 Alpha  occ. eigenvalues -- -104.09127 -11.24814 -10.48554  -7.94921  -7.94512
 Alpha  occ. eigenvalues --   -7.94502  -1.12176  -0.93119  -0.64236  -0.63113
 Alpha  occ. eigenvalues --   -0.50574  -0.44296  -0.42749
 Alpha virt. eigenvalues --    0.15007   0.27682   0.31485   0.31597   0.74111
 Alpha virt. eigenvalues --    0.79268   0.80804   0.85145   0.93176   0.96543
 Alpha virt. eigenvalues --    1.01630   1.29177   1.31203   1.32048   1.87814

 Mulliken charges:
               1
     1  H    0.285783
     2  C   -0.707613
     3  Cl  -0.110441
     4  H    0.266151
     5  H    0.266120
 Sum of Mulliken charges =  -0.00000

 Dipole moment (field-independent basis, Debye):
    X=              2.7567    Y=             -0.0007    Z=              0.2705  Tot=              2.7700
 Quadrupole moment (field-independent basis, Debye-Ang):
   XX=            -18.5146   YY=            -20.1769   ZZ=            -20.5366
   XY=              0.0011   XZ=             -0.6110   YZ=             -0.0001

 Normal termination of Gaussian 16 at Fri Sep 22 17:17:33 2023.
