 Gaussian 16, Revision A.03,
 Gaussian 16:  ES64L-G16RevA.03 25-Dec-2016

 ----------
 # hf/3-21g
 ----------

 ------------------------
 tmpdir/M2_conf_199_7.gjf
 ------------------------
 Symbolic Z-matrix:
 Charge =  0 Multiplicity = 1

                         Standard orientation:
 ---------------------------------------------------------------------
 Center     Atomic      Atomic             Coordinates (Angstroms)
 Number     Number       Type             X           Y           Z
 ---------------------------------------------------------------------
      1          1           0        0.503670   -0.123407    0.925710
      2          6           0        0.008815    0.025461   -0.015340
      3          1           0        0.787596   -0.270693   -0.692401
      4          1           0       -0.425035    1.003516   -0.101104
      5          1           0       -0.919121   -0.762180   -0.040167
 ---------------------------------------------------------------------

 SCF Done:  E(RHF) =  -39.9626115094     A.U. after    9 cycles

 The electronic state is 1-A.
 Alpha  occ. eigenvalues --  -11.15724  -0.93900  -0.57535  -0.53049  -0.50711
 Alpha virt. eigenvalues --    0.28170   0.32329   0.34710   0.36346   0.90262
 Alpha virt. eigenvalues --    0.93759   0.98616   1.24725   1.32585   1.34881
 Alpha virt. eigenvalues --    1.39291   1.93963

 Mulliken charges:
               1
     1  H    0.203875
     2  C   -0.775565
     3  H    0.207377
     4  H    0.209161
     5  H    0.155152
 Sum of Mulliken charges =  -0.00000

 Dipole moment (field-independent basis, Debye):
    X=              0.1184    Y=              0.0274    Z=              0.0779  Tot=              0.1444
 Quadrupole moment (field-independent basis, Debye-Ang):
   XX=             -8.1897   YY=             -8.4291   ZZ=             -8.8206
   XY=             -0.2354   XZ=             -0.0246   YZ=             -0.0138

 Normal termination of Gaussian 16 at Fri Sep 22 17:19:11 2023.
