 Gaussian 16, Revision A.03,
 Gaussian 16:  ES64L-G16RevA.03 25-Dec-2016

 ----------
 # hf/3-21g
 ----------

 -----------------------
 tmpdir/M2_conf_35_8.gjf
 -----------------------
 Symbolic Z-matrix:
 Charge =  0 Multiplicity = 1

                         Standard orientation:
 ---------------------------------------------------------------------
 Center     Atomic      Atomic             Coordinates (Angstroms)
 Number     Number       Type             X           Y           Z
 ---------------------------------------------------------------------
      1          1           0       -1.486736    0.946959   -0.417596
      2          6           0       -1.202362   -0.000275    0.000132
      3         17           0        0.689533   -0.000591    0.000256
      4          1           0       -1.510497   -0.107375    1.022757
      5          1           0       -1.510647   -0.827883   -0.610312
 ---------------------------------------------------------------------

 SCF Done:  E(RHF) =  -496.689451972     A.U. after   11 cycles

 The electronic state is 1-A.
 Alpha  occ. eigenvalues -- -104.08772 -11.25001 -10.48162  -7.94536  -7.94132
 Alpha  occ. eigenvalues --   -7.94132  -1.11281  -0.93337  -0.63254  -0.63238
 Alpha  occ. eigenvalues --   -0.51322  -0.43736  -0.43717
 Alpha virt. eigenvalues --    0.16604   0.27332   0.31375   0.31382   0.73825
 Alpha virt. eigenvalues --    0.80632   0.80731   0.85499   0.93557   0.93767
 Alpha virt. eigenvalues --    0.99530   1.31220   1.31233   1.32197   1.92004

 Mulliken charges:
               1
     1  H    0.270437
     2  C   -0.702626
     3  Cl  -0.107058
     4  H    0.269648
     5  H    0.269600
 Sum of Mulliken charges =  -0.00000

 Dipole moment (field-independent basis, Debye):
    X=             -2.8662    Y=              0.0077    Z=             -0.0033  Tot=              2.8662
 Quadrupole moment (field-independent basis, Debye-Ang):
   XX=            -18.5703   YY=            -20.1798   ZZ=            -20.1813
   XY=              0.0222   XZ=             -0.0098   YZ=             -0.0003

 Normal termination of Gaussian 16 at Fri Sep 22 17:15:00 2023.
