 Gaussian 16, Revision A.03,
 Gaussian 16:  ES64L-G16RevA.03 25-Dec-2016

 ----------
 # hf/3-21g
 ----------

 -----------------------
 tmpdir/M2_conf_53_7.gjf
 -----------------------
 Symbolic Z-matrix:
 Charge =  0 Multiplicity = 1

                         Standard orientation:
 ---------------------------------------------------------------------
 Center     Atomic      Atomic             Coordinates (Angstroms)
 Number     Number       Type             X           Y           Z
 ---------------------------------------------------------------------
      1          1           0        0.412299   -0.246217    0.961003
      2          6           0        0.024496    0.014855   -0.005469
      3          1           0        0.600147   -0.514256   -0.741184
      4          1           0       -0.041797    1.076629   -0.148353
      5          1           0       -1.117624   -0.405289   -0.038655
 ---------------------------------------------------------------------

 SCF Done:  E(RHF) =  -39.9664875222     A.U. after    9 cycles

 The electronic state is 1-A.
 Alpha  occ. eigenvalues --  -11.15720  -0.93796  -0.56383  -0.54635  -0.50481
 Alpha virt. eigenvalues --    0.28280   0.32320   0.35302   0.35987   0.91088
 Alpha virt. eigenvalues --    0.92671   0.97921   1.24933   1.32690   1.36016
 Alpha virt. eigenvalues --    1.37770   1.94513

 Mulliken charges:
               1
     1  H    0.205219
     2  C   -0.771257
     3  H    0.206154
     4  H    0.207213
     5  H    0.152672
 Sum of Mulliken charges =   0.00000

 Dipole moment (field-independent basis, Debye):
    X=              0.0861    Y=              0.0107    Z=              0.0300  Tot=              0.0918
 Quadrupole moment (field-independent basis, Debye-Ang):
   XX=             -8.5239   YY=             -8.3520   ZZ=             -8.5579
   XY=             -0.1550   XZ=             -0.0208   YZ=             -0.0053

 Normal termination of Gaussian 16 at Fri Sep 22 17:15:26 2023.
