 Gaussian 16, Revision A.03,
 Gaussian 16:  ES64L-G16RevA.03 25-Dec-2016

 ----------
 # hf/3-21g
 ----------

 ------------------------
 tmpdir/M2_conf_168_7.gjf
 ------------------------
 Symbolic Z-matrix:
 Charge =  0 Multiplicity = 1

                         Standard orientation:
 ---------------------------------------------------------------------
 Center     Atomic      Atomic             Coordinates (Angstroms)
 Number     Number       Type             X           Y           Z
 ---------------------------------------------------------------------
      1          1           0       -1.055376    0.042527   -0.319028
      2          6           0       -0.024914   -0.029484   -0.026490
      3          1           0        0.789662   -0.239046   -0.693694
      4          1           0        0.122216   -0.701762    0.797263
      5          1           0        0.292980    1.075185    0.374397
 ---------------------------------------------------------------------

 SCF Done:  E(RHF) =  -39.9606150421     A.U. after    9 cycles

 The electronic state is 1-A.
 Alpha  occ. eigenvalues --  -11.15763  -0.93880  -0.57997  -0.53954  -0.49360
 Alpha virt. eigenvalues --    0.28306   0.31500   0.34929   0.36581   0.90372
 Alpha virt. eigenvalues --    0.95194   0.97299   1.25334   1.31394   1.35548
 Alpha virt. eigenvalues --    1.39490   1.94528

 Mulliken charges:
               1
     1  H    0.212814
     2  C   -0.781241
     3  H    0.213187
     4  H    0.206214
     5  H    0.149026
 Sum of Mulliken charges =  -0.00000

 Dipole moment (field-independent basis, Debye):
    X=              0.0485    Y=             -0.0648    Z=              0.0255  Tot=              0.0848
 Quadrupole moment (field-independent basis, Debye-Ang):
   XX=             -7.9964   YY=             -8.6590   ZZ=             -8.8136
   XY=             -0.1171   XZ=             -0.0299   YZ=             -0.1460

 Normal termination of Gaussian 16 at Fri Sep 22 17:18:19 2023.
