 Gaussian 16, Revision A.03,
 Gaussian 16:  ES64L-G16RevA.03 25-Dec-2016

 ----------
 # hf/3-21g
 ----------

 -----------------------
 tmpdir/M2_conf_17_9.gjf
 -----------------------
 Symbolic Z-matrix:
 Charge =  0 Multiplicity = 1

                         Standard orientation:
 ---------------------------------------------------------------------
 Center     Atomic      Atomic             Coordinates (Angstroms)
 Number     Number       Type             X           Y           Z
 ---------------------------------------------------------------------
      1          1           0        1.420588   -0.065930    1.047428
      2          6           0        1.202463    0.000116   -0.001703
      3         17           0       -0.689436    0.000199   -0.003275
      4          1           0        1.542671   -0.859865   -0.546577
      5          1           0        1.542368    0.921722   -0.434961
 ---------------------------------------------------------------------

 SCF Done:  E(RHF) =  -496.688643408     A.U. after   11 cycles

 The electronic state is 1-A.
 Alpha  occ. eigenvalues -- -104.08780 -11.24998 -10.48170  -7.94544  -7.94141
 Alpha  occ. eigenvalues --   -7.94140  -1.11301  -0.93331  -0.63299  -0.63219
 Alpha  occ. eigenvalues --   -0.51291  -0.43779  -0.43664
 Alpha virt. eigenvalues --    0.16551   0.27334   0.31368   0.31400   0.73836
 Alpha virt. eigenvalues --    0.80433   0.80898   0.85535   0.93107   0.94217
 Alpha virt. eigenvalues --    0.99645   1.31135   1.31204   1.32254   1.91882

 Mulliken charges:
               1
     1  H    0.272763
     2  C   -0.702922
     3  Cl  -0.107026
     4  H    0.268604
     5  H    0.268581
 Sum of Mulliken charges =  -0.00000

 Dipole moment (field-independent basis, Debye):
    X=              2.8637    Y=             -0.0028    Z=              0.0441  Tot=              2.8641
 Quadrupole moment (field-independent basis, Debye-Ang):
   XX=            -18.5671   YY=            -20.1820   ZZ=            -20.1900
   XY=              0.0072   XZ=             -0.1224   YZ=             -0.0003

 Normal termination of Gaussian 16 at Fri Sep 22 17:14:33 2023.
