 Gaussian 16, Revision A.03,
 Gaussian 16:  ES64L-G16RevA.03 25-Dec-2016

 ----------
 # hf/3-21g
 ----------

 ------------------------
 tmpdir/M2_conf_204_8.gjf
 ------------------------
 Symbolic Z-matrix:
 Charge =  0 Multiplicity = 1

                         Standard orientation:
 ---------------------------------------------------------------------
 Center     Atomic      Atomic             Coordinates (Angstroms)
 Number     Number       Type             X           Y           Z
 ---------------------------------------------------------------------
      1          1           0       -0.847670   -0.000342    0.990114
      2          6           0       -1.208942   -0.000011   -0.020875
      3         17           0        0.682958    0.000015   -0.020019
      4          1           0       -1.754330   -0.892398   -0.262485
      5          1           0       -1.754636    0.892552   -0.262056
 ---------------------------------------------------------------------

 SCF Done:  E(RHF) =  -496.626767456     A.U. after   11 cycles

 The electronic state is 1-A.
 Alpha  occ. eigenvalues -- -104.09573 -11.24462 -10.49081  -7.95440  -7.95022
 Alpha  occ. eigenvalues --   -7.94998  -1.13308  -0.92870  -0.65018  -0.62984
 Alpha  occ. eigenvalues --   -0.50417  -0.44833  -0.41631
 Alpha virt. eigenvalues --    0.13779   0.28276   0.31673   0.31781   0.74190
 Alpha virt. eigenvalues --    0.78656   0.80481   0.84613   0.94110   0.97377
 Alpha virt. eigenvalues --    1.02511   1.27376   1.31354   1.31529   1.84737

 Mulliken charges:
               1
     1  H    0.291037
     2  C   -0.711715
     3  Cl  -0.113437
     4  H    0.267079
     5  H    0.267036
 Sum of Mulliken charges =  -0.00000

 Dipole moment (field-independent basis, Debye):
    X=             -2.6104    Y=             -0.0002    Z=              0.3845  Tot=              2.6386
 Quadrupole moment (field-independent basis, Debye-Ang):
   XX=            -18.5306   YY=            -20.1575   ZZ=            -20.8436
   XY=             -0.0004   XZ=              0.7220   YZ=              0.0000

 Normal termination of Gaussian 16 at Fri Sep 22 17:19:18 2023.
