 Gaussian 16, Revision A.03,
 Gaussian 16:  ES64L-G16RevA.03 25-Dec-2016

 ----------
 # hf/3-21g
 ----------

 ------------------------
 tmpdir/M2_conf_225_6.gjf
 ------------------------
 Symbolic Z-matrix:
 Charge =  0 Multiplicity = 1

                         Standard orientation:
 ---------------------------------------------------------------------
 Center     Atomic      Atomic             Coordinates (Angstroms)
 Number     Number       Type             X           Y           Z
 ---------------------------------------------------------------------
      1          1           0       -1.201612   -0.003200    1.066537
      2          6           0       -1.203758    0.000036   -0.006856
      3         17           0        0.688137    0.000024   -0.011299
      4          1           0       -1.636887    0.893974   -0.414147
      5          1           0       -1.637280   -0.891399   -0.419179
 ---------------------------------------------------------------------

 SCF Done:  E(RHF) =  -496.677922871     A.U. after   11 cycles

 The electronic state is 1-A.
 Alpha  occ. eigenvalues -- -104.08894 -11.24950 -10.48292  -7.94664  -7.94259
 Alpha  occ. eigenvalues --   -7.94256  -1.11593  -0.93255  -0.63685  -0.63167
 Alpha  occ. eigenvalues --   -0.50947  -0.43991  -0.43327
 Alpha virt. eigenvalues --    0.15929   0.27422   0.31401   0.31484   0.73964
 Alpha virt. eigenvalues --    0.79798   0.81034   0.85603   0.92448   0.95588
 Alpha virt. eigenvalues --    1.00632   1.30266   1.31163   1.32355   1.90286

 Mulliken charges:
               1
     1  H    0.280312
     2  C   -0.705308
     3  Cl  -0.107845
     4  H    0.266428
     5  H    0.266412
 Sum of Mulliken charges =  -0.00000

 Dipole moment (field-independent basis, Debye):
    X=             -2.8285    Y=             -0.0005    Z=              0.1667  Tot=              2.8334
 Quadrupole moment (field-independent basis, Debye-Ang):
   XX=            -18.5387   YY=            -20.1822   ZZ=            -20.3225
   XY=             -0.0008   XZ=              0.4209   YZ=             -0.0001

 Normal termination of Gaussian 16 at Fri Sep 22 17:19:50 2023.
