 Gaussian 16, Revision A.03,
 Gaussian 16:  ES64L-G16RevA.03 25-Dec-2016

 ----------
 # hf/3-21g
 ----------

 ------------------------
 tmpdir/M2_conf_252_7.gjf
 ------------------------
 Symbolic Z-matrix:
 Charge =  0 Multiplicity = 1

                         Standard orientation:
 ---------------------------------------------------------------------
 Center     Atomic      Atomic             Coordinates (Angstroms)
 Number     Number       Type             X           Y           Z
 ---------------------------------------------------------------------
      1          1           0       -1.013751    0.241630   -0.340678
      2          6           0       -0.024988   -0.025690   -0.018955
      3          1           0        0.679617   -0.444751   -0.712157
      4          1           0       -0.032038   -0.654903    0.850652
      5          1           0        0.516100    1.012166    0.315914
 ---------------------------------------------------------------------

 SCF Done:  E(RHF) =  -39.9640586160     A.U. after    9 cycles

 The electronic state is 1-A.
 Alpha  occ. eigenvalues --  -11.15746  -0.93820  -0.57202  -0.54492  -0.49757
 Alpha virt. eigenvalues --    0.28328   0.31857   0.35171   0.36284   0.90815
 Alpha virt. eigenvalues --    0.93854   0.97371   1.25268   1.31800   1.35932
 Alpha virt. eigenvalues --    1.38564   1.94621

 Mulliken charges:
               1
     1  H    0.209883
     2  C   -0.775361
     3  H    0.209681
     4  H    0.206097
     5  H    0.149700
 Sum of Mulliken charges =   0.00000

 Dipole moment (field-independent basis, Debye):
    X=              0.0122    Y=             -0.0679    Z=              0.0126  Tot=              0.0702
 Quadrupole moment (field-independent basis, Debye-Ang):
   XX=             -8.2044   YY=             -8.5916   ZZ=             -8.6589
   XY=             -0.1989   XZ=             -0.0523   YZ=             -0.1156

 Normal termination of Gaussian 16 at Fri Sep 22 17:20:31 2023.
