 Gaussian 16, Revision A.03,
 Gaussian 16:  ES64L-G16RevA.03 25-Dec-2016

 ----------
 # hf/3-21g
 ----------

 ------------------------
 tmpdir/M2_conf_250_6.gjf
 ------------------------
 Symbolic Z-matrix:
 Charge =  0 Multiplicity = 1

                         Standard orientation:
 ---------------------------------------------------------------------
 Center     Atomic      Atomic             Coordinates (Angstroms)
 Number     Number       Type             X           Y           Z
 ---------------------------------------------------------------------
      1          1           0       -1.046249   -0.001609    1.049680
      2          6           0       -1.205549    0.000031   -0.011833
      3         17           0        0.686351    0.000016   -0.015949
      4          1           0       -1.694044    0.893264   -0.352595
      5          1           0       -1.694378   -0.892115   -0.354950
 ---------------------------------------------------------------------

 SCF Done:  E(RHF) =  -496.661687633     A.U. after   11 cycles

 The electronic state is 1-A.
 Alpha  occ. eigenvalues -- -104.09090 -11.24839 -10.48512  -7.94879  -7.94471
 Alpha  occ. eigenvalues --   -7.94462  -1.12084  -0.93139  -0.64159  -0.63121
 Alpha  occ. eigenvalues --   -0.50614  -0.44250  -0.42841
 Alpha virt. eigenvalues --    0.15135   0.27639   0.31471   0.31579   0.74095
 Alpha virt. eigenvalues --    0.79336   0.80839   0.85215   0.93048   0.96442
 Alpha virt. eigenvalues --    1.01512   1.29324   1.31188   1.32114   1.88155

 Mulliken charges:
               1
     1  H    0.285189
     2  C   -0.707309
     3  Cl  -0.110062
     4  H    0.266097
     5  H    0.266085
 Sum of Mulliken charges =  -0.00000

 Dipole moment (field-independent basis, Debye):
    X=             -2.7684    Y=             -0.0004    Z=              0.2578  Tot=              2.7804
 Quadrupole moment (field-independent basis, Debye-Ang):
   XX=            -18.5165   YY=            -20.1774   ZZ=            -20.5063
   XY=             -0.0006   XZ=              0.5911   YZ=             -0.0001

 Normal termination of Gaussian 16 at Fri Sep 22 17:20:28 2023.
