 Gaussian 16, Revision A.03,
 Gaussian 16:  ES64L-G16RevA.03 25-Dec-2016

 ----------
 # hf/3-21g
 ----------

 -----------------------
 tmpdir/M2_conf_64_9.gjf
 -----------------------
 Symbolic Z-matrix:
 Charge =  0 Multiplicity = 1

                         Standard orientation:
 ---------------------------------------------------------------------
 Center     Atomic      Atomic             Coordinates (Angstroms)
 Number     Number       Type             X           Y           Z
 ---------------------------------------------------------------------
      1          1           0       -1.505335   -0.820060   -0.623229
      2          6           0       -1.202357   -0.000029   -0.000036
      3         17           0        0.689545   -0.000090   -0.000058
      4          1           0       -1.501566   -0.129362    1.022677
      5          1           0       -1.501217    0.951135   -0.398251
 ---------------------------------------------------------------------

 SCF Done:  E(RHF) =  -496.689482776     A.U. after   10 cycles

 The electronic state is 1-A.
 Alpha  occ. eigenvalues -- -104.08772 -11.25001 -10.48162  -7.94536  -7.94132
 Alpha  occ. eigenvalues --   -7.94132  -1.11280  -0.93337  -0.63247  -0.63243
 Alpha  occ. eigenvalues --   -0.51324  -0.43728  -0.43725
 Alpha virt. eigenvalues --    0.16606   0.27332   0.31377   0.31379   0.73825
 Alpha virt. eigenvalues --    0.80674   0.80690   0.85498   0.93641   0.93684
 Alpha virt. eigenvalues --    0.99526   1.31224   1.31232   1.32197   1.92008

 Mulliken charges:
               1
     1  H    0.269781
     2  C   -0.702610
     3  Cl  -0.107052
     4  H    0.269951
     5  H    0.269929
 Sum of Mulliken charges =  -0.00000

 Dipole moment (field-independent basis, Debye):
    X=             -2.8663    Y=              0.0011    Z=              0.0009  Tot=              2.8663
 Quadrupole moment (field-independent basis, Debye-Ang):
   XX=            -18.5701   YY=            -20.1798   ZZ=            -20.1812
   XY=              0.0035   XZ=              0.0019   YZ=             -0.0001

 Normal termination of Gaussian 16 at Fri Sep 22 17:15:43 2023.
