 Gaussian 16, Revision A.03,
 Gaussian 16:  ES64L-G16RevA.03 25-Dec-2016

 ----------
 # hf/3-21g
 ----------

 ------------------------
 tmpdir/M2_conf_239_2.gjf
 ------------------------
 Symbolic Z-matrix:
 Charge =  0 Multiplicity = 1

                         Standard orientation:
 ---------------------------------------------------------------------
 Center     Atomic      Atomic             Coordinates (Angstroms)
 Number     Number       Type             X           Y           Z
 ---------------------------------------------------------------------
      1          6           0        0.009542   -0.028864   -0.000015
      2          1           0        1.109349    0.381003   -0.002653
      3          1           0       -0.221784   -0.577706    0.892991
      4          1           0       -0.226832   -0.577337   -0.892163
      5          1           0       -0.717988    0.947227    0.001917
 ---------------------------------------------------------------------

 SCF Done:  E(RHF) =  -39.9619286002     A.U. after    9 cycles

 The electronic state is 1-A.
 Alpha  occ. eigenvalues --  -11.16883  -0.92838  -0.55815  -0.53610  -0.50106
 Alpha virt. eigenvalues --    0.27740   0.31181   0.34118   0.35687   0.91708
 Alpha virt. eigenvalues --    0.95251   0.99157   1.23981   1.26877   1.34132
 Alpha virt. eigenvalues --    1.36689   1.93516

 Mulliken charges:
               1
     1  C   -0.753649
     2  H    0.179070
     3  H    0.209700
     4  H    0.209648
     5  H    0.155231
 Sum of Mulliken charges =   0.00000

 Dipole moment (field-independent basis, Debye):
    X=             -0.0309    Y=             -0.0738    Z=              0.0002  Tot=              0.0800
 Quadrupole moment (field-independent basis, Debye-Ang):
   XX=             -8.5175   YY=             -8.6412   ZZ=             -8.4843
   XY=              0.1544   XZ=              0.0010   YZ=             -0.0007

 Normal termination of Gaussian 16 at Fri Sep 22 17:20:11 2023.
