 Gaussian 16, Revision A.03,
 Gaussian 16:  ES64L-G16RevA.03 25-Dec-2016

 ----------
 # hf/3-21g
 ----------

 ------------------------
 tmpdir/M2_conf_165_4.gjf
 ------------------------
 Symbolic Z-matrix:
 Charge =  0 Multiplicity = 1

                         Standard orientation:
 ---------------------------------------------------------------------
 Center     Atomic      Atomic             Coordinates (Angstroms)
 Number     Number       Type             X           Y           Z
 ---------------------------------------------------------------------
      1          1           0       -1.042774    0.105874   -0.332181
      2          6           0       -0.023771   -0.028346   -0.022656
      3          1           0        0.754230   -0.315167   -0.704610
      4          1           0        0.065467   -0.683893    0.822862
      5          1           0        0.365704    1.063264    0.349862
 ---------------------------------------------------------------------

 SCF Done:  E(RHF) =  -39.9626242416     A.U. after    9 cycles

 The electronic state is 1-A.
 Alpha  occ. eigenvalues --  -11.15754  -0.93844  -0.57578  -0.54232  -0.49584
 Alpha virt. eigenvalues --    0.28320   0.31707   0.35049   0.36428   0.90601
 Alpha virt. eigenvalues --    0.94440   0.97334   1.25304   1.31620   1.35729
 Alpha virt. eigenvalues --    1.38992   1.94581

 Mulliken charges:
               1
     1  H    0.211184
     2  C   -0.777774
     3  H    0.211156
     4  H    0.206065
     5  H    0.149369
 Sum of Mulliken charges =   0.00000

 Dipole moment (field-independent basis, Debye):
    X=              0.0320    Y=             -0.0664    Z=              0.0180  Tot=              0.0759
 Quadrupole moment (field-independent basis, Debye-Ang):
   XX=             -8.0904   YY=             -8.6394   ZZ=             -8.7314
   XY=             -0.1465   XZ=             -0.0381   YZ=             -0.1343

 Normal termination of Gaussian 16 at Fri Sep 22 17:18:15 2023.
