 Gaussian 16, Revision A.03,
 Gaussian 16:  ES64L-G16RevA.03 25-Dec-2016

 ----------
 # hf/3-21g
 ----------

 -----------------------
 tmpdir/M2_conf_19_2.gjf
 -----------------------
 Symbolic Z-matrix:
 Charge =  0 Multiplicity = 1

                         Standard orientation:
 ---------------------------------------------------------------------
 Center     Atomic      Atomic             Coordinates (Angstroms)
 Number     Number       Type             X           Y           Z
 ---------------------------------------------------------------------
      1          6           0        0.032267    0.000013    0.018259
      2          1           0        0.122821   -0.001917    0.963730
      3          1           0        0.425611   -0.890693   -0.433542
      4          1           0        0.421571    0.894461   -0.430103
      5          1           0       -1.163607   -0.001928   -0.209639
 ---------------------------------------------------------------------

 SCF Done:  E(RHF) =  -39.9518231618     A.U. after    9 cycles

 The electronic state is 1-A.
 Alpha  occ. eigenvalues --  -11.14305  -0.95495  -0.58362  -0.55483  -0.50289
 Alpha virt. eigenvalues --    0.28592   0.32688   0.35680   0.38488   0.86334
 Alpha virt. eigenvalues --    0.92220   0.97599   1.25490   1.34485   1.37158
 Alpha virt. eigenvalues --    1.49750   1.96876

 Mulliken charges:
               1
     1  C   -0.782803
     2  H    0.234319
     3  H    0.201369
     4  H    0.201326
     5  H    0.145789
 Sum of Mulliken charges =  -0.00000

 Dipole moment (field-independent basis, Debye):
    X=              0.0876    Y=             -0.0000    Z=              0.0765  Tot=              0.1163
 Quadrupole moment (field-independent basis, Debye-Ang):
   XX=             -8.5228   YY=             -8.2632   ZZ=             -8.3685
   XY=             -0.0010   XZ=             -0.0493   YZ=             -0.0006

 Normal termination of Gaussian 16 at Fri Sep 22 17:14:36 2023.
