 Gaussian 16, Revision A.03,
 Gaussian 16:  ES64L-G16RevA.03 25-Dec-2016

 ----------
 # hf/3-21g
 ----------

 ------------------------
 tmpdir/M2_conf_293_1.gjf
 ------------------------
 Symbolic Z-matrix:
 Charge =  0 Multiplicity = 1

                         Standard orientation:
 ---------------------------------------------------------------------
 Center     Atomic      Atomic             Coordinates (Angstroms)
 Number     Number       Type             X           Y           Z
 ---------------------------------------------------------------------
      1          6           0       -0.032086   -0.000060    0.005500
      2          1           0       -0.236699   -0.005130    1.030566
      3          1           0       -0.374815   -0.890540   -0.486194
      4          1           0       -0.376754    0.894383   -0.478008
      5          1           0        1.180785    0.001650   -0.099367
 ---------------------------------------------------------------------

 SCF Done:  E(RHF) =  -39.9660958872     A.U. after    9 cycles

 The electronic state is 1-A.
 Alpha  occ. eigenvalues --  -11.15394  -0.94110  -0.56256  -0.55593  -0.50281
 Alpha virt. eigenvalues --    0.28406   0.32391   0.35685   0.36296   0.90646
 Alpha virt. eigenvalues --    0.91978   0.97567   1.25192   1.33299   1.37002
 Alpha virt. eigenvalues --    1.39130   1.95019

 Mulliken charges:
               1
     1  C   -0.774368
     2  H    0.213455
     3  H    0.205412
     4  H    0.205357
     5  H    0.150145
 Sum of Mulliken charges =  -0.00000

 Dipole moment (field-independent basis, Debye):
    X=             -0.0767    Y=             -0.0003    Z=              0.0227  Tot=              0.0800
 Quadrupole moment (field-independent basis, Debye-Ang):
   XX=             -8.6279   YY=             -8.3629   ZZ=             -8.3853
   XY=             -0.0005   XZ=              0.0260   YZ=             -0.0001

 Normal termination of Gaussian 16 at Fri Sep 22 17:21:39 2023.
