 Gaussian 16, Revision A.03,
 Gaussian 16:  ES64L-G16RevA.03 25-Dec-2016

 ----------
 # hf/3-21g
 ----------

 ------------------------
 tmpdir/M2_conf_238_0.gjf
 ------------------------
 Symbolic Z-matrix:
 Charge =  0 Multiplicity = 1

                         Standard orientation:
 ---------------------------------------------------------------------
 Center     Atomic      Atomic             Coordinates (Angstroms)
 Number     Number       Type             X           Y           Z
 ---------------------------------------------------------------------
      1          6           0       -0.030515   -0.005948   -0.000055
      2          1           0       -0.464407    1.000276   -0.005334
      3          1           0       -0.262401   -0.558039   -0.891149
      4          1           0       -0.267715   -0.550583    0.894211
      5          1           0        1.177612    0.144035    0.002605
 ---------------------------------------------------------------------

 SCF Done:  E(RHF) =  -39.9668108714     A.U. after    9 cycles

 The electronic state is 1-A.
 Alpha  occ. eigenvalues --  -11.15987  -0.93534  -0.55672  -0.55158  -0.50254
 Alpha virt. eigenvalues --    0.28232   0.32066   0.35244   0.35686   0.91874
 Alpha virt. eigenvalues --    0.92877   0.97754   1.24948   1.31398   1.35767
 Alpha virt. eigenvalues --    1.36885   1.94383

 Mulliken charges:
               1
     1  C   -0.767401
     2  H    0.200677
     3  H    0.207223
     4  H    0.207220
     5  H    0.152281
 Sum of Mulliken charges =  -0.00000

 Dipole moment (field-independent basis, Debye):
    X=             -0.0624    Y=             -0.0215    Z=             -0.0001  Tot=              0.0660
 Quadrupole moment (field-independent basis, Debye-Ang):
   XX=             -8.6724   YY=             -8.4014   ZZ=             -8.4118
   XY=             -0.0378   XZ=             -0.0012   YZ=              0.0001

 Normal termination of Gaussian 16 at Fri Sep 22 17:20:10 2023.
