 Gaussian 16, Revision A.03,
 Gaussian 16:  ES64L-G16RevA.03 25-Dec-2016

 ----------
 # hf/3-21g
 ----------

 -----------------------
 tmpdir/M2_conf_13_8.gjf
 -----------------------
 Symbolic Z-matrix:
 Charge =  0 Multiplicity = 1

                         Standard orientation:
 ---------------------------------------------------------------------
 Center     Atomic      Atomic             Coordinates (Angstroms)
 Number     Number       Type             X           Y           Z
 ---------------------------------------------------------------------
      1          1           0       -1.519289    0.931248   -0.430938
      2          6           0       -1.202366    0.000337   -0.000145
      3         17           0        0.689533    0.000610   -0.000286
      4          1           0       -1.494222   -0.096862    1.028227
      5          1           0       -1.494362   -0.846774   -0.591550
 ---------------------------------------------------------------------

 SCF Done:  E(RHF) =  -496.689449014     A.U. after   11 cycles

 The electronic state is 1-A.
 Alpha  occ. eigenvalues -- -104.08772 -11.25001 -10.48162  -7.94536  -7.94132
 Alpha  occ. eigenvalues --   -7.94132  -1.11281  -0.93337  -0.63250  -0.63242
 Alpha  occ. eigenvalues --   -0.51322  -0.43736  -0.43717
 Alpha virt. eigenvalues --    0.16604   0.27332   0.31374   0.31382   0.73825
 Alpha virt. eigenvalues --    0.80631   0.80733   0.85500   0.93541   0.93783
 Alpha virt. eigenvalues --    0.99530   1.31215   1.31235   1.32200   1.92004

 Mulliken charges:
               1
     1  H    0.269305
     2  C   -0.702627
     3  Cl  -0.107060
     4  H    0.270215
     5  H    0.270167
 Sum of Mulliken charges =  -0.00000

 Dipole moment (field-independent basis, Debye):
    X=             -2.8662    Y=             -0.0081    Z=              0.0039  Tot=              2.8663
 Quadrupole moment (field-independent basis, Debye-Ang):
   XX=            -18.5703   YY=            -20.1803   ZZ=            -20.1809
   XY=             -0.0227   XZ=              0.0104   YZ=              0.0001

 Normal termination of Gaussian 16 at Fri Sep 22 17:14:26 2023.
