 Gaussian 16, Revision A.03,
 Gaussian 16:  ES64L-G16RevA.03 25-Dec-2016

 ----------
 # hf/3-21g
 ----------

 ----------------------
 tmpdir/M2_conf_6_8.gjf
 ----------------------
 Symbolic Z-matrix:
 Charge =  0 Multiplicity = 1

                         Standard orientation:
 ---------------------------------------------------------------------
 Center     Atomic      Atomic             Coordinates (Angstroms)
 Number     Number       Type             X           Y           Z
 ---------------------------------------------------------------------
      1          1           0       -1.456520   -0.154125    1.030705
      2          6           0       -1.202398    0.000126   -0.000918
      3         17           0        0.689506    0.000279   -0.001836
      4          1           0       -1.525264   -0.808372   -0.628824
      5          1           0       -1.525423    0.956997   -0.365159
 ---------------------------------------------------------------------

 SCF Done:  E(RHF) =  -496.689218251     A.U. after   11 cycles

 The electronic state is 1-A.
 Alpha  occ. eigenvalues -- -104.08774 -11.25000 -10.48164  -7.94538  -7.94135
 Alpha  occ. eigenvalues --   -7.94135  -1.11286  -0.93335  -0.63272  -0.63228
 Alpha  occ. eigenvalues --   -0.51313  -0.43755  -0.43695
 Alpha virt. eigenvalues --    0.16588   0.27332   0.31371   0.31389   0.73828
 Alpha virt. eigenvalues --    0.80541   0.80815   0.85511   0.93348   0.93973
 Alpha virt. eigenvalues --    0.99565   1.31203   1.31216   1.32215   1.91968

 Mulliken charges:
               1
     1  H    0.271500
     2  C   -0.702711
     3  Cl  -0.107053
     4  H    0.269156
     5  H    0.269108
 Sum of Mulliken charges =  -0.00000

 Dipole moment (field-independent basis, Debye):
    X=             -2.8655    Y=             -0.0038    Z=              0.0243  Tot=              2.8657
 Quadrupole moment (field-independent basis, Debye-Ang):
   XX=            -18.5694   YY=            -20.1818   ZZ=            -20.1824
   XY=             -0.0103   XZ=              0.0689   YZ=             -0.0002

 Normal termination of Gaussian 16 at Fri Sep 22 17:14:16 2023.
