 Gaussian 16, Revision A.03,
 Gaussian 16:  ES64L-G16RevA.03 25-Dec-2016

 ----------
 # hf/3-21g
 ----------

 -----------------------
 tmpdir/M2_conf_97_4.gjf
 -----------------------
 Symbolic Z-matrix:
 Charge =  0 Multiplicity = 1

                         Standard orientation:
 ---------------------------------------------------------------------
 Center     Atomic      Atomic             Coordinates (Angstroms)
 Number     Number       Type             X           Y           Z
 ---------------------------------------------------------------------
      1          1           0       -0.338413    0.970103   -0.352411
      2          6           0       -0.032892    0.001213   -0.005861
      3          1           0       -0.209110   -0.797076   -0.701778
      4          1           0       -0.431386   -0.232602    0.963229
      5          1           0        1.176258    0.052299    0.126127
 ---------------------------------------------------------------------

 SCF Done:  E(RHF) =  -39.9666477538     A.U. after    9 cycles

 The electronic state is 1-A.
 Alpha  occ. eigenvalues --  -11.15729  -0.93778  -0.56046  -0.55333  -0.50162
 Alpha virt. eigenvalues --    0.28327   0.32167   0.35553   0.35845   0.91617
 Alpha virt. eigenvalues --    0.92336   0.97550   1.25123   1.32313   1.36639
 Alpha virt. eigenvalues --    1.37346   1.94667

 Mulliken charges:
               1
     1  H    0.207146
     2  C   -0.771148
     3  H    0.206888
     4  H    0.206234
     5  H    0.150879
 Sum of Mulliken charges =  -0.00000

 Dipole moment (field-independent basis, Debye):
    X=             -0.0650    Y=             -0.0136    Z=              0.0002  Tot=              0.0664
 Quadrupole moment (field-independent basis, Debye-Ang):
   XX=             -8.6680   YY=             -8.3237   ZZ=             -8.4492
   XY=             -0.0251   XZ=             -0.0515   YZ=             -0.0036

 Normal termination of Gaussian 16 at Fri Sep 22 17:16:33 2023.
