 Gaussian 16, Revision A.03,
 Gaussian 16:  ES64L-G16RevA.03 25-Dec-2016

 ----------
 # hf/3-21g
 ----------

 ------------------------
 tmpdir/M2_conf_201_5.gjf
 ------------------------
 Symbolic Z-matrix:
 Charge =  0 Multiplicity = 1

                         Standard orientation:
 ---------------------------------------------------------------------
 Center     Atomic      Atomic             Coordinates (Angstroms)
 Number     Number       Type             X           Y           Z
 ---------------------------------------------------------------------
      1          1           0        1.053677    0.051321   -0.320891
      2          6           0        0.024751   -0.029302   -0.025932
      3          1           0       -0.784726   -0.249660   -0.695861
      4          1           0       -0.114254   -0.699611    0.801095
      5          1           0       -0.303207    1.073762    0.371251
 ---------------------------------------------------------------------

 SCF Done:  E(RHF) =  -39.9609599732     A.U. after    9 cycles

 The electronic state is 1-A.
 Alpha  occ. eigenvalues --  -11.15761  -0.93874  -0.57935  -0.53992  -0.49398
 Alpha virt. eigenvalues --    0.28308   0.31537   0.34943   0.36560   0.90411
 Alpha virt. eigenvalues --    0.95063   0.97303   1.25331   1.31438   1.35562
 Alpha virt. eigenvalues --    1.39415   1.94541

 Mulliken charges:
               1
     1  H    0.212581
     2  C   -0.780648
     3  H    0.212850
     4  H    0.206140
     5  H    0.149077
 Sum of Mulliken charges =  -0.00000

 Dipole moment (field-independent basis, Debye):
    X=             -0.0461    Y=             -0.0650    Z=              0.0242  Tot=              0.0832
 Quadrupole moment (field-independent basis, Debye-Ang):
   XX=             -8.0106   YY=             -8.6570   ZZ=             -8.8002
   XY=              0.1214   XZ=              0.0312   YZ=             -0.1443

 Normal termination of Gaussian 16 at Fri Sep 22 17:19:14 2023.
