 Gaussian 16, Revision A.03,
 Gaussian 16:  ES64L-G16RevA.03 25-Dec-2016

 ----------
 # hf/3-21g
 ----------

 ------------------------
 tmpdir/M2_conf_215_4.gjf
 ------------------------
 Symbolic Z-matrix:
 Charge =  0 Multiplicity = 1

                         Standard orientation:
 ---------------------------------------------------------------------
 Center     Atomic      Atomic             Coordinates (Angstroms)
 Number     Number       Type             X           Y           Z
 ---------------------------------------------------------------------
      1          1           0        0.348051   -0.307597    0.975336
      2          6           0        0.030343    0.004202   -0.001409
      3          1           0        0.409050   -0.654268   -0.760109
      4          1           0        0.243134    1.039213   -0.191348
      5          1           0       -1.182290   -0.102559   -0.015424
 ---------------------------------------------------------------------

 SCF Done:  E(RHF) =  -39.9669873093     A.U. after    9 cycles

 The electronic state is 1-A.
 Alpha  occ. eigenvalues --  -11.15723  -0.93778  -0.55843  -0.55359  -0.50336
 Alpha virt. eigenvalues --    0.28310   0.32264   0.35581   0.35773   0.91654
 Alpha virt. eigenvalues --    0.92134   0.97706   1.25030   1.32535   1.36679
 Alpha virt. eigenvalues --    1.37154   1.94626

 Mulliken charges:
               1
     1  H    0.206087
     2  C   -0.770614
     3  H    0.206237
     4  H    0.206588
     5  H    0.151702
 Sum of Mulliken charges =   0.00000

 Dipole moment (field-independent basis, Debye):
    X=              0.0749    Y=              0.0013    Z=              0.0086  Tot=              0.0754
 Quadrupole moment (field-independent basis, Debye-Ang):
   XX=             -8.6371   YY=             -8.3617   ZZ=             -8.4373
   XY=             -0.0419   XZ=             -0.0080   YZ=             -0.0003

 Normal termination of Gaussian 16 at Fri Sep 22 17:19:35 2023.
