 Gaussian 16, Revision A.03,
 Gaussian 16:  ES64L-G16RevA.03 25-Dec-2016

 ----------
 # hf/3-21g
 ----------

 -----------------------
 tmpdir/M2_conf_35_7.gjf
 -----------------------
 Symbolic Z-matrix:
 Charge =  0 Multiplicity = 1

                         Standard orientation:
 ---------------------------------------------------------------------
 Center     Atomic      Atomic             Coordinates (Angstroms)
 Number     Number       Type             X           Y           Z
 ---------------------------------------------------------------------
      1          1           0        0.422068   -0.234001    0.958750
      2          6           0        0.023343    0.016195   -0.006153
      3          1           0        0.623493   -0.491216   -0.737565
      4          1           0       -0.083715    1.075258   -0.144347
      5          1           0       -1.101902   -0.447209   -0.039919
 ---------------------------------------------------------------------

 SCF Done:  E(RHF) =  -39.9663350576     A.U. after    9 cycles

 The electronic state is 1-A.
 Alpha  occ. eigenvalues --  -11.15720  -0.93800  -0.56466  -0.54522  -0.50501
 Alpha virt. eigenvalues --    0.28274   0.32325   0.35259   0.36017   0.91011
 Alpha virt. eigenvalues --    0.92755   0.97960   1.24918   1.32704   1.35921
 Alpha virt. eigenvalues --    1.37870   1.94489

 Mulliken charges:
               1
     1  H    0.205111
     2  C   -0.771449
     3  H    0.206187
     4  H    0.207319
     5  H    0.152832
 Sum of Mulliken charges =  -0.00000

 Dipole moment (field-independent basis, Debye):
    X=              0.0879    Y=              0.0124    Z=              0.0332  Tot=              0.0948
 Quadrupole moment (field-independent basis, Debye-Ang):
   XX=             -8.5001   YY=             -8.3570   ZZ=             -8.5767
   XY=             -0.1684   XZ=             -0.0216   YZ=             -0.0062

 Normal termination of Gaussian 16 at Fri Sep 22 17:15:00 2023.
