 Gaussian 16, Revision A.03,
 Gaussian 16:  ES64L-G16RevA.03 25-Dec-2016

 ----------
 # hf/3-21g
 ----------

 ------------------------
 tmpdir/M2_conf_244_3.gjf
 ------------------------
 Symbolic Z-matrix:
 Charge =  0 Multiplicity = 1

                         Standard orientation:
 ---------------------------------------------------------------------
 Center     Atomic      Atomic             Coordinates (Angstroms)
 Number     Number       Type             X           Y           Z
 ---------------------------------------------------------------------
      1          6           0       -2.297418    0.000008    0.000008
      2         17           0        1.269282   -0.000008   -0.000002
      3          1           0       -2.597787   -0.278196    0.992266
      4          1           0       -2.597474    0.998716   -0.255263
      5          1           0       -2.598023   -0.720438   -0.737023
 ---------------------------------------------------------------------

 SCF Done:  E(RHF) =  -496.514741463     A.U. after   11 cycles

 The electronic state is 1-A.
 Alpha  occ. eigenvalues -- -104.00025 -11.37921 -10.38763  -7.85083  -7.84895
 Alpha  occ. eigenvalues --   -7.84895  -1.06029  -0.93738  -0.71249  -0.71244
 Alpha  occ. eigenvalues --   -0.35653  -0.35653  -0.32326
 Alpha virt. eigenvalues --   -0.09936   0.20387   0.25038   0.25042   0.73182
 Alpha virt. eigenvalues --    0.79080   0.79093   0.83474   0.89628   0.89629
 Alpha virt. eigenvalues --    0.97152   1.11568   1.21918   1.21927   1.63305

 Mulliken charges:
               1
     1  C   -0.340386
     2  Cl  -0.586182
     3  H    0.308859
     4  H    0.308868
     5  H    0.308840
 Sum of Mulliken charges =   0.00000

 Dipole moment (field-independent basis, Debye):
    X=            -10.3937    Y=              0.0001    Z=              0.0001  Tot=             10.3937
 Quadrupole moment (field-independent basis, Debye-Ang):
   XX=             -6.5485   YY=            -20.3878   ZZ=            -20.3894
   XY=              0.0002   XZ=              0.0000   YZ=             -0.0001

 Normal termination of Gaussian 16 at Fri Sep 22 17:20:19 2023.
