 Gaussian 16, Revision A.03,
 Gaussian 16:  ES64L-G16RevA.03 25-Dec-2016

 ----------
 # hf/3-21g
 ----------

 ------------------------
 tmpdir/M2_conf_184_9.gjf
 ------------------------
 Symbolic Z-matrix:
 Charge =  0 Multiplicity = 1

                         Standard orientation:
 ---------------------------------------------------------------------
 Center     Atomic      Atomic             Coordinates (Angstroms)
 Number     Number       Type             X           Y           Z
 ---------------------------------------------------------------------
      1          1           0        1.104724   -0.003239    1.059136
      2          6           0        1.204783    0.000030   -0.009786
      3         17           0       -0.687108    0.000041   -0.014329
      4          1           0        1.673764   -0.891358   -0.380838
      5          1           0        1.673647    0.893715   -0.375982
 ---------------------------------------------------------------------

 SCF Done:  E(RHF) =  -496.668765630     A.U. after   11 cycles

 The electronic state is 1-A.
 Alpha  occ. eigenvalues -- -104.09002 -11.24893 -10.48412  -7.94782  -7.94375
 Alpha  occ. eigenvalues --   -7.94368  -1.11863  -0.93191  -0.63961  -0.63142
 Alpha  occ. eigenvalues --   -0.50736  -0.44138  -0.43058
 Alpha virt. eigenvalues --    0.15464   0.27534   0.31439   0.31541   0.74046
 Alpha virt. eigenvalues --    0.79512   0.80932   0.85400   0.92752   0.96123
 Alpha virt. eigenvalues --    1.01183   1.29728   1.31178   1.32212   1.89037

 Mulliken charges:
               1
     1  H    0.283342
     2  C   -0.706526
     3  Cl  -0.109040
     4  H    0.266126
     5  H    0.266098
 Sum of Mulliken charges =  -0.00000

 Dipole moment (field-independent basis, Debye):
    X=              2.7954    Y=             -0.0007    Z=              0.2228  Tot=              2.8043
 Quadrupole moment (field-independent basis, Debye-Ang):
   XX=            -18.5234   YY=            -20.1807   ZZ=            -20.4281
   XY=              0.0013   XZ=             -0.5329   YZ=             -0.0001

 Normal termination of Gaussian 16 at Fri Sep 22 17:18:48 2023.
