 Gaussian 16, Revision A.03,
 Gaussian 16:  ES64L-G16RevA.03 25-Dec-2016

 ----------
 # hf/3-21g
 ----------

 ------------------------
 tmpdir/M2_conf_222_8.gjf
 ------------------------
 Symbolic Z-matrix:
 Charge =  0 Multiplicity = 1

                         Standard orientation:
 ---------------------------------------------------------------------
 Center     Atomic      Atomic             Coordinates (Angstroms)
 Number     Number       Type             X           Y           Z
 ---------------------------------------------------------------------
      1          1           0        0.538993    0.000058    0.787487
      2          6           0        1.217233    0.000017   -0.044744
      3         17           0       -0.674502   -0.000011   -0.019939
      4          1           0        1.811899    0.892484   -0.090058
      5          1           0        1.812248   -0.892466   -0.090010
 ---------------------------------------------------------------------

 SCF Done:  E(RHF) =  -496.519559466     A.U. after   12 cycles

 The electronic state is 1-A.
 Alpha  occ. eigenvalues -- -104.11593 -11.22350 -10.51533  -7.97894  -7.97399
 Alpha  occ. eigenvalues --   -7.97334  -1.18538  -0.91798  -0.67173  -0.62127
 Alpha  occ. eigenvalues --   -0.51862  -0.46977  -0.37267
 Alpha virt. eigenvalues --    0.11241   0.30878   0.32672   0.33229   0.73564
 Alpha virt. eigenvalues --    0.76997   0.79489   0.83914   0.91669   0.98594
 Alpha virt. eigenvalues --    1.04022   1.20477   1.31635   1.32478   1.80996

 Mulliken charges:
               1
     1  H    0.292075
     2  C   -0.749585
     3  Cl  -0.083517
     4  H    0.270532
     5  H    0.270495
 Sum of Mulliken charges =  -0.00000

 Dipole moment (field-independent basis, Debye):
    X=              1.8409    Y=              0.0001    Z=              0.6813  Tot=              1.9629
 Quadrupole moment (field-independent basis, Debye-Ang):
   XX=            -18.8723   YY=            -20.0058   ZZ=            -21.5803
   XY=             -0.0003   XZ=             -0.4575   YZ=              0.0000

 Normal termination of Gaussian 16 at Fri Sep 22 17:19:45 2023.
