 Gaussian 16, Revision A.03,
 Gaussian 16:  ES64L-G16RevA.03 25-Dec-2016

 ----------
 # hf/3-21g
 ----------

 ------------------------
 tmpdir/M2_conf_190_5.gjf
 ------------------------
 Symbolic Z-matrix:
 Charge =  0 Multiplicity = 1

                         Standard orientation:
 ---------------------------------------------------------------------
 Center     Atomic      Atomic             Coordinates (Angstroms)
 Number     Number       Type             X           Y           Z
 ---------------------------------------------------------------------
      1          1           0       -0.505573   -0.119971    0.924591
      2          6           0       -0.008476    0.025544   -0.015572
      3          1           0       -0.790042   -0.266710   -0.691112
      4          1           0        0.431687    1.001033   -0.100934
      5          1           0        0.914783   -0.767614   -0.039112
 ---------------------------------------------------------------------

 SCF Done:  E(RHF) =  -39.9624615283     A.U. after    9 cycles

 The electronic state is 1-A.
 Alpha  occ. eigenvalues --  -11.15724  -0.93904  -0.57562  -0.53011  -0.50714
 Alpha virt. eigenvalues --    0.28166   0.32325   0.34699   0.36351   0.90240
 Alpha virt. eigenvalues --    0.93794   0.98638   1.24720   1.32560   1.34870
 Alpha virt. eigenvalues --    1.39332   1.93939

 Mulliken charges:
               1
     1  H    0.203904
     2  C   -0.775710
     3  H    0.207420
     4  H    0.209173
     5  H    0.155214
 Sum of Mulliken charges =  -0.00000

 Dipole moment (field-independent basis, Debye):
    X=             -0.1194    Y=              0.0278    Z=              0.0792  Tot=              0.1459
 Quadrupole moment (field-independent basis, Debye-Ang):
   XX=             -8.1811   YY=             -8.4313   ZZ=             -8.8273
   XY=              0.2358   XZ=              0.0241   YZ=             -0.0138

 Normal termination of Gaussian 16 at Fri Sep 22 17:18:57 2023.
