 Gaussian 16, Revision A.03,
 Gaussian 16:  ES64L-G16RevA.03 25-Dec-2016

 ----------
 # hf/3-21g
 ----------

 ------------------------
 tmpdir/M2_conf_295_7.gjf
 ------------------------
 Symbolic Z-matrix:
 Charge =  0 Multiplicity = 1

                         Standard orientation:
 ---------------------------------------------------------------------
 Center     Atomic      Atomic             Coordinates (Angstroms)
 Number     Number       Type             X           Y           Z
 ---------------------------------------------------------------------
      1          1           0       -0.349702    0.968866   -0.349140
      2          6           0       -0.033265    0.001470   -0.007629
      3          1           0       -0.168601   -0.799164   -0.709965
      4          1           0       -0.452585   -0.254657    0.946700
      5          1           0        1.170477    0.076135    0.158178
 ---------------------------------------------------------------------

 SCF Done:  E(RHF) =  -39.9664685028     A.U. after    9 cycles

 The electronic state is 1-A.
 Alpha  occ. eigenvalues --  -11.15731  -0.93781  -0.56188  -0.55228  -0.50121
 Alpha virt. eigenvalues --    0.28329   0.32139   0.35508   0.35898   0.91503
 Alpha virt. eigenvalues --    0.92508   0.97522   1.25142   1.32255   1.36549
 Alpha virt. eigenvalues --    1.37485   1.94669

 Mulliken charges:
               1
     1  H    0.207367
     2  C   -0.771433
     3  H    0.207105
     4  H    0.206243
     5  H    0.150719
 Sum of Mulliken charges =  -0.00000

 Dipole moment (field-independent basis, Debye):
    X=             -0.0629    Y=             -0.0187    Z=              0.0014  Tot=              0.0656
 Quadrupole moment (field-independent basis, Debye-Ang):
   XX=             -8.6687   YY=             -8.3004   ZZ=             -8.4731
   XY=             -0.0361   XZ=             -0.0646   YZ=             -0.0059

 Normal termination of Gaussian 16 at Fri Sep 22 17:21:41 2023.
