 Gaussian 16, Revision A.03,
 Gaussian 16:  ES64L-G16RevA.03 25-Dec-2016

 ----------
 # hf/3-21g
 ----------

 ------------------------
 tmpdir/M2_conf_211_9.gjf
 ------------------------
 Symbolic Z-matrix:
 Charge =  0 Multiplicity = 1

                         Standard orientation:
 ---------------------------------------------------------------------
 Center     Atomic      Atomic             Coordinates (Angstroms)
 Number     Number       Type             X           Y           Z
 ---------------------------------------------------------------------
      1          1           0        1.054580   -0.002578    1.051417
      2          6           0        1.205432    0.000027   -0.011529
      3         17           0       -0.686466    0.000037   -0.015732
      4          1           0        1.691420   -0.891643   -0.359287
      5          1           0        1.691334    0.893433   -0.355520
 ---------------------------------------------------------------------

 SCF Done:  E(RHF) =  -496.662775049     A.U. after   11 cycles

 The electronic state is 1-A.
 Alpha  occ. eigenvalues -- -104.09076 -11.24847 -10.48496  -7.94864  -7.94456
 Alpha  occ. eigenvalues --   -7.94447  -1.12049  -0.93148  -0.64129  -0.63125
 Alpha  occ. eigenvalues --   -0.50631  -0.44233  -0.42875
 Alpha virt. eigenvalues --    0.15184   0.27620   0.31466   0.31575   0.74088
 Alpha virt. eigenvalues --    0.79360   0.80855   0.85244   0.93008   0.96390
 Alpha virt. eigenvalues --    1.01467   1.29394   1.31192   1.32114   1.88285

 Mulliken charges:
               1
     1  H    0.284885
     2  C   -0.707189
     3  Cl  -0.109889
     4  H    0.266112
     5  H    0.266082
 Sum of Mulliken charges =  -0.00000

 Dipole moment (field-independent basis, Debye):
    X=              2.7725    Y=             -0.0007    Z=              0.2527  Tot=              2.7840
 Quadrupole moment (field-independent basis, Debye-Ang):
   XX=            -18.5172   YY=            -20.1785   ZZ=            -20.4941
   XY=              0.0012   XZ=             -0.5837   YZ=             -0.0001

 Normal termination of Gaussian 16 at Fri Sep 22 17:19:29 2023.
