 Gaussian 16, Revision A.03,
 Gaussian 16:  ES64L-G16RevA.03 25-Dec-2016

 ----------
 # hf/3-21g
 ----------

 ------------------------
 tmpdir/M2_conf_219_8.gjf
 ------------------------
 Symbolic Z-matrix:
 Charge =  0 Multiplicity = 1

                         Standard orientation:
 ---------------------------------------------------------------------
 Center     Atomic      Atomic             Coordinates (Angstroms)
 Number     Number       Type             X           Y           Z
 ---------------------------------------------------------------------
      1          1           0        0.534069    0.000055    0.782794
      2          6           0        1.217403    0.000017   -0.045260
      3         17           0       -0.674324   -0.000011   -0.019849
      4          1           0        1.812336    0.892484   -0.086922
      5          1           0        1.812685   -0.892466   -0.086877
 ---------------------------------------------------------------------

 SCF Done:  E(RHF) =  -496.517036492     A.U. after   12 cycles

 The electronic state is 1-A.
 Alpha  occ. eigenvalues -- -104.11653 -11.22287 -10.51604  -7.97965  -7.97467
 Alpha  occ. eigenvalues --   -7.97402  -1.18689  -0.91769  -0.67221  -0.62101
 Alpha  occ. eigenvalues --   -0.51912  -0.47031  -0.37165
 Alpha virt. eigenvalues --    0.11202   0.30936   0.32698   0.33296   0.73536
 Alpha virt. eigenvalues --    0.76959   0.79440   0.83823   0.91588   0.98614
 Alpha virt. eigenvalues --    1.04057   1.20391   1.31682   1.32514   1.80990

 Mulliken charges:
               1
     1  H    0.291690
     2  C   -0.750951
     3  Cl  -0.081868
     4  H    0.270583
     5  H    0.270546
 Sum of Mulliken charges =  -0.00000

 Dipole moment (field-independent basis, Debye):
    X=              1.8174    Y=              0.0001    Z=              0.6887  Tot=              1.9435
 Quadrupole moment (field-independent basis, Debye-Ang):
   XX=            -18.8830   YY=            -20.0006   ZZ=            -21.5943
   XY=             -0.0003   XZ=             -0.4434   YZ=              0.0000

 Normal termination of Gaussian 16 at Fri Sep 22 17:19:41 2023.
