 Gaussian 16, Revision A.03,
 Gaussian 16:  ES64L-G16RevA.03 25-Dec-2016

 ----------
 # hf/3-21g
 ----------

 ------------------------
 tmpdir/M2_conf_140_0.gjf
 ------------------------
 Symbolic Z-matrix:
 Charge =  0 Multiplicity = 1

                         Standard orientation:
 ---------------------------------------------------------------------
 Center     Atomic      Atomic             Coordinates (Angstroms)
 Number     Number       Type             X           Y           Z
 ---------------------------------------------------------------------
      1          6           0       -0.032200    0.000056    0.008625
      2          1           0       -0.198339   -0.002272    1.019764
      3          1           0       -0.389916    0.894965   -0.464451
      4          1           0       -0.394879   -0.890406   -0.469022
      5          1           0        1.176334   -0.002620   -0.138037
 ---------------------------------------------------------------------

 SCF Done:  E(RHF) =  -39.9646423222     A.U. after    9 cycles

 The electronic state is 1-A.
 Alpha  occ. eigenvalues --  -11.15157  -0.94372  -0.56703  -0.55566  -0.50286
 Alpha virt. eigenvalues --    0.28458   0.32479   0.35683   0.36758   0.89700
 Alpha virt. eigenvalues --    0.92039   0.97551   1.25267   1.33670   1.37038
 Alpha virt. eigenvalues --    1.41093   1.95320

 Mulliken charges:
               1
     1  C   -0.776686
     2  H    0.218344
     3  H    0.204550
     4  H    0.204545
     5  H    0.149248
 Sum of Mulliken charges =  -0.00000

 Dipole moment (field-independent basis, Debye):
    X=             -0.0797    Y=              0.0002    Z=              0.0367  Tot=              0.0878
 Quadrupole moment (field-independent basis, Debye-Ang):
   XX=             -8.6058   YY=             -8.3414   ZZ=             -8.3833
   XY=              0.0012   XZ=              0.0346   YZ=             -0.0004

 Normal termination of Gaussian 16 at Fri Sep 22 17:17:36 2023.
