 Gaussian 16, Revision A.03,
 Gaussian 16:  ES64L-G16RevA.03 25-Dec-2016

 ----------
 # hf/3-21g
 ----------

 ------------------------
 tmpdir/M2_conf_152_3.gjf
 ------------------------
 Symbolic Z-matrix:
 Charge =  0 Multiplicity = 1

                         Standard orientation:
 ---------------------------------------------------------------------
 Center     Atomic      Atomic             Coordinates (Angstroms)
 Number     Number       Type             X           Y           Z
 ---------------------------------------------------------------------
      1          6           0       -1.512018    0.000014    0.000010
      2         17           0        0.853482   -0.000011   -0.000003
      3          1           0       -1.812386   -0.278188    0.992267
      4          1           0       -1.812068    0.998725   -0.255260
      5          1           0       -1.812630   -0.720428   -0.737022
 ---------------------------------------------------------------------

 SCF Done:  E(RHF) =  -496.646893696     A.U. after   10 cycles

 The electronic state is 1-A.
 Alpha  occ. eigenvalues -- -104.07409 -11.29844 -10.46095  -7.92417  -7.92155
 Alpha  occ. eigenvalues --   -7.92155  -1.03597  -0.97182  -0.64514  -0.64509
 Alpha  occ. eigenvalues --   -0.43730  -0.41945  -0.41945
 Alpha virt. eigenvalues --    0.04015   0.25397   0.30165   0.30169   0.73270
 Alpha virt. eigenvalues --    0.78829   0.78834   0.88794   0.93320   0.93329
 Alpha virt. eigenvalues --    1.00855   1.27237   1.28452   1.28462   1.80570

 Mulliken charges:
               1
     1  C   -0.473021
     2  Cl  -0.343253
     3  H    0.272106
     4  H    0.272101
     5  H    0.272067
 Sum of Mulliken charges =  -0.00000

 Dipole moment (field-independent basis, Debye):
    X=             -4.7578    Y=              0.0001    Z=              0.0001  Tot=              4.7578
 Quadrupole moment (field-independent basis, Debye-Ang):
   XX=            -15.3280   YY=            -20.4074   ZZ=            -20.4088
   XY=              0.0004   XZ=             -0.0001   YZ=             -0.0001

 Normal termination of Gaussian 16 at Fri Sep 22 17:17:55 2023.
