 Gaussian 16, Revision A.03,
 Gaussian 16:  ES64L-G16RevA.03 25-Dec-2016

 ----------
 # hf/3-21g
 ----------

 ------------------------
 tmpdir/M2_conf_261_7.gjf
 ------------------------
 Symbolic Z-matrix:
 Charge =  0 Multiplicity = 1

                         Standard orientation:
 ---------------------------------------------------------------------
 Center     Atomic      Atomic             Coordinates (Angstroms)
 Number     Number       Type             X           Y           Z
 ---------------------------------------------------------------------
      1          1           0        0.488583   -0.142391    0.934617
      2          6           0        0.012178    0.024138   -0.012971
      3          1           0        0.762789   -0.310608   -0.703733
      4          1           0       -0.369313    1.022642   -0.111093
      5          1           0       -0.955126   -0.714471   -0.041964
 ---------------------------------------------------------------------

 SCF Done:  E(RHF) =  -39.9638626329     A.U. after    9 cycles

 The electronic state is 1-A.
 Alpha  occ. eigenvalues --  -11.15722  -0.93867  -0.57264  -0.53427  -0.50665
 Alpha virt. eigenvalues --    0.28202   0.32337   0.34849   0.36274   0.90410
 Alpha virt. eigenvalues --    0.93523   0.98421   1.24775   1.32677   1.35102
 Alpha virt. eigenvalues --    1.38911   1.94136

 Mulliken charges:
               1
     1  H    0.204189
     2  C   -0.774286
     3  H    0.206969
     4  H    0.208611
     5  H    0.154518
 Sum of Mulliken charges =  -0.00000

 Dipole moment (field-independent basis, Debye):
    X=              0.1094    Y=              0.0250    Z=              0.0661  Tot=              0.1302
 Quadrupole moment (field-independent basis, Debye-Ang):
   XX=             -8.2628   YY=             -8.4158   ZZ=             -8.7581
   XY=             -0.2303   XZ=             -0.0245   YZ=             -0.0128

 Normal termination of Gaussian 16 at Fri Sep 22 17:20:45 2023.
