 Gaussian 16, Revision A.03,
 Gaussian 16:  ES64L-G16RevA.03 25-Dec-2016

 ----------
 # hf/3-21g
 ----------

 ------------------------
 tmpdir/M2_conf_194_2.gjf
 ------------------------
 Symbolic Z-matrix:
 Charge =  0 Multiplicity = 1

                         Standard orientation:
 ---------------------------------------------------------------------
 Center     Atomic      Atomic             Coordinates (Angstroms)
 Number     Number       Type             X           Y           Z
 ---------------------------------------------------------------------
      1          6           0        0.032087    0.000015    0.005015
      2          1           0        0.246674   -0.009607    1.030255
      3          1           0        0.373582   -0.886800   -0.494125
      4          1           0        0.368875    0.898273   -0.476990
      5          1           0       -1.181655   -0.001954   -0.089233
 ---------------------------------------------------------------------

 SCF Done:  E(RHF) =  -39.9662079139     A.U. after    9 cycles

 The electronic state is 1-A.
 Alpha  occ. eigenvalues --  -11.15420  -0.94083  -0.56204  -0.55600  -0.50280
 Alpha virt. eigenvalues --    0.28400   0.32379   0.35687   0.36246   0.90744
 Alpha virt. eigenvalues --    0.91977   0.97570   1.25183   1.33247   1.37001
 Alpha virt. eigenvalues --    1.38933   1.94989

 Mulliken charges:
               1
     1  C   -0.774098
     2  H    0.212914
     3  H    0.205494
     4  H    0.205447
     5  H    0.150243
 Sum of Mulliken charges =  -0.00000

 Dipole moment (field-independent basis, Debye):
    X=              0.0764    Y=             -0.0001    Z=              0.0207  Tot=              0.0792
 Quadrupole moment (field-independent basis, Debye-Ang):
   XX=             -8.6306   YY=             -8.3645   ZZ=             -8.3858
   XY=             -0.0011   XZ=             -0.0224   YZ=             -0.0005

 Normal termination of Gaussian 16 at Fri Sep 22 17:19:03 2023.
