 Gaussian 16, Revision A.03,
 Gaussian 16:  ES64L-G16RevA.03 25-Dec-2016

 ----------
 # hf/3-21g
 ----------

 ------------------------
 tmpdir/M2_conf_266_1.gjf
 ------------------------
 Symbolic Z-matrix:
 Charge =  0 Multiplicity = 1

                         Standard orientation:
 ---------------------------------------------------------------------
 Center     Atomic      Atomic             Coordinates (Angstroms)
 Number     Number       Type             X           Y           Z
 ---------------------------------------------------------------------
      1          6           0       -0.025721   -0.016624    0.000059
      2          1           0       -0.748407    0.844243   -0.002871
      3          1           0       -0.092783   -0.606203    0.894531
      4          1           0       -0.092781   -0.612603   -0.890401
      5          1           0        1.088298    0.474308   -0.001613
 ---------------------------------------------------------------------

 SCF Done:  E(RHF) =  -39.9657524496     A.U. after    9 cycles

 The electronic state is 1-A.
 Alpha  occ. eigenvalues --  -11.16313  -0.93260  -0.55719  -0.54578  -0.50220
 Alpha virt. eigenvalues --    0.28096   0.31800   0.34759   0.35687   0.91802
 Alpha virt. eigenvalues --    0.93971   0.98035   1.24747   1.29698   1.34914
 Alpha virt. eigenvalues --    1.36820   1.94067

 Mulliken charges:
               1
     1  C   -0.762859
     2  H    0.193100
     3  H    0.208211
     4  H    0.208155
     5  H    0.153393
 Sum of Mulliken charges =  -0.00000

 Dipole moment (field-independent basis, Debye):
    X=             -0.0385    Y=             -0.0523    Z=              0.0003  Tot=              0.0649
 Quadrupole moment (field-independent basis, Debye-Ang):
   XX=             -8.6487   YY=             -8.4557   ZZ=             -8.4393
   XY=             -0.1155   XZ=              0.0004   YZ=              0.0003

 Normal termination of Gaussian 16 at Fri Sep 22 17:20:53 2023.
