 Gaussian 16, Revision A.03,
 Gaussian 16:  ES64L-G16RevA.03 25-Dec-2016

 ----------
 # hf/3-21g
 ----------

 ------------------------
 tmpdir/M2_conf_197_3.gjf
 ------------------------
 Symbolic Z-matrix:
 Charge =  0 Multiplicity = 1

                         Standard orientation:
 ---------------------------------------------------------------------
 Center     Atomic      Atomic             Coordinates (Angstroms)
 Number     Number       Type             X           Y           Z
 ---------------------------------------------------------------------
      1          6           0       -1.917337    0.000010    0.000009
      2         17           0        1.068063   -0.000009   -0.000002
      3          1           0       -2.217706   -0.278193    0.992266
      4          1           0       -2.217392    0.998719   -0.255262
      5          1           0       -2.217945   -0.720434   -0.737023
 ---------------------------------------------------------------------

 SCF Done:  E(RHF) =  -496.567714899     A.U. after   10 cycles

 The electronic state is 1-A.
 Alpha  occ. eigenvalues -- -104.03449 -11.34886 -10.42098  -7.88414  -7.88205
 Alpha  occ. eigenvalues --   -7.88205  -1.03367  -0.96554  -0.68350  -0.68345
 Alpha  occ. eigenvalues --   -0.38431  -0.38431  -0.36582
 Alpha virt. eigenvalues --   -0.04955   0.22565   0.27357   0.27361   0.72489
 Alpha virt. eigenvalues --    0.79176   0.79185   0.86104   0.90497   0.90502
 Alpha virt. eigenvalues --    0.98003   1.19437   1.24586   1.24596   1.70432

 Mulliken charges:
               1
     1  C   -0.362997
     2  Cl  -0.509556
     3  H    0.290858
     4  H    0.290863
     5  H    0.290832
 Sum of Mulliken charges =  -0.00000

 Dipole moment (field-independent basis, Debye):
    X=             -7.6897    Y=              0.0001    Z=              0.0001  Tot=              7.6897
 Quadrupole moment (field-independent basis, Debye-Ang):
   XX=            -10.8186   YY=            -20.4144   ZZ=            -20.4159
   XY=              0.0003   XZ=             -0.0000   YZ=             -0.0001

 Normal termination of Gaussian 16 at Fri Sep 22 17:19:08 2023.
