 Gaussian 16, Revision A.03,
 Gaussian 16:  ES64L-G16RevA.03 25-Dec-2016

 ----------
 # hf/3-21g
 ----------

 ----------------------
 tmpdir/M2_conf_2_6.gjf
 ----------------------
 Symbolic Z-matrix:
 Charge =  0 Multiplicity = 1

                         Standard orientation:
 ---------------------------------------------------------------------
 Center     Atomic      Atomic             Coordinates (Angstroms)
 Number     Number       Type             X           Y           Z
 ---------------------------------------------------------------------
      1          1           0       -1.458129   -0.075347    1.038846
      2          6           0       -1.202390    0.000085   -0.000911
      3         17           0        0.689509    0.000117   -0.001788
      4          1           0       -1.524360    0.926777   -0.437017
      5          1           0       -1.524832   -0.853940   -0.565959
 ---------------------------------------------------------------------

 SCF Done:  E(RHF) =  -496.689236486     A.U. after   11 cycles

 The electronic state is 1-A.
 Alpha  occ. eigenvalues -- -104.08774 -11.25000 -10.48164  -7.94538  -7.94135
 Alpha  occ. eigenvalues --   -7.94135  -1.11286  -0.93335  -0.63269  -0.63229
 Alpha  occ. eigenvalues --   -0.51314  -0.43754  -0.43697
 Alpha virt. eigenvalues --    0.16590   0.27333   0.31372   0.31387   0.73828
 Alpha virt. eigenvalues --    0.80547   0.80808   0.85510   0.93347   0.93973
 Alpha virt. eigenvalues --    0.99563   1.31204   1.31210   1.32222   1.91972

 Mulliken charges:
               1
     1  H    0.271480
     2  C   -0.702711
     3  Cl  -0.107045
     4  H    0.269149
     5  H    0.269127
 Sum of Mulliken charges =   0.00000

 Dipole moment (field-independent basis, Debye):
    X=             -2.8656    Y=             -0.0017    Z=              0.0239  Tot=              2.8657
 Quadrupole moment (field-independent basis, Debye-Ang):
   XX=            -18.5693   YY=            -20.1808   ZZ=            -20.1834
   XY=             -0.0043   XZ=              0.0666   YZ=             -0.0002

 Normal termination of Gaussian 16 at Fri Sep 22 17:14:10 2023.
