 Gaussian 16, Revision A.03,
 Gaussian 16:  ES64L-G16RevA.03 25-Dec-2016

 ----------
 # hf/3-21g
 ----------

 -----------------------
 tmpdir/M2_conf_88_0.gjf
 -----------------------
 Symbolic Z-matrix:
 Charge =  0 Multiplicity = 1

                         Standard orientation:
 ---------------------------------------------------------------------
 Center     Atomic      Atomic             Coordinates (Angstroms)
 Number     Number       Type             X           Y           Z
 ---------------------------------------------------------------------
      1          6           0        0.002238   -0.030651    0.000057
      2          1           0        1.180362    0.239495    0.000934
      3          1           0       -0.302641   -0.542200    0.893359
      4          1           0       -0.300126   -0.545803   -0.892019
      5          1           0       -0.591024    1.032413   -0.002615
 ---------------------------------------------------------------------

 SCF Done:  E(RHF) =  -39.9580482648     A.U. after    9 cycles

 The electronic state is 1-A.
 Alpha  occ. eigenvalues --  -11.17278  -0.92586  -0.55883  -0.53019  -0.49949
 Alpha virt. eigenvalues --    0.27361   0.30694   0.33824   0.35681   0.91651
 Alpha virt. eigenvalues --    0.95651   1.00394   1.22738   1.25806   1.33765
 Alpha virt. eigenvalues --    1.36581   1.93108

 Mulliken charges:
               1
     1  C   -0.746323
     2  H    0.168756
     3  H    0.210569
     4  H    0.210569
     5  H    0.156429
 Sum of Mulliken charges =   0.00000

 Dipole moment (field-independent basis, Debye):
    X=             -0.0705    Y=             -0.0727    Z=              0.0001  Tot=              0.1013
 Quadrupole moment (field-independent basis, Debye-Ang):
   XX=             -8.4889   YY=             -8.7066   ZZ=             -8.5149
   XY=              0.1392   XZ=             -0.0008   YZ=              0.0009

 Normal termination of Gaussian 16 at Fri Sep 22 17:16:19 2023.
