 Gaussian 16, Revision A.03,
 Gaussian 16:  ES64L-G16RevA.03 25-Dec-2016

 ----------
 # hf/3-21g
 ----------

 ------------------------
 tmpdir/M2_conf_206_7.gjf
 ------------------------
 Symbolic Z-matrix:
 Charge =  0 Multiplicity = 1

                         Standard orientation:
 ---------------------------------------------------------------------
 Center     Atomic      Atomic             Coordinates (Angstroms)
 Number     Number       Type             X           Y           Z
 ---------------------------------------------------------------------
      1          1           0       -1.072295    0.011363   -0.289394
      2          6           0       -0.030321   -0.029784   -0.034023
      3          1           0        0.826229   -0.169694   -0.665980
      4          1           0        0.172406   -0.731345    0.752672
      5          1           0        0.255585    1.068378    0.406840
 ---------------------------------------------------------------------

 SCF Done:  E(RHF) =  -39.9552314798     A.U. after    9 cycles

 The electronic state is 1-A.
 Alpha  occ. eigenvalues --  -11.15785  -0.93978  -0.58840  -0.53449  -0.48791
 Alpha virt. eigenvalues --    0.28258   0.30960   0.34715   0.36887   0.90028
 Alpha virt. eigenvalues --    0.96878   0.97321   1.25329   1.30956   1.35232
 Alpha virt. eigenvalues --    1.40583   1.94400

 Mulliken charges:
               1
     1  H    0.217140
     2  C   -0.790700
     3  H    0.218669
     4  H    0.206486
     5  H    0.148405
 Sum of Mulliken charges =  -0.00000

 Dipole moment (field-independent basis, Debye):
    X=              0.0766    Y=             -0.0641    Z=              0.0422  Tot=              0.1084
 Quadrupole moment (field-independent basis, Debye-Ang):
   XX=             -7.8278   YY=             -8.6758   ZZ=             -8.9847
   XY=             -0.1008   XZ=             -0.0249   YZ=             -0.1596

 Normal termination of Gaussian 16 at Fri Sep 22 17:19:21 2023.
