 Gaussian 16, Revision A.03,
 Gaussian 16:  ES64L-G16RevA.03 25-Dec-2016

 ----------
 # hf/3-21g
 ----------

 ------------------------
 tmpdir/M2_conf_241_6.gjf
 ------------------------
 Symbolic Z-matrix:
 Charge =  0 Multiplicity = 1

                         Standard orientation:
 ---------------------------------------------------------------------
 Center     Atomic      Atomic             Coordinates (Angstroms)
 Number     Number       Type             X           Y           Z
 ---------------------------------------------------------------------
      1          1           0       -1.087121   -0.001880    1.056532
      2          6           0       -1.205004    0.000032   -0.010374
      3         17           0        0.686890    0.000018   -0.014833
      4          1           0       -1.679819    0.893383   -0.369661
      5          1           0       -1.680169   -0.891995   -0.372471
 ---------------------------------------------------------------------

 SCF Done:  E(RHF) =  -496.666765514     A.U. after   11 cycles

 The electronic state is 1-A.
 Alpha  occ. eigenvalues -- -104.09026 -11.24878 -10.48439  -7.94808  -7.94401
 Alpha  occ. eigenvalues --   -7.94394  -1.11925  -0.93176  -0.64019  -0.63136
 Alpha  occ. eigenvalues --   -0.50698  -0.44169  -0.42998
 Alpha virt. eigenvalues --    0.15369   0.27564   0.31448   0.31550   0.74061
 Alpha virt. eigenvalues --    0.79461   0.80905   0.85347   0.92830   0.96227
 Alpha virt. eigenvalues --    1.01282   1.29604   1.31176   1.32198   1.88781

 Mulliken charges:
               1
     1  H    0.283937
     2  C   -0.706758
     3  Cl  -0.109342
     4  H    0.266088
     5  H    0.266075
 Sum of Mulliken charges =   0.00000

 Dipole moment (field-independent basis, Debye):
    X=             -2.7880    Y=             -0.0004    Z=              0.2334  Tot=              2.7978
 Quadrupole moment (field-independent basis, Debye-Ang):
   XX=            -18.5211   YY=            -20.1793   ZZ=            -20.4509
   XY=             -0.0006   XZ=              0.5509   YZ=             -0.0001

 Normal termination of Gaussian 16 at Fri Sep 22 17:20:14 2023.
