 Gaussian 16, Revision A.03,
 Gaussian 16:  ES64L-G16RevA.03 25-Dec-2016

 ----------
 # hf/3-21g
 ----------

 ------------------------
 tmpdir/M2_conf_152_8.gjf
 ------------------------
 Symbolic Z-matrix:
 Charge =  0 Multiplicity = 1

                         Standard orientation:
 ---------------------------------------------------------------------
 Center     Atomic      Atomic             Coordinates (Angstroms)
 Number     Number       Type             X           Y           Z
 ---------------------------------------------------------------------
      1          1           0       -1.362667   -0.012172    1.058636
      2          6           0       -1.202669    0.000021   -0.002905
      3         17           0        0.689228    0.000069   -0.005526
      4          1           0       -1.569006   -0.886979   -0.483744
      5          1           0       -1.569193    0.897857   -0.463524
 ---------------------------------------------------------------------

 SCF Done:  E(RHF) =  -496.687038955     A.U. after   11 cycles

 The electronic state is 1-A.
 Alpha  occ. eigenvalues -- -104.08796 -11.24993 -10.48186  -7.94560  -7.94156
 Alpha  occ. eigenvalues --   -7.94156  -1.11342  -0.93320  -0.63371  -0.63202
 Alpha  occ. eigenvalues --   -0.51231  -0.43823  -0.43602
 Alpha virt. eigenvalues --    0.16450   0.27341   0.31370   0.31417   0.73858
 Alpha virt. eigenvalues --    0.80262   0.80998   0.85589   0.92778   0.94591
 Alpha virt. eigenvalues --    0.99839   1.30972   1.31187   1.32314   1.91636

 Mulliken charges:
               1
     1  H    0.274810
     2  C   -0.703411
     3  Cl  -0.107063
     4  H    0.267856
     5  H    0.267808
 Sum of Mulliken charges =  -0.00000

 Dipole moment (field-independent basis, Debye):
    X=             -2.8587    Y=             -0.0010    Z=              0.0758  Tot=              2.8597
 Quadrupole moment (field-independent basis, Debye-Ang):
   XX=            -18.5622   YY=            -20.1833   ZZ=            -20.2094
   XY=             -0.0024   XZ=              0.2066   YZ=             -0.0000

 Normal termination of Gaussian 16 at Fri Sep 22 17:17:55 2023.
