 Gaussian 16, Revision A.03,
 Gaussian 16:  ES64L-G16RevA.03 25-Dec-2016

 ----------
 # hf/3-21g
 ----------

 ------------------------
 tmpdir/M2_conf_216_6.gjf
 ------------------------
 Symbolic Z-matrix:
 Charge =  0 Multiplicity = 1

                         Standard orientation:
 ---------------------------------------------------------------------
 Center     Atomic      Atomic             Coordinates (Angstroms)
 Number     Number       Type             X           Y           Z
 ---------------------------------------------------------------------
      1          1           0       -0.905015   -0.001018    1.011889
      2          6           0       -1.207827    0.000028   -0.017912
      3         17           0        0.684072    0.000013   -0.019096
      4          1           0       -1.738483    0.893008   -0.289211
      5          1           0       -1.738755   -0.892372   -0.290579
 ---------------------------------------------------------------------

 SCF Done:  E(RHF) =  -496.638817409     A.U. after   11 cycles

 The electronic state is 1-A.
 Alpha  occ. eigenvalues -- -104.09398 -11.24612 -10.48870  -7.95233  -7.94819
 Alpha  occ. eigenvalues --   -7.94800  -1.12861  -0.92966  -0.64737  -0.63040
 Alpha  occ. eigenvalues --   -0.50421  -0.44625  -0.42073
 Alpha virt. eigenvalues --    0.14204   0.28038   0.31593   0.31707   0.74181
 Alpha virt. eigenvalues --    0.78870   0.80582   0.84752   0.93859   0.97133
 Alpha virt. eigenvalues --    1.02243   1.28076   1.31281   1.31727   1.85756

 Mulliken charges:
               1
     1  H    0.289413
     2  C   -0.709939
     3  Cl  -0.112733
     4  H    0.266633
     5  H    0.266625
 Sum of Mulliken charges =  -0.00000

 Dipole moment (field-independent basis, Debye):
    X=             -2.6696    Y=             -0.0003    Z=              0.3463  Tot=              2.6920
 Quadrupole moment (field-independent basis, Debye-Ang):
   XX=            -18.5179   YY=            -20.1651   ZZ=            -20.7354
   XY=             -0.0004   XZ=              0.6969   YZ=             -0.0001

 Normal termination of Gaussian 16 at Fri Sep 22 17:19:37 2023.
