 Gaussian 16, Revision A.03,
 Gaussian 16:  ES64L-G16RevA.03 25-Dec-2016

 ----------
 # hf/3-21g
 ----------

 -----------------------
 tmpdir/M2_conf_15_1.gjf
 -----------------------
 Symbolic Z-matrix:
 Charge =  0 Multiplicity = 1

                         Standard orientation:
 ---------------------------------------------------------------------
 Center     Atomic      Atomic             Coordinates (Angstroms)
 Number     Number       Type             X           Y           Z
 ---------------------------------------------------------------------
      1          6           0       -0.028499   -0.011671    0.000059
      2          1           0       -0.611299    0.935481   -0.003738
      3          1           0       -0.181254   -0.584382    0.894960
      4          1           0       -0.181785   -0.592158   -0.889966
      5          1           0        1.145333    0.311085   -0.001609
 ---------------------------------------------------------------------

 SCF Done:  E(RHF) =  -39.9663091422     A.U. after    9 cycles

 The electronic state is 1-A.
 Alpha  occ. eigenvalues --  -11.16175  -0.93373  -0.55698  -0.54823  -0.50236
 Alpha virt. eigenvalues --    0.28158   0.31921   0.34955   0.35687   0.91828
 Alpha virt. eigenvalues --    0.93534   0.97892   1.24842   1.30444   1.35217
 Alpha virt. eigenvalues --    1.36850   1.94200

 Mulliken charges:
               1
     1  C   -0.764849
     2  H    0.196335
     3  H    0.207822
     4  H    0.207766
     5  H    0.152927
 Sum of Mulliken charges =  -0.00000

 Dipole moment (field-independent basis, Debye):
    X=             -0.0512    Y=             -0.0393    Z=              0.0003  Tot=              0.0646
 Quadrupole moment (field-independent basis, Debye-Ang):
   XX=             -8.6689   YY=             -8.4222   ZZ=             -8.4280
   XY=             -0.0792   XZ=              0.0004   YZ=              0.0003

 Normal termination of Gaussian 16 at Fri Sep 22 17:14:29 2023.
