 Gaussian 16, Revision A.03,
 Gaussian 16:  ES64L-G16RevA.03 25-Dec-2016

 ----------
 # hf/3-21g
 ----------

 -----------------------
 tmpdir/M2_conf_35_5.gjf
 -----------------------
 Symbolic Z-matrix:
 Charge =  0 Multiplicity = 1

                         Standard orientation:
 ---------------------------------------------------------------------
 Center     Atomic      Atomic             Coordinates (Angstroms)
 Number     Number       Type             X           Y           Z
 ---------------------------------------------------------------------
      1          1           0       -0.547238   -0.082955    0.892035
      2          6           0        0.001520    0.027970   -0.023797
      3          1           0       -0.843234   -0.183113   -0.651851
      4          1           0        0.542657    0.954115   -0.068914
      5          1           0        0.838697   -0.855869   -0.028489
 ---------------------------------------------------------------------

 SCF Done:  E(RHF) =  -39.9564897327     A.U. after    9 cycles

 The electronic state is 1-A.
 Alpha  occ. eigenvalues --  -11.15739  -0.94065  -0.58491  -0.51703  -0.50819
 Alpha virt. eigenvalues --    0.28022   0.32253   0.34232   0.36535   0.89943
 Alpha virt. eigenvalues --    0.94462   0.99459   1.24534   1.31891   1.34359
 Alpha virt. eigenvalues --    1.40688   1.93086

 Mulliken charges:
               1
     1  H    0.202493
     2  C   -0.780667
     3  H    0.209020
     4  H    0.211516
     5  H    0.157638
 Sum of Mulliken charges =  -0.00000

 Dipole moment (field-independent basis, Debye):
    X=             -0.1570    Y=              0.0322    Z=              0.1242  Tot=              0.2027
 Quadrupole moment (field-independent basis, Debye-Ang):
   XX=             -7.9573   YY=             -8.4514   ZZ=             -9.0474
   XY=              0.2374   XZ=              0.0231   YZ=             -0.0144

 Normal termination of Gaussian 16 at Fri Sep 22 17:14:59 2023.
