 Gaussian 16, Revision A.03,
 Gaussian 16:  ES64L-G16RevA.03 25-Dec-2016

 ----------
 # hf/3-21g
 ----------

 ------------------------
 tmpdir/M2_conf_167_7.gjf
 ------------------------
 Symbolic Z-matrix:
 Charge =  0 Multiplicity = 1

                         Standard orientation:
 ---------------------------------------------------------------------
 Center     Atomic      Atomic             Coordinates (Angstroms)
 Number     Number       Type             X           Y           Z
 ---------------------------------------------------------------------
      1          1           0       -1.061678    0.025671   -0.308963
      2          6           0       -0.026640   -0.029697   -0.029237
      3          1           0        0.805027   -0.207624   -0.684437
      4          1           0        0.144108   -0.713783    0.780111
      5          1           0        0.272380    1.073917    0.388714
 ---------------------------------------------------------------------

 SCF Done:  E(RHF) =  -39.9588915773     A.U. after    9 cycles

 The electronic state is 1-A.
 Alpha  occ. eigenvalues --  -11.15770  -0.93911  -0.58301  -0.53762  -0.49174
 Alpha virt. eigenvalues --    0.28292   0.31325   0.34846   0.36693   0.90231
 Alpha virt. eigenvalues --    0.95780   0.97284   1.25344   1.31234   1.35423
 Alpha virt. eigenvalues --    1.39869   1.94484

 Mulliken charges:
               1
     1  H    0.214215
     2  C   -0.784246
     3  H    0.214939
     4  H    0.206299
     5  H    0.148793
 Sum of Mulliken charges =   0.00000

 Dipole moment (field-independent basis, Debye):
    X=              0.0588    Y=             -0.0643    Z=              0.0311  Tot=              0.0925
 Quadrupole moment (field-independent basis, Debye-Ang):
   XX=             -7.9351   YY=             -8.6659   ZZ=             -8.8744
   XY=             -0.1083   XZ=             -0.0274   YZ=             -0.1520

 Normal termination of Gaussian 16 at Fri Sep 22 17:18:18 2023.
