 Gaussian 16, Revision A.03,
 Gaussian 16:  ES64L-G16RevA.03 25-Dec-2016

 ----------
 # hf/3-21g
 ----------

 -----------------------
 tmpdir/M2_conf_94_9.gjf
 -----------------------
 Symbolic Z-matrix:
 Charge =  0 Multiplicity = 1

                         Standard orientation:
 ---------------------------------------------------------------------
 Center     Atomic      Atomic             Coordinates (Angstroms)
 Number     Number       Type             X           Y           Z
 ---------------------------------------------------------------------
      1          1           0        1.594844   -0.042998    1.000363
      2          6           0        1.202501   -0.000070    0.001943
      3         17           0       -0.689404   -0.000172    0.003756
      4          1           0        1.455209   -0.868558   -0.576039
      5          1           0        1.454813    0.914895   -0.499836
 ---------------------------------------------------------------------

 SCF Done:  E(RHF) =  -496.688408946     A.U. after   11 cycles

 The electronic state is 1-A.
 Alpha  occ. eigenvalues -- -104.08782 -11.24998 -10.48171  -7.94546  -7.94142
 Alpha  occ. eigenvalues --   -7.94142  -1.11306  -0.93329  -0.63284  -0.63243
 Alpha  occ. eigenvalues --   -0.51279  -0.43762  -0.43678
 Alpha virt. eigenvalues --    0.16531   0.27332   0.31365   0.31408   0.73839
 Alpha virt. eigenvalues --    0.80369   0.80973   0.85556   0.93006   0.94254
 Alpha virt. eigenvalues --    0.99725   1.31023   1.31268   1.32300   1.91857

 Mulliken charges:
               1
     1  H    0.266770
     2  C   -0.703145
     3  Cl  -0.106929
     4  H    0.271662
     5  H    0.271642
 Sum of Mulliken charges =  -0.00000

 Dipole moment (field-independent basis, Debye):
    X=              2.8631    Y=              0.0020    Z=             -0.0484  Tot=              2.8635
 Quadrupole moment (field-independent basis, Debye-Ang):
   XX=            -18.5659   YY=            -20.1786   ZZ=            -20.1967
   XY=             -0.0067   XZ=              0.1406   YZ=              0.0001

 Normal termination of Gaussian 16 at Fri Sep 22 17:16:28 2023.
