 Gaussian 16, Revision A.03,
 Gaussian 16:  ES64L-G16RevA.03 25-Dec-2016

 ----------
 # hf/3-21g
 ----------

 ------------------------
 tmpdir/M2_conf_232_6.gjf
 ------------------------
 Symbolic Z-matrix:
 Charge =  0 Multiplicity = 1

                         Standard orientation:
 ---------------------------------------------------------------------
 Center     Atomic      Atomic             Coordinates (Angstroms)
 Number     Number       Type             X           Y           Z
 ---------------------------------------------------------------------
      1          1           0       -1.417213   -0.026973    1.049589
      2          6           0       -1.202472    0.000064   -0.001764
      3         17           0        0.689423    0.000076   -0.003412
      4          1           0       -1.543845    0.905048   -0.467683
      5          1           0       -1.544306   -0.879749   -0.513318
 ---------------------------------------------------------------------

 SCF Done:  E(RHF) =  -496.688574281     A.U. after   11 cycles

 The electronic state is 1-A.
 Alpha  occ. eigenvalues -- -104.08781 -11.24998 -10.48171  -7.94545  -7.94141
 Alpha  occ. eigenvalues --   -7.94141  -1.11303  -0.93330  -0.63303  -0.63217
 Alpha  occ. eigenvalues --   -0.51288  -0.43782  -0.43661
 Alpha virt. eigenvalues --    0.16547   0.27335   0.31370   0.31399   0.73837
 Alpha virt. eigenvalues --    0.80424   0.80904   0.85539   0.93077   0.94247
 Alpha virt. eigenvalues --    0.99654   1.31124   1.31197   1.32268   1.91872

 Mulliken charges:
               1
     1  H    0.272927
     2  C   -0.702951
     3  Cl  -0.107031
     4  H    0.268538
     5  H    0.268517
 Sum of Mulliken charges =  -0.00000

 Dipole moment (field-independent basis, Debye):
    X=             -2.8635    Y=             -0.0011    Z=              0.0461  Tot=              2.8639
 Quadrupole moment (field-independent basis, Debye-Ang):
   XX=            -18.5671   YY=            -20.1815   ZZ=            -20.1913
   XY=             -0.0027   XZ=              0.1272   YZ=             -0.0002

 Normal termination of Gaussian 16 at Fri Sep 22 17:20:01 2023.
