 Gaussian 16, Revision A.03,
 Gaussian 16:  ES64L-G16RevA.03 25-Dec-2016

 ----------
 # hf/3-21g
 ----------

 ------------------------
 tmpdir/M2_conf_286_5.gjf
 ------------------------
 Symbolic Z-matrix:
 Charge =  0 Multiplicity = 1

                         Standard orientation:
 ---------------------------------------------------------------------
 Center     Atomic      Atomic             Coordinates (Angstroms)
 Number     Number       Type             X           Y           Z
 ---------------------------------------------------------------------
      1          1           0       -0.363984   -0.298860    0.970490
      2          6           0       -0.029164    0.007237   -0.002335
      3          1           0       -0.465545   -0.617546   -0.758535
      4          1           0       -0.168227    1.058038   -0.172890
      5          1           0        1.172739   -0.185053   -0.025055
 ---------------------------------------------------------------------

 SCF Done:  E(RHF) =  -39.9669379416     A.U. after    9 cycles

 The electronic state is 1-A.
 Alpha  occ. eigenvalues --  -11.15722  -0.93781  -0.55983  -0.55173  -0.50375
 Alpha virt. eigenvalues --    0.28304   0.32282   0.35509   0.35830   0.91493
 Alpha virt. eigenvalues --    0.92276   0.97755   1.25005   1.32581   1.36506
 Alpha virt. eigenvalues --    1.37306   1.94604

 Mulliken charges:
               1
     1  H    0.205858
     2  C   -0.770676
     3  H    0.206160
     4  H    0.206719
     5  H    0.151940
 Sum of Mulliken charges =  -0.00000

 Dipole moment (field-independent basis, Debye):
    X=             -0.0776    Y=              0.0034    Z=              0.0142  Tot=              0.0790
 Quadrupole moment (field-independent basis, Debye-Ang):
   XX=             -8.6158   YY=             -8.3510   ZZ=             -8.4685
   XY=              0.0748   XZ=              0.0130   YZ=             -0.0012

 Normal termination of Gaussian 16 at Fri Sep 22 17:21:27 2023.
