 Gaussian 16, Revision A.03,
 Gaussian 16:  ES64L-G16RevA.03 25-Dec-2016

 ----------
 # hf/3-21g
 ----------

 ------------------------
 tmpdir/M2_conf_295_3.gjf
 ------------------------
 Symbolic Z-matrix:
 Charge =  0 Multiplicity = 1

                         Standard orientation:
 ---------------------------------------------------------------------
 Center     Atomic      Atomic             Coordinates (Angstroms)
 Number     Number       Type             X           Y           Z
 ---------------------------------------------------------------------
      1          6           0       -2.545357    0.000006    0.000008
      2         17           0        1.400543   -0.000007   -0.000001
      3          1           0       -2.845725   -0.278197    0.992265
      4          1           0       -2.845414    0.998714   -0.255263
      5          1           0       -2.845961   -0.720440   -0.737023
 ---------------------------------------------------------------------

 SCF Done:  E(RHF) =  -496.490638191     A.U. after   10 cycles

 The electronic state is 1-A.
 Alpha  occ. eigenvalues -- -103.98206 -11.39117 -10.36994  -7.83314  -7.83138
 Alpha  occ. eigenvalues --   -7.83138  -1.07286  -0.92252  -0.72531  -0.72526
 Alpha  occ. eigenvalues --   -0.34209  -0.34209  -0.30359
 Alpha virt. eigenvalues --   -0.12092   0.19364   0.23945   0.23949   0.75259
 Alpha virt. eigenvalues --    0.78214   0.78228   0.83590   0.90414   0.90414
 Alpha virt. eigenvalues --    0.94555   1.08796   1.20741   1.20750   1.61182

 Mulliken charges:
               1
     1  C   -0.335869
     2  Cl  -0.612087
     3  H    0.315988
     4  H    0.315997
     5  H    0.315971
 Sum of Mulliken charges =  -0.00000

 Dipole moment (field-independent basis, Debye):
    X=            -11.9960    Y=              0.0001    Z=              0.0000  Tot=             11.9960
 Quadrupole moment (field-independent basis, Debye-Ang):
   XX=             -3.6138   YY=            -20.3766   ZZ=            -20.3782
   XY=              0.0002   XZ=              0.0000   YZ=             -0.0001

 Normal termination of Gaussian 16 at Fri Sep 22 17:21:41 2023.
