 Gaussian 16, Revision A.03,
 Gaussian 16:  ES64L-G16RevA.03 25-Dec-2016

 ----------
 # hf/3-21g
 ----------

 ------------------------
 tmpdir/M2_conf_157_5.gjf
 ------------------------
 Symbolic Z-matrix:
 Charge =  0 Multiplicity = 1

                         Standard orientation:
 ---------------------------------------------------------------------
 Center     Atomic      Atomic             Coordinates (Angstroms)
 Number     Number       Type             X           Y           Z
 ---------------------------------------------------------------------
      1          1           0        1.091968    0.004064   -0.246691
      2          6           0        0.038573   -0.029515   -0.043176
      3          1           0       -0.858452   -0.127103   -0.624931
      4          1           0       -0.212090   -0.756025    0.706465
      5          1           0       -0.252865    1.056153    0.424210
 ---------------------------------------------------------------------

 SCF Done:  E(RHF) =  -39.9457830142     A.U. after    9 cycles

 The electronic state is 1-A.
 Alpha  occ. eigenvalues --  -11.15819  -0.94158  -0.59877  -0.52953  -0.47839
 Alpha virt. eigenvalues --    0.28151   0.30062   0.34517   0.37246   0.89832
 Alpha virt. eigenvalues --    0.97202   0.99637   1.25119   1.30501   1.34962
 Alpha virt. eigenvalues --    1.42156   1.94237

 Mulliken charges:
               1
     1  H    0.224639
     2  C   -0.807450
     3  H    0.228347
     4  H    0.206771
     5  H    0.147693
 Sum of Mulliken charges =  -0.00000

 Dipole moment (field-independent basis, Debye):
    X=             -0.1138    Y=             -0.0656    Z=              0.0685  Tot=              0.1482
 Quadrupole moment (field-independent basis, Debye-Ang):
   XX=             -7.6158   YY=             -8.6961   ZZ=             -9.2078
   XY=              0.0997   XZ=              0.0239   YZ=             -0.1671

 Normal termination of Gaussian 16 at Fri Sep 22 17:18:02 2023.
