 Gaussian 16, Revision A.03,
 Gaussian 16:  ES64L-G16RevA.03 25-Dec-2016

 ----------
 # hf/3-21g
 ----------

 ------------------------
 tmpdir/M2_conf_230_1.gjf
 ------------------------
 Symbolic Z-matrix:
 Charge =  0 Multiplicity = 1

                         Standard orientation:
 ---------------------------------------------------------------------
 Center     Atomic      Atomic             Coordinates (Angstroms)
 Number     Number       Type             X           Y           Z
 ---------------------------------------------------------------------
      1          6           0       -0.030774   -0.004927    0.000058
      2          1           0       -0.438683    1.008970   -0.007341
      3          1           0       -0.278061   -0.540648    0.896737
      4          1           0       -0.279250   -0.554422   -0.888153
      5          1           0        1.180635    0.115660   -0.001592
 ---------------------------------------------------------------------

 SCF Done:  E(RHF) =  -39.9668638936     A.U. after    9 cycles

 The electronic state is 1-A.
 Alpha  occ. eigenvalues --  -11.15951  -0.93567  -0.55666  -0.55226  -0.50256
 Alpha virt. eigenvalues --    0.28245   0.32090   0.35303   0.35687   0.91869
 Alpha virt. eigenvalues --    0.92759   0.97733   1.24967   1.31559   1.35903
 Alpha virt. eigenvalues --    1.36897   1.94419

 Mulliken charges:
               1
     1  C   -0.767876
     2  H    0.201442
     3  H    0.207167
     4  H    0.207112
     5  H    0.152155
 Sum of Mulliken charges =  -0.00000

 Dipole moment (field-independent basis, Debye):
    X=             -0.0639    Y=             -0.0183    Z=              0.0003  Tot=              0.0665
 Quadrupole moment (field-independent basis, Debye-Ang):
   XX=             -8.6716   YY=             -8.3977   ZZ=             -8.4097
   XY=             -0.0298   XZ=              0.0004   YZ=              0.0002

 Normal termination of Gaussian 16 at Fri Sep 22 17:19:58 2023.
