 Gaussian 16, Revision A.03,
 Gaussian 16:  ES64L-G16RevA.03 25-Dec-2016

 ----------
 # hf/3-21g
 ----------

 -----------------------
 tmpdir/M2_conf_70_4.gjf
 -----------------------
 Symbolic Z-matrix:
 Charge =  0 Multiplicity = 1

                         Standard orientation:
 ---------------------------------------------------------------------
 Center     Atomic      Atomic             Coordinates (Angstroms)
 Number     Number       Type             X           Y           Z
 ---------------------------------------------------------------------
      1          1           0        0.366512   -0.292772    0.971041
      2          6           0        0.028940    0.007642   -0.002603
      3          1           0        0.471296   -0.617666   -0.754888
      4          1           0        0.159938    1.058979   -0.176195
      5          1           0       -1.171386   -0.194393   -0.024339
 ---------------------------------------------------------------------

 SCF Done:  E(RHF) =  -39.9669244577     A.U. after    9 cycles

 The electronic state is 1-A.
 Alpha  occ. eigenvalues --  -11.15722  -0.93782  -0.56007  -0.55139  -0.50384
 Alpha virt. eigenvalues --    0.28302   0.32286   0.35497   0.35840   0.91464
 Alpha virt. eigenvalues --    0.92302   0.97765   1.25000   1.32591   1.36475
 Alpha virt. eigenvalues --    1.37333   1.94600

 Mulliken charges:
               1
     1  H    0.205812
     2  C   -0.770694
     3  H    0.206155
     4  H    0.206740
     5  H    0.151987
 Sum of Mulliken charges =  -0.00000

 Dipole moment (field-independent basis, Debye):
    X=              0.0782    Y=              0.0034    Z=              0.0152  Tot=              0.0798
 Quadrupole moment (field-independent basis, Debye-Ang):
   XX=             -8.6122   YY=             -8.3487   ZZ=             -8.4742
   XY=             -0.0784   XZ=             -0.0129   YZ=             -0.0012

 Normal termination of Gaussian 16 at Fri Sep 22 17:15:52 2023.
