 Gaussian 16, Revision A.03,
 Gaussian 16:  ES64L-G16RevA.03 25-Dec-2016

 ----------
 # hf/3-21g
 ----------

 ------------------------
 tmpdir/M2_conf_224_9.gjf
 ------------------------
 Symbolic Z-matrix:
 Charge =  0 Multiplicity = 1

                         Standard orientation:
 ---------------------------------------------------------------------
 Center     Atomic      Atomic             Coordinates (Angstroms)
 Number     Number       Type             X           Y           Z
 ---------------------------------------------------------------------
      1          1           0        1.343307   -0.018224    1.060833
      2          6           0        1.202757    0.000065   -0.003370
      3         17           0       -0.689143    0.000101   -0.006258
      4          1           0        1.577919   -0.884355   -0.482171
      5          1           0        1.577661    0.900471   -0.452059
 ---------------------------------------------------------------------

 SCF Done:  E(RHF) =  -496.686309298     A.U. after   11 cycles

 The electronic state is 1-A.
 Alpha  occ. eigenvalues -- -104.08804 -11.24990 -10.48195  -7.94568  -7.94164
 Alpha  occ. eigenvalues --   -7.94163  -1.11362  -0.93315  -0.63396  -0.63199
 Alpha  occ. eigenvalues --   -0.51205  -0.43840  -0.43577
 Alpha virt. eigenvalues --    0.16405   0.27346   0.31371   0.31425   0.73867
 Alpha virt. eigenvalues --    0.80206   0.81019   0.85607   0.92685   0.94718
 Alpha virt. eigenvalues --    0.99918   1.30900   1.31185   1.32334   1.91527

 Mulliken charges:
               1
     1  H    0.275479
     2  C   -0.703615
     3  Cl  -0.107081
     4  H    0.267620
     5  H    0.267596
 Sum of Mulliken charges =  -0.00000

 Dipole moment (field-independent basis, Debye):
    X=              2.8564    Y=             -0.0015    Z=              0.0866  Tot=              2.8577
 Quadrupole moment (field-independent basis, Debye-Ang):
   XX=            -18.5597   YY=            -20.1830   ZZ=            -20.2191
   XY=              0.0035   XZ=             -0.2337   YZ=             -0.0002

 Normal termination of Gaussian 16 at Fri Sep 22 17:19:49 2023.
