 Gaussian 16, Revision A.03,
 Gaussian 16:  ES64L-G16RevA.03 25-Dec-2016

 ----------
 # hf/3-21g
 ----------

 ------------------------
 tmpdir/M2_conf_161_8.gjf
 ------------------------
 Symbolic Z-matrix:
 Charge =  0 Multiplicity = 1

                         Standard orientation:
 ---------------------------------------------------------------------
 Center     Atomic      Atomic             Coordinates (Angstroms)
 Number     Number       Type             X           Y           Z
 ---------------------------------------------------------------------
      1          1           0       -1.194694   -0.002287    1.066547
      2          6           0       -1.203820    0.000001   -0.007011
      3         17           0        0.688070    0.000031   -0.011532
      4          1           0       -1.639676   -0.891595   -0.415992
      5          1           0       -1.639907    0.893352   -0.412437
 ---------------------------------------------------------------------

 SCF Done:  E(RHF) =  -496.677371026     A.U. after   11 cycles

 The electronic state is 1-A.
 Alpha  occ. eigenvalues -- -104.08901 -11.24947 -10.48299  -7.94671  -7.94266
 Alpha  occ. eigenvalues --   -7.94262  -1.11609  -0.93251  -0.63705  -0.63164
 Alpha  occ. eigenvalues --   -0.50932  -0.44000  -0.43311
 Alpha virt. eigenvalues --    0.15900   0.27426   0.31404   0.31489   0.73969
 Alpha virt. eigenvalues --    0.79776   0.81032   0.85595   0.92467   0.95615
 Alpha virt. eigenvalues --    1.00672   1.30244   1.31167   1.32330   1.90204

 Mulliken charges:
               1
     1  H    0.280493
     2  C   -0.705377
     3  Cl  -0.107906
     4  H    0.266418
     5  H    0.266372
 Sum of Mulliken charges =  -0.00000

 Dipole moment (field-independent basis, Debye):
    X=             -2.8265    Y=             -0.0005    Z=              0.1703  Tot=              2.8316
 Quadrupole moment (field-independent basis, Debye-Ang):
   XX=            -18.5376   YY=            -20.1832   ZZ=            -20.3280
   XY=             -0.0010   XZ=              0.4302   YZ=              0.0000

 Normal termination of Gaussian 16 at Fri Sep 22 17:18:09 2023.
