 Gaussian 16, Revision A.03,
 Gaussian 16:  ES64L-G16RevA.03 25-Dec-2016

 ----------
 # hf/3-21g
 ----------

 ------------------------
 tmpdir/M2_conf_109_8.gjf
 ------------------------
 Symbolic Z-matrix:
 Charge =  0 Multiplicity = 1

                         Standard orientation:
 ---------------------------------------------------------------------
 Center     Atomic      Atomic             Coordinates (Angstroms)
 Number     Number       Type             X           Y           Z
 ---------------------------------------------------------------------
      1          1           0       -1.617529   -0.018091    0.992487
      2          6           0       -1.202582   -0.000053    0.002481
      3         17           0        0.689314   -0.000083    0.004690
      4          1           0       -1.442603   -0.882423   -0.559651
      5          1           0       -1.442711    0.902237   -0.527452
 ---------------------------------------------------------------------

 SCF Done:  E(RHF) =  -496.687804242     A.U. after   11 cycles

 The electronic state is 1-A.
 Alpha  occ. eigenvalues -- -104.08787 -11.24997 -10.48176  -7.94551  -7.94146
 Alpha  occ. eigenvalues --   -7.94146  -1.11320  -0.93324  -0.63293  -0.63256
 Alpha  occ. eigenvalues --   -0.51253  -0.43765  -0.43667
 Alpha virt. eigenvalues --    0.16488   0.27330   0.31362   0.31421   0.73846
 Alpha virt. eigenvalues --    0.80289   0.81048   0.85589   0.92836   0.94377
 Alpha virt. eigenvalues --    0.99843   1.30933   1.31277   1.32352   1.91775

 Mulliken charges:
               1
     1  H    0.266059
     2  C   -0.703486
     3  Cl  -0.106845
     4  H    0.272159
     5  H    0.272111
 Sum of Mulliken charges =  -0.00000

 Dipole moment (field-independent basis, Debye):
    X=             -2.8614    Y=              0.0010    Z=             -0.0602  Tot=              2.8620
 Quadrupole moment (field-independent basis, Debye-Ang):
   XX=            -18.5640   YY=            -20.1785   ZZ=            -20.2046
   XY=              0.0033   XZ=             -0.1756   YZ=              0.0001

 Normal termination of Gaussian 16 at Fri Sep 22 17:16:50 2023.
