 Gaussian 16, Revision A.03,
 Gaussian 16:  ES64L-G16RevA.03 25-Dec-2016

 ----------
 # hf/3-21g
 ----------

 -----------------------
 tmpdir/M2_conf_65_9.gjf
 -----------------------
 Symbolic Z-matrix:
 Charge =  0 Multiplicity = 1

                         Standard orientation:
 ---------------------------------------------------------------------
 Center     Atomic      Atomic             Coordinates (Angstroms)
 Number     Number       Type             X           Y           Z
 ---------------------------------------------------------------------
      1          1           0        1.467909   -0.346132    0.980199
      2          6           0        1.202373    0.000252   -0.000682
      3         17           0       -0.689523    0.000459   -0.001324
      4          1           0        1.520039   -0.673281   -0.773753
      5          1           0        1.519711    1.010104   -0.179846
 ---------------------------------------------------------------------

 SCF Done:  E(RHF) =  -496.689332468     A.U. after   11 cycles

 The electronic state is 1-A.
 Alpha  occ. eigenvalues -- -104.08774 -11.25001 -10.48163  -7.94538  -7.94134
 Alpha  occ. eigenvalues --   -7.94134  -1.11284  -0.93336  -0.63261  -0.63233
 Alpha  occ. eigenvalues --   -0.51318  -0.43748  -0.43704
 Alpha virt. eigenvalues --    0.16596   0.27332   0.31371   0.31387   0.73827
 Alpha virt. eigenvalues --    0.80575   0.80784   0.85505   0.93423   0.93899
 Alpha virt. eigenvalues --    0.99549   1.31214   1.31220   1.32208   1.91986

 Mulliken charges:
               1
     1  H    0.271092
     2  C   -0.702674
     3  Cl  -0.107041
     4  H    0.269323
     5  H    0.269300
 Sum of Mulliken charges =   0.00000

 Dipole moment (field-independent basis, Debye):
    X=              2.8658    Y=             -0.0062    Z=              0.0175  Tot=              2.8659
 Quadrupole moment (field-independent basis, Debye-Ang):
   XX=            -18.5695   YY=            -20.1809   ZZ=            -20.1821
   XY=              0.0169   XZ=             -0.0497   YZ=             -0.0005

 Normal termination of Gaussian 16 at Fri Sep 22 17:15:44 2023.
