 Gaussian 16, Revision A.03,
 Gaussian 16:  ES64L-G16RevA.03 25-Dec-2016

 ----------
 # hf/3-21g
 ----------

 ------------------------
 tmpdir/M2_conf_191_7.gjf
 ------------------------
 Symbolic Z-matrix:
 Charge =  0 Multiplicity = 1

                         Standard orientation:
 ---------------------------------------------------------------------
 Center     Atomic      Atomic             Coordinates (Angstroms)
 Number     Number       Type             X           Y           Z
 ---------------------------------------------------------------------
      1          1           0       -0.331037    0.974740   -0.346073
      2          6           0       -0.032803    0.001342   -0.005235
      3          1           0       -0.227941   -0.790828   -0.703083
      4          1           0       -0.422486   -0.230429    0.967701
      5          1           0        1.178285    0.038466    0.112864
 ---------------------------------------------------------------------

 SCF Done:  E(RHF) =  -39.9666884951     A.U. after    9 cycles

 The electronic state is 1-A.
 Alpha  occ. eigenvalues --  -11.15729  -0.93778  -0.56005  -0.55363  -0.50173
 Alpha virt. eigenvalues --    0.28326   0.32173   0.35568   0.35828   0.91636
 Alpha virt. eigenvalues --    0.92304   0.97557   1.25118   1.32325   1.36676
 Alpha virt. eigenvalues --    1.37301   1.94666

 Mulliken charges:
               1
     1  H    0.207028
     2  C   -0.771089
     3  H    0.206830
     4  H    0.206308
     5  H    0.150924
 Sum of Mulliken charges =  -0.00000

 Dipole moment (field-independent basis, Debye):
    X=             -0.0657    Y=             -0.0119    Z=              0.0005  Tot=              0.0667
 Quadrupole moment (field-independent basis, Debye-Ang):
   XX=             -8.6685   YY=             -8.3289   ZZ=             -8.4432
   XY=             -0.0187   XZ=             -0.0464   YZ=             -0.0026

 Normal termination of Gaussian 16 at Fri Sep 22 17:18:59 2023.
