 Gaussian 16, Revision A.03,
 Gaussian 16:  ES64L-G16RevA.03 25-Dec-2016

 ----------
 # hf/3-21g
 ----------

 ------------------------
 tmpdir/M2_conf_163_0.gjf
 ------------------------
 Symbolic Z-matrix:
 Charge =  0 Multiplicity = 1

                         Standard orientation:
 ---------------------------------------------------------------------
 Center     Atomic      Atomic             Coordinates (Angstroms)
 Number     Number       Type             X           Y           Z
 ---------------------------------------------------------------------
      1          6           0       -0.031311   -0.002254   -0.000055
      2          1           0       -0.379018    1.023119   -0.012911
      3          1           0       -0.306411   -0.540526   -0.887301
      4          1           0       -0.311655   -0.519550    0.897952
      5          1           0        1.184948    0.050478    0.002589
 ---------------------------------------------------------------------

 SCF Done:  E(RHF) =  -39.9669728673     A.U. after    9 cycles

 The electronic state is 1-A.
 Alpha  occ. eigenvalues --  -11.15835  -0.93672  -0.55651  -0.55435  -0.50264
 Alpha virt. eigenvalues --    0.28284   0.32166   0.35497   0.35686   0.91903
 Alpha virt. eigenvalues --    0.92324   0.97678   1.25020   1.32055   1.36387
 Alpha virt. eigenvalues --    1.36915   1.94536

 Mulliken charges:
               1
     1  C   -0.769344
     2  H    0.204068
     3  H    0.206766
     4  H    0.206762
     5  H    0.151748
 Sum of Mulliken charges =   0.00000

 Dipole moment (field-independent basis, Debye):
    X=             -0.0679    Y=             -0.0085    Z=             -0.0001  Tot=              0.0685
 Quadrupole moment (field-independent basis, Debye-Ang):
   XX=             -8.6650   YY=             -8.3937   ZZ=             -8.3992
   XY=             -0.0134   XZ=             -0.0012   YZ=              0.0002

 Normal termination of Gaussian 16 at Fri Sep 22 17:18:11 2023.
