 Gaussian 16, Revision A.03,
 Gaussian 16:  ES64L-G16RevA.03 25-Dec-2016

 ----------
 # hf/3-21g
 ----------

 ------------------------
 tmpdir/M2_conf_299_1.gjf
 ------------------------
 Symbolic Z-matrix:
 Charge =  0 Multiplicity = 1

                         Standard orientation:
 ---------------------------------------------------------------------
 Center     Atomic      Atomic             Coordinates (Angstroms)
 Number     Number       Type             X           Y           Z
 ---------------------------------------------------------------------
      1          6           0       -0.030161   -0.007224    0.000059
      2          1           0       -0.494953    0.989851   -0.005388
      3          1           0       -0.248068   -0.557124    0.895775
      4          1           0       -0.249044   -0.567605   -0.889137
      5          1           0        1.173028    0.178222   -0.001601
 ---------------------------------------------------------------------

 SCF Done:  E(RHF) =  -39.9667079666     A.U. after    9 cycles

 The electronic state is 1-A.
 Alpha  occ. eigenvalues --  -11.16035  -0.93493  -0.55678  -0.55074  -0.50249
 Alpha virt. eigenvalues --    0.28214   0.32030   0.35168   0.35687   0.91853
 Alpha virt. eigenvalues --    0.93058   0.97783   1.24923   1.31161   1.35611
 Alpha virt. eigenvalues --    1.36879   1.94336

 Mulliken charges:
               1
     1  C   -0.766768
     2  H    0.199543
     3  H    0.207416
     4  H    0.207361
     5  H    0.152447
 Sum of Mulliken charges =  -0.00000

 Dipole moment (field-independent basis, Debye):
    X=             -0.0601    Y=             -0.0259    Z=              0.0003  Tot=              0.0654
 Quadrupole moment (field-independent basis, Debye-Ang):
   XX=             -8.6737   YY=             -8.4038   ZZ=             -8.4166
   XY=             -0.0460   XZ=              0.0004   YZ=              0.0002

 Normal termination of Gaussian 16 at Fri Sep 22 17:21:47 2023.
