 Gaussian 16, Revision A.03,
 Gaussian 16:  ES64L-G16RevA.03 25-Dec-2016

 ----------
 # hf/3-21g
 ----------

 -----------------------
 tmpdir/M2_conf_20_3.gjf
 -----------------------
 Symbolic Z-matrix:
 Charge =  0 Multiplicity = 1

                         Standard orientation:
 ---------------------------------------------------------------------
 Center     Atomic      Atomic             Coordinates (Angstroms)
 Number     Number       Type             X           Y           Z
 ---------------------------------------------------------------------
      1          6           0       -1.257999    0.000018    0.000010
      2         17           0        0.719001   -0.000014   -0.000003
      3          1           0       -1.558367   -0.278184    0.992269
      4          1           0       -1.558044    0.998730   -0.255257
      5          1           0       -1.558616   -0.720422   -0.737021
 ---------------------------------------------------------------------

 SCF Done:  E(RHF) =  -496.687321465     A.U. after   10 cycles

 The electronic state is 1-A.
 Alpha  occ. eigenvalues -- -104.08747 -11.25919 -10.47928  -7.94287  -7.93921
 Alpha  occ. eigenvalues --   -7.93921  -1.09327  -0.94179  -0.63173  -0.63168
 Alpha  occ. eigenvalues --   -0.49855  -0.43613  -0.43613
 Alpha virt. eigenvalues --    0.13780   0.26995   0.31278   0.31281   0.73651
 Alpha virt. eigenvalues --    0.80278   0.80282   0.85556   0.93644   0.93655
 Alpha virt. eigenvalues --    1.01613   1.30830   1.30839   1.31200   1.89283

 Mulliken charges:
               1
     1  C   -0.650325
     2  Cl  -0.159423
     3  H    0.269939
     4  H    0.269919
     5  H    0.269890
 Sum of Mulliken charges =  -0.00000

 Dipole moment (field-independent basis, Debye):
    X=             -3.1670    Y=              0.0001    Z=              0.0001  Tot=              3.1670
 Quadrupole moment (field-independent basis, Debye-Ang):
   XX=            -18.0267   YY=            -20.2487   ZZ=            -20.2500
   XY=              0.0007   XZ=             -0.0001   YZ=             -0.0001

 Normal termination of Gaussian 16 at Fri Sep 22 17:14:37 2023.
