 Gaussian 16, Revision A.03,
 Gaussian 16:  ES64L-G16RevA.03 25-Dec-2016

 ----------
 # hf/3-21g
 ----------

 ------------------------
 tmpdir/M2_conf_131_5.gjf
 ------------------------
 Symbolic Z-matrix:
 Charge =  0 Multiplicity = 1

                         Standard orientation:
 ---------------------------------------------------------------------
 Center     Atomic      Atomic             Coordinates (Angstroms)
 Number     Number       Type             X           Y           Z
 ---------------------------------------------------------------------
      1          1           0        1.048963    0.072133   -0.326603
      2          6           0        0.024019   -0.028974   -0.024186
      3          1           0       -0.771110   -0.278726   -0.700949
      4          1           0       -0.094000   -0.690895    0.812797
      5          1           0       -0.327968    1.071329    0.359870
 ---------------------------------------------------------------------

 SCF Done:  E(RHF) =  -39.9618841944     A.U. after    9 cycles

 The electronic state is 1-A.
 Alpha  occ. eigenvalues --  -11.15757  -0.93857  -0.57746  -0.54117  -0.49501
 Alpha virt. eigenvalues --    0.28315   0.31631   0.34998   0.36489   0.90510
 Alpha virt. eigenvalues --    0.94725   0.97317   1.25319   1.31536   1.35648
 Alpha virt. eigenvalues --    1.39189   1.94565

 Mulliken charges:
               1
     1  H    0.211814
     2  C   -0.779054
     3  H    0.211910
     4  H    0.206100
     5  H    0.149230
 Sum of Mulliken charges =  -0.00000

 Dipole moment (field-independent basis, Debye):
    X=             -0.0391    Y=             -0.0655    Z=              0.0209  Tot=              0.0792
 Quadrupole moment (field-independent basis, Debye-Ang):
   XX=             -8.0509   YY=             -8.6503   ZZ=             -8.7630
   XY=              0.1316   XZ=              0.0339   YZ=             -0.1392

 Normal termination of Gaussian 16 at Fri Sep 22 17:17:23 2023.
