 Gaussian 16, Revision A.03,
 Gaussian 16:  ES64L-G16RevA.03 25-Dec-2016

 ----------
 # hf/3-21g
 ----------

 ------------------------
 tmpdir/M2_conf_172_6.gjf
 ------------------------
 Symbolic Z-matrix:
 Charge =  0 Multiplicity = 1

                         Standard orientation:
 ---------------------------------------------------------------------
 Center     Atomic      Atomic             Coordinates (Angstroms)
 Number     Number       Type             X           Y           Z
 ---------------------------------------------------------------------
      1          1           0       -1.149047   -0.002454    1.063598
      2          6           0       -1.204284    0.000034   -0.008377
      3         17           0        0.687615    0.000021   -0.012991
      4          1           0       -1.657163    0.893638   -0.394363
      5          1           0       -1.657537   -0.891738   -0.398137
 ---------------------------------------------------------------------

 SCF Done:  E(RHF) =  -496.673330090     A.U. after   11 cycles

 The electronic state is 1-A.
 Alpha  occ. eigenvalues -- -104.08947 -11.24923 -10.48351  -7.94722  -7.94316
 Alpha  occ. eigenvalues --   -7.94311  -1.11727  -0.93223  -0.63827  -0.63154
 Alpha  occ. eigenvalues --   -0.50833  -0.44065  -0.43193
 Alpha virt. eigenvalues --    0.15690   0.27475   0.31419   0.31512   0.74008
 Alpha virt. eigenvalues --    0.79645   0.80986   0.85512   0.92570   0.95887
 Alpha virt. eigenvalues --    1.00929   1.29981   1.31165   1.32299   1.89645

 Mulliken charges:
               1
     1  H    0.282001
     2  C   -0.705963
     3  Cl  -0.108433
     4  H    0.266205
     5  H    0.266190
 Sum of Mulliken charges =  -0.00000

 Dipole moment (field-independent basis, Debye):
    X=             -2.8123    Y=             -0.0004    Z=              0.1970  Tot=              2.8192
 Quadrupole moment (field-independent basis, Debye-Ang):
   XX=            -18.5301   YY=            -20.1813   ZZ=            -20.3765
   XY=             -0.0007   XZ=              0.4835   YZ=             -0.0001

 Normal termination of Gaussian 16 at Fri Sep 22 17:18:25 2023.
