 Gaussian 16, Revision A.03,
 Gaussian 16:  ES64L-G16RevA.03 25-Dec-2016

 ----------
 # hf/3-21g
 ----------

 -----------------------
 tmpdir/M2_conf_71_4.gjf
 -----------------------
 Symbolic Z-matrix:
 Charge =  0 Multiplicity = 1

                         Standard orientation:
 ---------------------------------------------------------------------
 Center     Atomic      Atomic             Coordinates (Angstroms)
 Number     Number       Type             X           Y           Z
 ---------------------------------------------------------------------
      1          1           0       -0.330423    0.961572   -0.373602
      2          6           0       -0.031873    0.000199   -0.001018
      3          1           0       -0.311280   -0.804520   -0.654452
      4          1           0       -0.352308   -0.165779    1.010108
      5          1           0        1.185251    0.007532    0.024054
 ---------------------------------------------------------------------

 SCF Done:  E(RHF) =  -39.9669217618     A.U. after    9 cycles

 The electronic state is 1-A.
 Alpha  occ. eigenvalues --  -11.15726  -0.93776  -0.55701  -0.55589  -0.50254
 Alpha virt. eigenvalues --    0.28320   0.32222   0.35665   0.35713   0.91874
 Alpha virt. eigenvalues --    0.91976   0.97623   1.25076   1.32433   1.36889
 Alpha virt. eigenvalues --    1.37006   1.94654

 Mulliken charges:
               1
     1  H    0.206572
     2  C   -0.770723
     3  H    0.206482
     4  H    0.206388
     5  H    0.151281
 Sum of Mulliken charges =   0.00000

 Dipole moment (field-independent basis, Debye):
    X=             -0.0700    Y=             -0.0019    Z=             -0.0003  Tot=              0.0700
 Quadrupole moment (field-independent basis, Debye-Ang):
   XX=             -8.6599   YY=             -8.3800   ZZ=             -8.3983
   XY=             -0.0037   XZ=             -0.0099   YZ=             -0.0004

 Normal termination of Gaussian 16 at Fri Sep 22 17:15:53 2023.
