 Gaussian 16, Revision A.03,
 Gaussian 16:  ES64L-G16RevA.03 25-Dec-2016

 ----------
 # hf/3-21g
 ----------

 ------------------------
 tmpdir/M2_conf_293_6.gjf
 ------------------------
 Symbolic Z-matrix:
 Charge =  0 Multiplicity = 1

                         Standard orientation:
 ---------------------------------------------------------------------
 Center     Atomic      Atomic             Coordinates (Angstroms)
 Number     Number       Type             X           Y           Z
 ---------------------------------------------------------------------
      1          1           0       -1.336565   -0.008681    1.061485
      2          6           0       -1.202789    0.000046   -0.003510
      3         17           0        0.689105    0.000042   -0.006511
      4          1           0       -1.580522    0.896505   -0.457704
      5          1           0       -1.580960   -0.888818   -0.472036
 ---------------------------------------------------------------------

 SCF Done:  E(RHF) =  -496.686035289     A.U. after   11 cycles

 The electronic state is 1-A.
 Alpha  occ. eigenvalues -- -104.08806 -11.24989 -10.48197  -7.94571  -7.94167
 Alpha  occ. eigenvalues --   -7.94166  -1.11369  -0.93312  -0.63407  -0.63197
 Alpha  occ. eigenvalues --   -0.51196  -0.43846  -0.43569
 Alpha virt. eigenvalues --    0.16389   0.27349   0.31373   0.31425   0.73871
 Alpha virt. eigenvalues --    0.80188   0.81025   0.85613   0.92648   0.94769
 Alpha virt. eigenvalues --    0.99947   1.30866   1.31177   1.32355   1.91486

 Mulliken charges:
               1
     1  H    0.275761
     2  C   -0.703696
     3  Cl  -0.107100
     4  H    0.267527
     5  H    0.267508
 Sum of Mulliken charges =  -0.00000

 Dipole moment (field-independent basis, Debye):
    X=             -2.8555    Y=             -0.0007    Z=              0.0905  Tot=              2.8569
 Quadrupole moment (field-independent basis, Debye-Ang):
   XX=            -18.5590   YY=            -20.1824   ZZ=            -20.2231
   XY=             -0.0015   XZ=              0.2428   YZ=             -0.0002

 Normal termination of Gaussian 16 at Fri Sep 22 17:21:38 2023.
