 Gaussian 16, Revision A.03,
 Gaussian 16:  ES64L-G16RevA.03 25-Dec-2016

 ----------
 # hf/3-21g
 ----------

 ------------------------
 tmpdir/M2_conf_159_2.gjf
 ------------------------
 Symbolic Z-matrix:
 Charge =  0 Multiplicity = 1

                         Standard orientation:
 ---------------------------------------------------------------------
 Center     Atomic      Atomic             Coordinates (Angstroms)
 Number     Number       Type             X           Y           Z
 ---------------------------------------------------------------------
      1          6           0        0.005698   -0.029973   -0.000016
      2          1           0        1.149718    0.299423   -0.002288
      3          1           0       -0.267101   -0.559732    0.892809
      4          1           0       -0.271576   -0.558640   -0.892346
      5          1           0       -0.645228    0.998788    0.001919
 ---------------------------------------------------------------------

 SCF Done:  E(RHF) =  -39.9601707213     A.U. after    9 cycles

 The electronic state is 1-A.
 Alpha  occ. eigenvalues --  -11.17073  -0.92714  -0.55848  -0.53316  -0.50041
 Alpha virt. eigenvalues --    0.27574   0.30947   0.33964   0.35685   0.91676
 Alpha virt. eigenvalues --    0.95482   0.99721   1.23462   1.26253   1.33951
 Alpha virt. eigenvalues --    1.36641   1.93324

 Mulliken charges:
               1
     1  C   -0.750226
     2  H    0.174160
     3  H    0.210152
     4  H    0.210101
     5  H    0.155812
 Sum of Mulliken charges =   0.00000

 Dipole moment (field-independent basis, Debye):
    X=             -0.0506    Y=             -0.0737    Z=              0.0002  Tot=              0.0894
 Quadrupole moment (field-independent basis, Debye-Ang):
   XX=             -8.4992   YY=             -8.6770   ZZ=             -8.4992
   XY=              0.1467   XZ=              0.0010   YZ=             -0.0007

 Normal termination of Gaussian 16 at Fri Sep 22 17:18:05 2023.
