 Gaussian 16, Revision A.03,
 Gaussian 16:  ES64L-G16RevA.03 25-Dec-2016

 ----------
 # hf/3-21g
 ----------

 -----------------------
 tmpdir/M2_conf_87_7.gjf
 -----------------------
 Symbolic Z-matrix:
 Charge =  0 Multiplicity = 1

                         Standard orientation:
 ---------------------------------------------------------------------
 Center     Atomic      Atomic             Coordinates (Angstroms)
 Number     Number       Type             X           Y           Z
 ---------------------------------------------------------------------
      1          1           0        0.338157   -0.325517    0.974233
      2          6           0        0.030910    0.002603   -0.000730
      3          1           0        0.382313   -0.658232   -0.770420
      4          1           0        0.278746    1.030573   -0.185200
      5          1           0       -1.184675   -0.062444   -0.014229
 ---------------------------------------------------------------------

 SCF Done:  E(RHF) =  -39.9669886996     A.U. after    9 cycles

 The electronic state is 1-A.
 Alpha  occ. eigenvalues --  -11.15724  -0.93777  -0.55764  -0.55468  -0.50310
 Alpha virt. eigenvalues --    0.28314   0.32252   0.35621   0.35742   0.91764
 Alpha virt. eigenvalues --    0.92040   0.97677   1.25045   1.32505   1.36775
 Alpha virt. eigenvalues --    1.37075   1.94637

 Mulliken charges:
               1
     1  H    0.206183
     2  C   -0.770619
     3  H    0.206295
     4  H    0.206576
     5  H    0.151565
 Sum of Mulliken charges =  -0.00000

 Dipole moment (field-independent basis, Debye):
    X=              0.0732    Y=              0.0009    Z=              0.0054  Tot=              0.0734
 Quadrupole moment (field-independent basis, Debye-Ang):
   XX=             -8.6462   YY=             -8.3721   ZZ=             -8.4184
   XY=             -0.0254   XZ=             -0.0071   YZ=             -0.0001

 Normal termination of Gaussian 16 at Fri Sep 22 17:16:17 2023.
