 Gaussian 16, Revision A.03,
 Gaussian 16:  ES64L-G16RevA.03 25-Dec-2016

 ----------
 # hf/3-21g
 ----------

 -----------------------
 tmpdir/M2_conf_75_5.gjf
 -----------------------
 Symbolic Z-matrix:
 Charge =  0 Multiplicity = 1

                         Standard orientation:
 ---------------------------------------------------------------------
 Center     Atomic      Atomic             Coordinates (Angstroms)
 Number     Number       Type             X           Y           Z
 ---------------------------------------------------------------------
      1          1           0        0.346753    0.969422   -0.348743
      2          6           0        0.033157    0.001403   -0.007006
      3          1           0        0.183080   -0.797766   -0.708049
      4          1           0        0.443971   -0.248380    0.952916
      5          1           0       -1.172746    0.068303    0.145911
 ---------------------------------------------------------------------

 SCF Done:  E(RHF) =  -39.9665358374     A.U. after    9 cycles

 The electronic state is 1-A.
 Alpha  occ. eigenvalues --  -11.15730  -0.93780  -0.56140  -0.55263  -0.50135
 Alpha virt. eigenvalues --    0.28328   0.32149   0.35522   0.35881   0.91549
 Alpha virt. eigenvalues --    0.92441   0.97531   1.25136   1.32277   1.36573
 Alpha virt. eigenvalues --    1.37442   1.94669

 Mulliken charges:
               1
     1  H    0.207325
     2  C   -0.771328
     3  H    0.207027
     4  H    0.206204
     5  H    0.150772
 Sum of Mulliken charges =  -0.00000

 Dipole moment (field-independent basis, Debye):
    X=              0.0636    Y=             -0.0170    Z=              0.0010  Tot=              0.0658
 Quadrupole moment (field-independent basis, Debye-Ang):
   XX=             -8.6690   YY=             -8.3087   ZZ=             -8.4641
   XY=              0.0327   XZ=              0.0594   YZ=             -0.0050

 Normal termination of Gaussian 16 at Fri Sep 22 17:15:59 2023.
