 Gaussian 16, Revision A.03,
 Gaussian 16:  ES64L-G16RevA.03 25-Dec-2016

 ----------
 # hf/3-21g
 ----------

 ----------------------
 tmpdir/M2_conf_0_6.gjf
 ----------------------
 Symbolic Z-matrix:
 Charge =  0 Multiplicity = 1

                         Standard orientation:
 ---------------------------------------------------------------------
 Center     Atomic      Atomic             Coordinates (Angstroms)
 Number     Number       Type             X           Y           Z
 ---------------------------------------------------------------------
      1          1           0       -1.381800   -0.014949    1.055711
      2          6           0       -1.202587    0.000054   -0.002516
      3         17           0        0.689308    0.000056   -0.004790
      4          1           0       -1.560230    0.899437   -0.467074
      5          1           0       -1.560681   -0.885768   -0.492105
 ---------------------------------------------------------------------

 SCF Done:  E(RHF) =  -496.687662929     A.U. after   11 cycles

 The electronic state is 1-A.
 Alpha  occ. eigenvalues -- -104.08790 -11.24995 -10.48180  -7.94554  -7.94150
 Alpha  occ. eigenvalues --   -7.94150  -1.11326  -0.93324  -0.63343  -0.63208
 Alpha  occ. eigenvalues --   -0.51254  -0.43808  -0.43625
 Alpha virt. eigenvalues --    0.16489   0.27339   0.31370   0.31410   0.73849
 Alpha virt. eigenvalues --    0.80320   0.80968   0.85571   0.92867   0.94480
 Alpha virt. eigenvalues --    0.99767   1.31023   1.31187   1.32311   1.91733

 Mulliken charges:
               1
     1  H    0.274177
     2  C   -0.703242
     3  Cl  -0.107040
     4  H    0.268062
     5  H    0.268042
 Sum of Mulliken charges =   0.00000

 Dipole moment (field-independent basis, Debye):
    X=             -2.8607    Y=             -0.0009    Z=              0.0655  Tot=              2.8614
 Quadrupole moment (field-independent basis, Debye-Ang):
   XX=            -18.5640   YY=            -20.1820   ZZ=            -20.2027
   XY=             -0.0020   XZ=              0.1786   YZ=             -0.0002

 Normal termination of Gaussian 16 at Fri Sep 22 17:14:07 2023.
