 Gaussian 16, Revision A.03,
 Gaussian 16:  ES64L-G16RevA.03 25-Dec-2016

 ----------
 # hf/3-21g
 ----------

 ------------------------
 tmpdir/M2_conf_127_7.gjf
 ------------------------
 Symbolic Z-matrix:
 Charge =  0 Multiplicity = 1

                         Standard orientation:
 ---------------------------------------------------------------------
 Center     Atomic      Atomic             Coordinates (Angstroms)
 Number     Number       Type             X           Y           Z
 ---------------------------------------------------------------------
      1          1           0       -0.949104    0.423423   -0.344339
      2          6           0       -0.028294   -0.021149   -0.017108
      3          1           0        0.568628   -0.577673   -0.714667
      4          1           0       -0.151943   -0.619760    0.865247
      5          1           0        0.702181    0.900901    0.296405
 ---------------------------------------------------------------------

 SCF Done:  E(RHF) =  -39.9646474339     A.U. after    9 cycles

 The electronic state is 1-A.
 Alpha  occ. eigenvalues --  -11.15743  -0.93809  -0.57019  -0.54621  -0.49833
 Alpha virt. eigenvalues --    0.28330   0.31921   0.35231   0.36215   0.90930
 Alpha virt. eigenvalues --    0.93584   0.97393   1.25248   1.31888   1.36032
 Alpha virt. eigenvalues --    1.38362   1.94636

 Mulliken charges:
               1
     1  H    0.209342
     2  C   -0.774380
     3  H    0.209072
     4  H    0.206098
     5  H    0.149869
 Sum of Mulliken charges =  -0.00000

 Dipole moment (field-independent basis, Debye):
    X=             -0.0056    Y=             -0.0671    Z=              0.0100  Tot=              0.0680
 Quadrupole moment (field-independent basis, Debye-Ang):
   XX=             -8.3174   YY=             -8.5105   ZZ=             -8.6243
   XY=             -0.2428   XZ=             -0.0694   YZ=             -0.0972

 Normal termination of Gaussian 16 at Fri Sep 22 17:17:17 2023.
