 Gaussian 16, Revision A.03,
 Gaussian 16:  ES64L-G16RevA.03 25-Dec-2016

 ----------
 # hf/3-21g
 ----------

 ------------------------
 tmpdir/M2_conf_191_9.gjf
 ------------------------
 Symbolic Z-matrix:
 Charge =  0 Multiplicity = 1

                         Standard orientation:
 ---------------------------------------------------------------------
 Center     Atomic      Atomic             Coordinates (Angstroms)
 Number     Number       Type             X           Y           Z
 ---------------------------------------------------------------------
      1          1           0        1.016532   -0.002198    1.043779
      2          6           0        1.205971    0.000025   -0.012973
      3         17           0       -0.685925    0.000034   -0.016710
      4          1           0        1.704214   -0.891804   -0.342505
      5          1           0        1.704151    0.893274   -0.339360
 ---------------------------------------------------------------------

 SCF Done:  E(RHF) =  -496.657596395     A.U. after   11 cycles

 The electronic state is 1-A.
 Alpha  occ. eigenvalues -- -104.09143 -11.24804 -10.48572  -7.94939  -7.94530
 Alpha  occ. eigenvalues --   -7.94519  -1.12215  -0.93110  -0.64268  -0.63109
 Alpha  occ. eigenvalues --   -0.50559  -0.44316  -0.42711
 Alpha virt. eigenvalues --    0.14955   0.27702   0.31490   0.31604   0.74117
 Alpha virt. eigenvalues --    0.79241   0.80789   0.85116   0.93226   0.96586
 Alpha virt. eigenvalues --    1.01676   1.29112   1.31207   1.32027   1.87676

 Mulliken charges:
               1
     1  H    0.286039
     2  C   -0.707745
     3  Cl  -0.110601
     4  H    0.266168
     5  H    0.266138
 Sum of Mulliken charges =  -0.00000

 Dipole moment (field-independent basis, Debye):
    X=              2.7518    Y=             -0.0006    Z=              0.2757  Tot=              2.7656
 Quadrupole moment (field-independent basis, Debye-Ang):
   XX=            -18.5141   YY=            -20.1763   ZZ=            -20.5492
   XY=              0.0011   XZ=             -0.6184   YZ=             -0.0001

 Normal termination of Gaussian 16 at Fri Sep 22 17:18:59 2023.
