 Gaussian 16, Revision A.03,
 Gaussian 16:  ES64L-G16RevA.03 25-Dec-2016

 ----------
 # hf/3-21g
 ----------

 ------------------------
 tmpdir/M2_conf_183_4.gjf
 ------------------------
 Symbolic Z-matrix:
 Charge =  0 Multiplicity = 1

                         Standard orientation:
 ---------------------------------------------------------------------
 Center     Atomic      Atomic             Coordinates (Angstroms)
 Number     Number       Type             X           Y           Z
 ---------------------------------------------------------------------
      1          1           0       -0.570236    0.862078   -0.350994
      2          6           0       -0.034108   -0.004406   -0.013413
      3          1           0        0.119953   -0.801300   -0.716150
      4          1           0       -0.437360   -0.408145    0.895975
      5          1           0        1.092291    0.373800    0.251649
 ---------------------------------------------------------------------

 SCF Done:  E(RHF) =  -39.9655931215     A.U. after    9 cycles

 The electronic state is 1-A.
 Alpha  occ. eigenvalues --  -11.15738  -0.93794  -0.56667  -0.54875  -0.49966
 Alpha virt. eigenvalues --    0.28332   0.32028   0.35345   0.36083   0.91174
 Alpha virt. eigenvalues --    0.93085   0.97443   1.25204   1.32058   1.36229
 Alpha virt. eigenvalues --    1.37986   1.94658

 Mulliken charges:
               1
     1  H    0.208454
     2  C   -0.772825
     3  H    0.208090
     4  H    0.206067
     5  H    0.150214
 Sum of Mulliken charges =   0.00000

 Dipole moment (field-independent basis, Debye):
    X=             -0.0472    Y=             -0.0449    Z=              0.0053  Tot=              0.0654
 Quadrupole moment (field-independent basis, Debye-Ang):
   XX=             -8.6093   YY=             -8.2800   ZZ=             -8.5583
   XY=             -0.1599   XZ=             -0.0952   YZ=             -0.0364

 Normal termination of Gaussian 16 at Fri Sep 22 17:18:42 2023.
