 Gaussian 16, Revision A.03,
 Gaussian 16:  ES64L-G16RevA.03 25-Dec-2016

 ----------
 # hf/3-21g
 ----------

 ------------------------
 tmpdir/M2_conf_155_0.gjf
 ------------------------
 Symbolic Z-matrix:
 Charge =  0 Multiplicity = 1

                         Standard orientation:
 ---------------------------------------------------------------------
 Center     Atomic      Atomic             Coordinates (Angstroms)
 Number     Number       Type             X           Y           Z
 ---------------------------------------------------------------------
      1          6           0        0.011089   -0.028285    0.000056
      2          1           0        1.090006    0.418584    0.001309
      3          1           0       -0.204619   -0.583657    0.893173
      4          1           0       -0.201038   -0.586385   -0.892205
      5          1           0       -0.750881    0.921171   -0.002614
 ---------------------------------------------------------------------

 SCF Done:  E(RHF) =  -39.9624980445     A.U. after    9 cycles

 The electronic state is 1-A.
 Alpha  occ. eigenvalues --  -11.16819  -0.92882  -0.55802  -0.53716  -0.50125
 Alpha virt. eigenvalues --    0.27792   0.31262   0.34177   0.35684   0.91726
 Alpha virt. eigenvalues --    0.95150   0.98977   1.24122   1.27147   1.34190
 Alpha virt. eigenvalues --    1.36697   1.93579

 Mulliken charges:
               1
     1  C   -0.754784
     2  H    0.180774
     3  H    0.209490
     4  H    0.209488
     5  H    0.155032
 Sum of Mulliken charges =   0.00000

 Dipole moment (field-independent basis, Debye):
    X=             -0.0233    Y=             -0.0734    Z=              0.0001  Tot=              0.0770
 Quadrupole moment (field-independent basis, Debye-Ang):
   XX=             -8.5275   YY=             -8.6255   ZZ=             -8.4789
   XY=              0.1567   XZ=             -0.0010   YZ=              0.0008

 Normal termination of Gaussian 16 at Fri Sep 22 17:17:59 2023.
