 Gaussian 16, Revision A.03,
 Gaussian 16:  ES64L-G16RevA.03 25-Dec-2016

 ----------
 # hf/3-21g
 ----------

 ------------------------
 tmpdir/M2_conf_237_0.gjf
 ------------------------
 Symbolic Z-matrix:
 Charge =  0 Multiplicity = 1

                         Standard orientation:
 ---------------------------------------------------------------------
 Center     Atomic      Atomic             Coordinates (Angstroms)
 Number     Number       Type             X           Y           Z
 ---------------------------------------------------------------------
      1          6           0       -0.032098    0.000056    0.005605
      2          1           0       -0.236858   -0.003812    1.029423
      3          1           0       -0.373147    0.895731   -0.478209
      4          1           0       -0.378184   -0.889631   -0.485604
      5          1           0        1.180779   -0.002623   -0.099242
 ---------------------------------------------------------------------

 SCF Done:  E(RHF) =  -39.9660331517     A.U. after    9 cycles

 The electronic state is 1-A.
 Alpha  occ. eigenvalues --  -11.15383  -0.94123  -0.56276  -0.55593  -0.50282
 Alpha virt. eigenvalues --    0.28409   0.32395   0.35684   0.36320   0.90588
 Alpha virt. eigenvalues --    0.91993   0.97567   1.25195   1.33314   1.37000
 Alpha virt. eigenvalues --    1.39232   1.95034

 Mulliken charges:
               1
     1  C   -0.774482
     2  H    0.213745
     3  H    0.205320
     4  H    0.205315
     5  H    0.150103
 Sum of Mulliken charges =   0.00000

 Dipole moment (field-independent basis, Debye):
    X=             -0.0769    Y=              0.0001    Z=              0.0235  Tot=              0.0804
 Quadrupole moment (field-independent basis, Debye-Ang):
   XX=             -8.6269   YY=             -8.3610   ZZ=             -8.3859
   XY=              0.0012   XZ=              0.0252   YZ=             -0.0004

 Normal termination of Gaussian 16 at Fri Sep 22 17:20:08 2023.
