 Gaussian 16, Revision A.03,
 Gaussian 16:  ES64L-G16RevA.03 25-Dec-2016

 ----------
 # hf/3-21g
 ----------

 -----------------------
 tmpdir/M2_conf_11_5.gjf
 -----------------------
 Symbolic Z-matrix:
 Charge =  0 Multiplicity = 1

                         Standard orientation:
 ---------------------------------------------------------------------
 Center     Atomic      Atomic             Coordinates (Angstroms)
 Number     Number       Type             X           Y           Z
 ---------------------------------------------------------------------
      1          1           0        0.335682    0.972799   -0.347076
      2          6           0        0.032864    0.001304   -0.005483
      3          1           0        0.220395   -0.792870   -0.703155
      4          1           0        0.424326   -0.232944    0.966368
      5          1           0       -1.177587    0.045194    0.116761
 ---------------------------------------------------------------------

 SCF Done:  E(RHF) =  -39.9666707984     A.U. after    9 cycles

 The electronic state is 1-A.
 Alpha  occ. eigenvalues --  -11.15729  -0.93778  -0.56025  -0.55348  -0.50168
 Alpha virt. eigenvalues --    0.28326   0.32170   0.35560   0.35837   0.91633
 Alpha virt. eigenvalues --    0.92313   0.97553   1.25121   1.32320   1.36653
 Alpha virt. eigenvalues --    1.37326   1.94667

 Mulliken charges:
               1
     1  H    0.207113
     2  C   -0.771116
     3  H    0.206854
     4  H    0.206247
     5  H    0.150902
 Sum of Mulliken charges =  -0.00000

 Dipole moment (field-independent basis, Debye):
    X=              0.0653    Y=             -0.0127    Z=              0.0005  Tot=              0.0666
 Quadrupole moment (field-independent basis, Debye-Ang):
   XX=             -8.6688   YY=             -8.3267   ZZ=             -8.4453
   XY=              0.0220   XZ=              0.0477   YZ=             -0.0030

 Normal termination of Gaussian 16 at Fri Sep 22 17:14:23 2023.
