 Gaussian 16, Revision A.03,
 Gaussian 16:  ES64L-G16RevA.03 25-Dec-2016

 ----------
 # hf/3-21g
 ----------

 ------------------------
 tmpdir/M2_conf_159_6.gjf
 ------------------------
 Symbolic Z-matrix:
 Charge =  0 Multiplicity = 1

                         Standard orientation:
 ---------------------------------------------------------------------
 Center     Atomic      Atomic             Coordinates (Angstroms)
 Number     Number       Type             X           Y           Z
 ---------------------------------------------------------------------
      1          1           0       -1.107325   -0.002042    1.059271
      2          6           0       -1.204757    0.000033   -0.009696
      3         17           0        0.687140    0.000019   -0.014251
      4          1           0       -1.672574    0.893454   -0.377876
      5          1           0       -1.672932   -0.891923   -0.380957
 ---------------------------------------------------------------------

 SCF Done:  E(RHF) =  -496.669051461     A.U. after   11 cycles

 The electronic state is 1-A.
 Alpha  occ. eigenvalues -- -104.08998 -11.24895 -10.48408  -7.94778  -7.94371
 Alpha  occ. eigenvalues --   -7.94364  -1.11855  -0.93192  -0.63953  -0.63142
 Alpha  occ. eigenvalues --   -0.50742  -0.44133  -0.43067
 Alpha virt. eigenvalues --    0.15478   0.27532   0.31438   0.31537   0.74044
 Alpha virt. eigenvalues --    0.79522   0.80934   0.85406   0.92734   0.96118
 Alpha virt. eigenvalues --    1.01168   1.29732   1.31171   1.32235   1.89075

 Mulliken charges:
               1
     1  H    0.283312
     2  C   -0.706495
     3  Cl  -0.109021
     4  H    0.266109
     5  H    0.266095
 Sum of Mulliken charges =  -0.00000

 Dipole moment (field-independent basis, Debye):
    X=             -2.7966    Y=             -0.0004    Z=              0.2215  Tot=              2.8054
 Quadrupole moment (field-independent basis, Debye-Ang):
   XX=            -18.5239   YY=            -20.1801   ZZ=            -20.4253
   XY=             -0.0006   XZ=              0.5297   YZ=             -0.0001

 Normal termination of Gaussian 16 at Fri Sep 22 17:18:05 2023.
