 Gaussian 16, Revision A.03,
 Gaussian 16:  ES64L-G16RevA.03 25-Dec-2016

 ----------
 # hf/3-21g
 ----------

 ------------------------
 tmpdir/M2_conf_273_0.gjf
 ------------------------
 Symbolic Z-matrix:
 Charge =  0 Multiplicity = 1

                         Standard orientation:
 ---------------------------------------------------------------------
 Center     Atomic      Atomic             Coordinates (Angstroms)
 Number     Number       Type             X           Y           Z
 ---------------------------------------------------------------------
      1          6           0       -0.031682    0.000061    0.000338
      2          1           0       -0.325691   -0.060791    1.029330
      3          1           0       -0.332366    0.922680   -0.458995
      4          1           0       -0.337545   -0.859517   -0.565505
      5          1           0        1.185697   -0.002737   -0.006857
 ---------------------------------------------------------------------

 SCF Done:  E(RHF) =  -39.9669336310     A.U. after    9 cycles

 The electronic state is 1-A.
 Alpha  occ. eigenvalues --  -11.15708  -0.93793  -0.55670  -0.55634  -0.50271
 Alpha virt. eigenvalues --    0.28323   0.32240   0.35686   0.35719   0.91845
 Alpha virt. eigenvalues --    0.91928   0.97632   1.25075   1.32510   1.36940
 Alpha virt. eigenvalues --    1.37043   1.94668

 Mulliken charges:
               1
     1  C   -0.770889
     2  H    0.206858
     3  H    0.206371
     4  H    0.206367
     5  H    0.151293
 Sum of Mulliken charges =  -0.00000

 Dipole moment (field-independent basis, Debye):
    X=             -0.0712    Y=              0.0001    Z=              0.0015  Tot=              0.0713
 Quadrupole moment (field-independent basis, Debye-Ang):
   XX=             -8.6556   YY=             -8.3885   ZZ=             -8.3905
   XY=              0.0013   XZ=              0.0016   YZ=             -0.0002

 Normal termination of Gaussian 16 at Fri Sep 22 17:21:04 2023.
