 Gaussian 16, Revision A.03,
 Gaussian 16:  ES64L-G16RevA.03 25-Dec-2016

 ----------
 # hf/3-21g
 ----------

 ------------------------
 tmpdir/M2_conf_239_9.gjf
 ------------------------
 Symbolic Z-matrix:
 Charge =  0 Multiplicity = 1

                         Standard orientation:
 ---------------------------------------------------------------------
 Center     Atomic      Atomic             Coordinates (Angstroms)
 Number     Number       Type             X           Y           Z
 ---------------------------------------------------------------------
      1          1           0        0.882841   -0.001340    1.004063
      2          6           0        1.208244    0.000019   -0.019034
      3         17           0       -0.683655    0.000027   -0.019481
      4          1           0        1.744900   -0.892156   -0.280222
      5          1           0        1.744924    0.892923   -0.278462
 ---------------------------------------------------------------------

 SCF Done:  E(RHF) =  -496.634372747     A.U. after   11 cycles

 The electronic state is 1-A.
 Alpha  occ. eigenvalues -- -104.09462 -11.24559 -10.48947  -7.95308  -7.94893
 Alpha  occ. eigenvalues --   -7.94872  -1.13022  -0.92932  -0.64841  -0.63021
 Alpha  occ. eigenvalues --   -0.50413  -0.44701  -0.41912
 Alpha virt. eigenvalues --    0.14043   0.28122   0.31621   0.31736   0.74187
 Alpha virt. eigenvalues --    0.78788   0.80543   0.84694   0.93970   0.97225
 Alpha virt. eigenvalues --    1.02348   1.27829   1.31311   1.31642   1.85363

 Mulliken charges:
               1
     1  H    0.290014
     2  C   -0.710560
     3  Cl  -0.113040
     4  H    0.266809
     5  H    0.266776
 Sum of Mulliken charges =  -0.00000

 Dipole moment (field-independent basis, Debye):
    X=              2.6482    Y=             -0.0005    Z=              0.3608  Tot=              2.6727
 Quadrupole moment (field-independent basis, Debye-Ang):
   XX=            -18.5216   YY=            -20.1628   ZZ=            -20.7760
   XY=              0.0008   XZ=             -0.7082   YZ=             -0.0000

 Normal termination of Gaussian 16 at Fri Sep 22 17:20:11 2023.
