 Gaussian 16, Revision A.03,
 Gaussian 16:  ES64L-G16RevA.03 25-Dec-2016

 ----------
 # hf/3-21g
 ----------

 ------------------------
 tmpdir/M2_conf_278_8.gjf
 ------------------------
 Symbolic Z-matrix:
 Charge =  0 Multiplicity = 1

                         Standard orientation:
 ---------------------------------------------------------------------
 Center     Atomic      Atomic             Coordinates (Angstroms)
 Number     Number       Type             X           Y           Z
 ---------------------------------------------------------------------
      1          1           0       -0.620405   -0.000103    0.857231
      2          6           0       -1.214618   -0.000016   -0.036932
      3         17           0        0.677212    0.000011   -0.020946
      4          1           0       -1.802079   -0.892474   -0.139826
      5          1           0       -1.802419    0.892476   -0.139726
 ---------------------------------------------------------------------

 SCF Done:  E(RHF) =  -496.556683833     A.U. after   12 cycles

 The electronic state is 1-A.
 Alpha  occ. eigenvalues -- -104.10785 -11.23221 -10.50564  -7.96918  -7.96461
 Alpha  occ. eigenvalues --   -7.96406  -1.16463  -0.92209  -0.66461  -0.62490
 Alpha  occ. eigenvalues --   -0.51177  -0.46187  -0.38797
 Alpha virt. eigenvalues --    0.11911   0.29954   0.32307   0.32446   0.73905
 Alpha virt. eigenvalues --    0.77563   0.79990   0.84502   0.93140   0.98283
 Alpha virt. eigenvalues --    1.03528   1.22453   1.31178   1.31994   1.81434

 Mulliken charges:
               1
     1  H    0.295111
     2  C   -0.731803
     3  Cl  -0.102431
     4  H    0.269581
     5  H    0.269542
 Sum of Mulliken charges =   0.00000

 Dipole moment (field-independent basis, Debye):
    X=             -2.1588    Y=             -0.0001    Z=              0.5776  Tot=              2.2347
 Quadrupole moment (field-independent basis, Debye-Ang):
   XX=            -18.7226   YY=            -20.0739   ZZ=            -21.3612
   XY=             -0.0003   XZ=              0.6268   YZ=              0.0000

 Normal termination of Gaussian 16 at Fri Sep 22 17:21:11 2023.
