 Gaussian 16, Revision A.03,
 Gaussian 16:  ES64L-G16RevA.03 25-Dec-2016

 ----------
 # hf/3-21g
 ----------

 ----------------------
 tmpdir/M2_conf_5_8.gjf
 ----------------------
 Symbolic Z-matrix:
 Charge =  0 Multiplicity = 1

                         Standard orientation:
 ---------------------------------------------------------------------
 Center     Atomic      Atomic             Coordinates (Angstroms)
 Number     Number       Type             X           Y           Z
 ---------------------------------------------------------------------
      1          1           0       -1.432211   -0.053984    1.045904
      2          6           0       -1.202443    0.000063   -0.001428
      3         17           0        0.689460    0.000150   -0.002819
      4          1           0       -1.536896   -0.865768   -0.540554
      5          1           0       -1.537062    0.916826   -0.448858
 ---------------------------------------------------------------------

 SCF Done:  E(RHF) =  -496.688865406     A.U. after   11 cycles

 The electronic state is 1-A.
 Alpha  occ. eigenvalues -- -104.08778 -11.24999 -10.48167  -7.94542  -7.94138
 Alpha  occ. eigenvalues --   -7.94138  -1.11295  -0.93333  -0.63291  -0.63221
 Alpha  occ. eigenvalues --   -0.51299  -0.43771  -0.43675
 Alpha virt. eigenvalues --    0.16565   0.27333   0.31369   0.31395   0.73833
 Alpha virt. eigenvalues --    0.80467   0.80874   0.85527   0.93185   0.94136
 Alpha virt. eigenvalues --    0.99615   1.31165   1.31206   1.32238   1.91915

 Mulliken charges:
               1
     1  H    0.272359
     2  C   -0.702838
     3  Cl  -0.107044
     4  H    0.268786
     5  H    0.268738
 Sum of Mulliken charges =  -0.00000

 Dipole moment (field-independent basis, Debye):
    X=             -2.8645    Y=             -0.0021    Z=              0.0377  Tot=              2.8647
 Quadrupole moment (field-independent basis, Debye-Ang):
   XX=            -18.5682   YY=            -20.1823   ZZ=            -20.1866
   XY=             -0.0054   XZ=              0.1056   YZ=             -0.0001

 Normal termination of Gaussian 16 at Fri Sep 22 17:14:15 2023.
