 Gaussian 16, Revision A.03,
 Gaussian 16:  ES64L-G16RevA.03 25-Dec-2016

 ----------
 # hf/3-21g
 ----------

 -----------------------
 tmpdir/M2_conf_16_3.gjf
 -----------------------
 Symbolic Z-matrix:
 Charge =  0 Multiplicity = 1

                         Standard orientation:
 ---------------------------------------------------------------------
 Center     Atomic      Atomic             Coordinates (Angstroms)
 Number     Number       Type             X           Y           Z
 ---------------------------------------------------------------------
      1          6           0       -1.291541    0.000018    0.000010
      2         17           0        0.736759   -0.000013   -0.000003
      3          1           0       -1.591909   -0.278184    0.992268
      4          1           0       -1.591587    0.998729   -0.255258
      5          1           0       -1.592157   -0.720423   -0.737021
 ---------------------------------------------------------------------

 SCF Done:  E(RHF) =  -496.684271911     A.U. after   10 cycles

 The electronic state is 1-A.
 Alpha  occ. eigenvalues -- -104.08680 -11.26464 -10.47754  -7.94106  -7.93760
 Alpha  occ. eigenvalues --   -7.93760  -1.08295  -0.94654  -0.63214  -0.63209
 Alpha  occ. eigenvalues --   -0.48988  -0.43483  -0.43483
 Alpha virt. eigenvalues --    0.12203   0.26797   0.31189   0.31193   0.73568
 Alpha virt. eigenvalues --    0.80030   0.80034   0.85716   0.93652   0.93663
 Alpha virt. eigenvalues --    1.02492   1.30559   1.30567   1.30632   1.87756

 Mulliken charges:
               1
     1  C   -0.620878
     2  Cl  -0.188739
     3  H    0.269894
     4  H    0.269877
     5  H    0.269846
 Sum of Mulliken charges =  -0.00000

 Dipole moment (field-independent basis, Debye):
    X=             -3.3578    Y=              0.0001    Z=              0.0001  Tot=              3.3578
 Quadrupole moment (field-independent basis, Debye-Ang):
   XX=            -17.6874   YY=            -20.2833   ZZ=            -20.2847
   XY=              0.0006   XZ=             -0.0001   YZ=             -0.0001

 Normal termination of Gaussian 16 at Fri Sep 22 17:14:31 2023.
