 Gaussian 16, Revision A.03,
 Gaussian 16:  ES64L-G16RevA.03 25-Dec-2016

 ----------
 # hf/3-21g
 ----------

 -----------------------
 tmpdir/M2_conf_48_9.gjf
 -----------------------
 Symbolic Z-matrix:
 Charge =  0 Multiplicity = 1

                         Standard orientation:
 ---------------------------------------------------------------------
 Center     Atomic      Atomic             Coordinates (Angstroms)
 Number     Number       Type             X           Y           Z
 ---------------------------------------------------------------------
      1          1           0        1.344800   -0.018554    1.060662
      2          6           0        1.202751    0.000065   -0.003336
      3         17           0       -0.689151    0.000102   -0.006202
      4          1           0        1.577260   -0.884195   -0.482943
      5          1           0        1.577000    0.900621   -0.452271
 ---------------------------------------------------------------------

 SCF Done:  E(RHF) =  -496.686368818     A.U. after   11 cycles

 The electronic state is 1-A.
 Alpha  occ. eigenvalues -- -104.08803 -11.24990 -10.48194  -7.94568  -7.94164
 Alpha  occ. eigenvalues --   -7.94163  -1.11360  -0.93315  -0.63393  -0.63200
 Alpha  occ. eigenvalues --   -0.51207  -0.43839  -0.43579
 Alpha virt. eigenvalues --    0.16409   0.27346   0.31371   0.31425   0.73866
 Alpha virt. eigenvalues --    0.80210   0.81018   0.85605   0.92692   0.94709
 Alpha virt. eigenvalues --    0.99912   1.30905   1.31185   1.32333   1.91536

 Mulliken charges:
               1
     1  H    0.275428
     2  C   -0.703598
     3  Cl  -0.107080
     4  H    0.267637
     5  H    0.267613
 Sum of Mulliken charges =  -0.00000

 Dipole moment (field-independent basis, Debye):
    X=              2.8565    Y=             -0.0016    Z=              0.0858  Tot=              2.8578
 Quadrupole moment (field-independent basis, Debye-Ang):
   XX=            -18.5598   YY=            -20.1830   ZZ=            -20.2184
   XY=              0.0036   XZ=             -0.2316   YZ=             -0.0002

 Normal termination of Gaussian 16 at Fri Sep 22 17:15:19 2023.
