 Gaussian 16, Revision A.03,
 Gaussian 16:  ES64L-G16RevA.03 25-Dec-2016

 ----------
 # hf/3-21g
 ----------

 ------------------------
 tmpdir/M2_conf_219_6.gjf
 ------------------------
 Symbolic Z-matrix:
 Charge =  0 Multiplicity = 1

                         Standard orientation:
 ---------------------------------------------------------------------
 Center     Atomic      Atomic             Coordinates (Angstroms)
 Number     Number       Type             X           Y           Z
 ---------------------------------------------------------------------
      1          1           0       -0.937858   -0.001123    1.022709
      2          6           0       -1.207240    0.000029   -0.016339
      3         17           0        0.684661    0.000013   -0.018472
      4          1           0       -1.728824    0.893053   -0.304557
      5          1           0       -1.729111   -0.892327   -0.306100
 ---------------------------------------------------------------------

 SCF Done:  E(RHF) =  -496.644949933     A.U. after   11 cycles

 The electronic state is 1-A.
 Alpha  occ. eigenvalues -- -104.09312 -11.24680 -10.48769  -7.95133  -7.94721
 Alpha  occ. eigenvalues --   -7.94705  -1.12643  -0.93014  -0.64589  -0.63064
 Alpha  occ. eigenvalues --   -0.50446  -0.44522  -0.42289
 Alpha virt. eigenvalues --    0.14436   0.27923   0.31557   0.31672   0.74167
 Alpha virt. eigenvalues --    0.78984   0.80643   0.84851   0.93683   0.96980
 Alpha virt. eigenvalues --    1.02084   1.28416   1.31251   1.31829   1.86335

 Mulliken charges:
               1
     1  H    0.288443
     2  C   -0.709160
     3  Cl  -0.112156
     4  H    0.266442
     5  H    0.266432
 Sum of Mulliken charges =   0.00000

 Dipole moment (field-independent basis, Debye):
    X=             -2.6978    Y=             -0.0003    Z=              0.3250  Tot=              2.7173
 Quadrupole moment (field-independent basis, Debye-Ang):
   XX=            -18.5143   YY=            -20.1690   ZZ=            -20.6770
   XY=             -0.0004   XZ=              0.6776   YZ=             -0.0001

 Normal termination of Gaussian 16 at Fri Sep 22 17:19:41 2023.
