 Gaussian 16, Revision A.03,
 Gaussian 16:  ES64L-G16RevA.03 25-Dec-2016

 ----------
 # hf/3-21g
 ----------

 -----------------------
 tmpdir/M2_conf_55_5.gjf
 -----------------------
 Symbolic Z-matrix:
 Charge =  0 Multiplicity = 1

                         Standard orientation:
 ---------------------------------------------------------------------
 Center     Atomic      Atomic             Coordinates (Angstroms)
 Number     Number       Type             X           Y           Z
 ---------------------------------------------------------------------
      1          1           0       -0.477013   -0.157169    0.940580
      2          6           0       -0.014712    0.022871   -0.011287
      3          1           0       -0.740614   -0.344735   -0.711683
      4          1           0        0.321486    1.036705   -0.119548
      5          1           0        0.984414   -0.672029   -0.041626
 ---------------------------------------------------------------------

 SCF Done:  E(RHF) =  -39.9646201486     A.U. after    9 cycles

 The electronic state is 1-A.
 Alpha  occ. eigenvalues --  -11.15720  -0.93847  -0.57070  -0.53696  -0.50628
 Alpha virt. eigenvalues --    0.28222   0.32338   0.34951   0.36216   0.90525
 Alpha virt. eigenvalues --    0.93357   0.98293   1.24810   1.32704   1.35291
 Alpha virt. eigenvalues --    1.38646   1.94239

 Mulliken charges:
               1
     1  H    0.204467
     2  C   -0.773464
     3  H    0.206713
     4  H    0.208204
     5  H    0.154080
 Sum of Mulliken charges =   0.00000

 Dipole moment (field-independent basis, Debye):
    X=             -0.1035    Y=              0.0229    Z=              0.0578  Tot=              0.1207
 Quadrupole moment (field-independent basis, Debye-Ang):
   XX=             -8.3165   YY=             -8.4048   ZZ=             -8.7141
   XY=              0.2239   XZ=              0.0237   YZ=             -0.0116

 Normal termination of Gaussian 16 at Fri Sep 22 17:15:29 2023.
