 Gaussian 16, Revision A.03,
 Gaussian 16:  ES64L-G16RevA.03 25-Dec-2016

 ----------
 # hf/3-21g
 ----------

 ------------------------
 tmpdir/M2_conf_129_5.gjf
 ------------------------
 Symbolic Z-matrix:
 Charge =  0 Multiplicity = 1

                         Standard orientation:
 ---------------------------------------------------------------------
 Center     Atomic      Atomic             Coordinates (Angstroms)
 Number     Number       Type             X           Y           Z
 ---------------------------------------------------------------------
      1          1           0        0.468027    0.920613   -0.350028
      2          6           0        0.034106   -0.001089   -0.011848
      3          1           0       -0.002199   -0.810467   -0.716262
      4          1           0        0.464445   -0.343903    0.910050
      5          1           0       -1.134907    0.240290    0.227328
 ---------------------------------------------------------------------

 SCF Done:  E(RHF) =  -39.9658813731     A.U. after    9 cycles

 The electronic state is 1-A.
 Alpha  occ. eigenvalues --  -11.15736  -0.93789  -0.56536  -0.54971  -0.50011
 Alpha virt. eigenvalues --    0.28332   0.32062   0.35389   0.36032   0.91266
 Alpha virt. eigenvalues --    0.92914   0.97462   1.25188   1.32116   1.36311
 Alpha virt. eigenvalues --    1.37849   1.94665

 Mulliken charges:
               1
     1  H    0.208147
     2  C   -0.772368
     3  H    0.207776
     4  H    0.206096
     5  H    0.150348
 Sum of Mulliken charges =  -0.00000

 Dipole moment (field-independent basis, Debye):
    X=              0.0542    Y=             -0.0357    Z=              0.0041  Tot=              0.0650
 Quadrupole moment (field-independent basis, Debye-Ang):
   XX=             -8.6464   YY=             -8.2663   ZZ=             -8.5333
   XY=              0.1078   XZ=              0.0896   YZ=             -0.0221

 Normal termination of Gaussian 16 at Fri Sep 22 17:17:20 2023.
