 Gaussian 16, Revision A.03,
 Gaussian 16:  ES64L-G16RevA.03 25-Dec-2016

 ----------
 # hf/3-21g
 ----------

 ------------------------
 tmpdir/M2_conf_194_9.gjf
 ------------------------
 Symbolic Z-matrix:
 Charge =  0 Multiplicity = 1

                         Standard orientation:
 ---------------------------------------------------------------------
 Center     Atomic      Atomic             Coordinates (Angstroms)
 Number     Number       Type             X           Y           Z
 ---------------------------------------------------------------------
      1          1           0        0.901317   -0.001428    1.010800
      2          6           0        1.207897    0.000020   -0.018095
      3         17           0       -0.684006    0.000028   -0.019166
      4          1           0        1.739694   -0.892121   -0.289154
      5          1           0        1.739705    0.892958   -0.287254
 ---------------------------------------------------------------------

 SCF Done:  E(RHF) =  -496.638100544     A.U. after   11 cycles

 The electronic state is 1-A.
 Alpha  occ. eigenvalues -- -104.09408 -11.24603 -10.48883  -7.95245  -7.94831
 Alpha  occ. eigenvalues --   -7.94812  -1.12886  -0.92961  -0.64754  -0.63038
 Alpha  occ. eigenvalues --   -0.50419  -0.44638  -0.42047
 Alpha virt. eigenvalues --    0.14178   0.28049   0.31597   0.31714   0.74182
 Alpha virt. eigenvalues --    0.78855   0.80577   0.84743   0.93883   0.97141
 Alpha virt. eigenvalues --    1.02262   1.28043   1.31291   1.31702   1.85690

 Mulliken charges:
               1
     1  H    0.289473
     2  C   -0.710037
     3  Cl  -0.112767
     4  H    0.266682
     5  H    0.266649
 Sum of Mulliken charges =  -0.00000

 Dipole moment (field-independent basis, Debye):
    X=              2.6661    Y=             -0.0006    Z=              0.3485  Tot=              2.6888
 Quadrupole moment (field-independent basis, Debye-Ang):
   XX=            -18.5182   YY=            -20.1653   ZZ=            -20.7417
   XY=              0.0009   XZ=             -0.6993   YZ=             -0.0000

 Normal termination of Gaussian 16 at Fri Sep 22 17:19:03 2023.
