 Gaussian 16, Revision A.03,
 Gaussian 16:  ES64L-G16RevA.03 25-Dec-2016

 ----------
 # hf/3-21g
 ----------

 -----------------------
 tmpdir/M2_conf_11_8.gjf
 -----------------------
 Symbolic Z-matrix:
 Charge =  0 Multiplicity = 1

                         Standard orientation:
 ---------------------------------------------------------------------
 Center     Atomic      Atomic             Coordinates (Angstroms)
 Number     Number       Type             X           Y           Z
 ---------------------------------------------------------------------
      1          1           0        1.532301   -0.543242   -0.866000
      2          6           0        1.202374   -0.000347   -0.000535
      3         17           0       -0.689522   -0.000636   -0.001021
      4          1           0        1.487600   -0.478051    0.917410
      5          1           0        1.487736    1.034191   -0.030837
 ---------------------------------------------------------------------

 SCF Done:  E(RHF) =  -496.689373453     A.U. after   11 cycles

 The electronic state is 1-A.
 Alpha  occ. eigenvalues -- -104.08773 -11.25001 -10.48162  -7.94537  -7.94133
 Alpha  occ. eigenvalues --   -7.94133  -1.11283  -0.93336  -0.63255  -0.63240
 Alpha  occ. eigenvalues --   -0.51319  -0.43742  -0.43710
 Alpha virt. eigenvalues --    0.16599   0.27332   0.31372   0.31386   0.73826
 Alpha virt. eigenvalues --    0.80588   0.80774   0.85504   0.93449   0.93871
 Alpha virt. eigenvalues --    0.99543   1.31197   1.31240   1.32209   1.91993

 Mulliken charges:
               1
     1  H    0.268857
     2  C   -0.702664
     3  Cl  -0.107051
     4  H    0.270453
     5  H    0.270405
 Sum of Mulliken charges =  -0.00000

 Dipole moment (field-independent basis, Debye):
    X=              2.8660    Y=              0.0083    Z=              0.0135  Tot=              2.8660
 Quadrupole moment (field-independent basis, Debye-Ang):
   XX=            -18.5700   YY=            -20.1805   ZZ=            -20.1817
   XY=             -0.0239   XZ=             -0.0379   YZ=             -0.0005

 Normal termination of Gaussian 16 at Fri Sep 22 17:14:23 2023.
