 Gaussian 16, Revision A.03,
 Gaussian 16:  ES64L-G16RevA.03 25-Dec-2016

 ----------
 # hf/3-21g
 ----------

 -----------------------
 tmpdir/M2_conf_43_4.gjf
 -----------------------
 Symbolic Z-matrix:
 Charge =  0 Multiplicity = 1

                         Standard orientation:
 ---------------------------------------------------------------------
 Center     Atomic      Atomic             Coordinates (Angstroms)
 Number     Number       Type             X           Y           Z
 ---------------------------------------------------------------------
      1          1           0       -0.331196    0.971479   -0.352088
      2          6           0       -0.032552    0.000952   -0.004126
      3          1           0       -0.248176   -0.793406   -0.693418
      4          1           0       -0.406021   -0.215554    0.978854
      5          1           0        1.180706    0.031771    0.091411
 ---------------------------------------------------------------------

 SCF Done:  E(RHF) =  -39.9667741339     A.U. after    9 cycles

 The electronic state is 1-A.
 Alpha  occ. eigenvalues --  -11.15728  -0.93777  -0.55918  -0.55427  -0.50198
 Alpha virt. eigenvalues --    0.28324   0.32189   0.35595   0.35796   0.91712
 Alpha virt. eigenvalues --    0.92198   0.97576   1.25105   1.32359   1.36729
 Alpha virt. eigenvalues --    1.37219   1.94664

 Mulliken charges:
               1
     1  H    0.206923
     2  C   -0.770952
     3  H    0.206718
     4  H    0.206286
     5  H    0.151025
 Sum of Mulliken charges =  -0.00000

 Dipole moment (field-independent basis, Debye):
    X=             -0.0669    Y=             -0.0091    Z=             -0.0002  Tot=              0.0675
 Quadrupole moment (field-independent basis, Debye-Ang):
   XX=             -8.6665   YY=             -8.3442   ZZ=             -8.4292
   XY=             -0.0155   XZ=             -0.0375   YZ=             -0.0019

 Normal termination of Gaussian 16 at Fri Sep 22 17:15:12 2023.
