 Gaussian 16, Revision A.03,
 Gaussian 16:  ES64L-G16RevA.03 25-Dec-2016

 ----------
 # hf/3-21g
 ----------

 ------------------------
 tmpdir/M2_conf_236_6.gjf
 ------------------------
 Symbolic Z-matrix:
 Charge =  0 Multiplicity = 1

                         Standard orientation:
 ---------------------------------------------------------------------
 Center     Atomic      Atomic             Coordinates (Angstroms)
 Number     Number       Type             X           Y           Z
 ---------------------------------------------------------------------
      1          1           0       -1.297362   -0.006062    1.064814
      2          6           0       -1.203015    0.000042   -0.004415
      3         17           0        0.688879    0.000034   -0.007959
      4          1           0       -1.597536    0.895287   -0.446569
      5          1           0       -1.597962   -0.890065   -0.456447
 ---------------------------------------------------------------------

 SCF Done:  E(RHF) =  -496.684193848     A.U. after   11 cycles

 The electronic state is 1-A.
 Alpha  occ. eigenvalues -- -104.08826 -11.24981 -10.48218  -7.94591  -7.94187
 Alpha  occ. eigenvalues --   -7.94185  -1.11419  -0.93299  -0.63475  -0.63188
 Alpha  occ. eigenvalues --   -0.51134  -0.43882  -0.43511
 Alpha virt. eigenvalues --    0.16279   0.27362   0.31378   0.31441   0.73894
 Alpha virt. eigenvalues --    0.80074   0.81050   0.85638   0.92514   0.95014
 Alpha virt. eigenvalues --    1.00128   1.30711   1.31171   1.32377   1.91207

 Mulliken charges:
               1
     1  H    0.277113
     2  C   -0.704139
     3  Cl  -0.107217
     4  H    0.267131
     5  H    0.267112
 Sum of Mulliken charges =   0.00000

 Dipole moment (field-independent basis, Debye):
    X=             -2.8496    Y=             -0.0006    Z=              0.1124  Tot=              2.8518
 Quadrupole moment (field-independent basis, Debye-Ang):
   XX=            -18.5537   YY=            -20.1826   ZZ=            -20.2460
   XY=             -0.0012   XZ=              0.2968   YZ=             -0.0001

 Normal termination of Gaussian 16 at Fri Sep 22 17:20:07 2023.
