 Gaussian 16, Revision A.03,
 Gaussian 16:  ES64L-G16RevA.03 25-Dec-2016

 ----------
 # hf/3-21g
 ----------

 -----------------------
 tmpdir/M2_conf_41_3.gjf
 -----------------------
 Symbolic Z-matrix:
 Charge =  0 Multiplicity = 1

                         Standard orientation:
 ---------------------------------------------------------------------
 Center     Atomic      Atomic             Coordinates (Angstroms)
 Number     Number       Type             X           Y           Z
 ---------------------------------------------------------------------
      1          6           0       -1.193333    0.000020    0.000011
      2         17           0        0.684767   -0.000015   -0.000003
      3          1           0       -1.493701   -0.278182    0.992269
      4          1           0       -1.493377    0.998732   -0.255257
      5          1           0       -1.493952   -0.720420   -0.737021
 ---------------------------------------------------------------------

 SCF Done:  E(RHF) =  -496.689419335     A.U. after   10 cycles

 The electronic state is 1-A.
 Alpha  occ. eigenvalues -- -104.08766 -11.24851 -10.48194  -7.94571  -7.94160
 Alpha  occ. eigenvalues --   -7.94160  -1.11628  -0.93194  -0.63278  -0.63273
 Alpha  occ. eigenvalues --   -0.51565  -0.43731  -0.43731
 Alpha virt. eigenvalues --    0.17088   0.27390   0.31386   0.31390   0.73857
 Alpha virt. eigenvalues --    0.80741   0.80745   0.85499   0.93665   0.93677
 Alpha virt. eigenvalues --    0.99139   1.31279   1.31289   1.32362   1.92465

 Mulliken charges:
               1
     1  C   -0.711427
     2  Cl  -0.098130
     3  H    0.269878
     4  H    0.269853
     5  H    0.269826
 Sum of Mulliken charges =  -0.00000

 Dipole moment (field-independent basis, Debye):
    X=             -2.8195    Y=              0.0001    Z=              0.0001  Tot=              2.8195
 Quadrupole moment (field-independent basis, Debye-Ang):
   XX=            -18.6556   YY=            -20.1673   ZZ=            -20.1685
   XY=              0.0007   XZ=             -0.0001   YZ=             -0.0001

 Normal termination of Gaussian 16 at Fri Sep 22 17:15:09 2023.
