 Gaussian 16, Revision A.03,
 Gaussian 16:  ES64L-G16RevA.03 25-Dec-2016

 ----------
 # hf/3-21g
 ----------

 ------------------------
 tmpdir/M2_conf_185_0.gjf
 ------------------------
 Symbolic Z-matrix:
 Charge =  0 Multiplicity = 1

                         Standard orientation:
 ---------------------------------------------------------------------
 Center     Atomic      Atomic             Coordinates (Angstroms)
 Number     Number       Type             X           Y           Z
 ---------------------------------------------------------------------
      1          6           0        0.022260   -0.020849    0.000056
      2          1           0        0.869138    0.734209    0.001981
      3          1           0        0.001106   -0.616769    0.892836
      4          1           0        0.005999   -0.617179   -0.892541
      5          1           0       -1.009806    0.624832   -0.002612
 ---------------------------------------------------------------------

 SCF Done:  E(RHF) =  -39.9651327738     A.U. after    9 cycles

 The electronic state is 1-A.
 Alpha  occ. eigenvalues --  -11.16438  -0.93160  -0.55740  -0.54357  -0.50204
 Alpha virt. eigenvalues --    0.28033   0.31683   0.34593   0.35686   0.91792
 Alpha virt. eigenvalues --    0.94319   0.98202   1.24642   1.29029   1.34682
 Alpha virt. eigenvalues --    1.36787   1.93947

 Mulliken charges:
               1
     1  C   -0.760983
     2  H    0.190173
     3  H    0.208502
     4  H    0.208500
     5  H    0.153808
 Sum of Mulliken charges =   0.00000

 Dipole moment (field-independent basis, Debye):
    X=              0.0239    Y=             -0.0618    Z=              0.0001  Tot=              0.0662
 Quadrupole moment (field-independent basis, Debye-Ang):
   XX=             -8.6174   YY=             -8.4998   ZZ=             -8.4485
   XY=              0.1418   XZ=             -0.0012   YZ=              0.0004

 Normal termination of Gaussian 16 at Fri Sep 22 17:18:50 2023.
