 Gaussian 16, Revision A.03,
 Gaussian 16:  ES64L-G16RevA.03 25-Dec-2016

 ----------
 # hf/3-21g
 ----------

 ------------------------
 tmpdir/M2_conf_183_2.gjf
 ------------------------
 Symbolic Z-matrix:
 Charge =  0 Multiplicity = 1

                         Standard orientation:
 ---------------------------------------------------------------------
 Center     Atomic      Atomic             Coordinates (Angstroms)
 Number     Number       Type             X           Y           Z
 ---------------------------------------------------------------------
      1          6           0        0.032272    0.000013    0.017206
      2          1           0        0.128612   -0.002077    0.971051
      3          1           0        0.423298   -0.890613   -0.436758
      4          1           0        0.419225    0.894540   -0.433029
      5          1           0       -1.164766   -0.001928   -0.204500
 ---------------------------------------------------------------------

 SCF Done:  E(RHF) =  -39.9540712028     A.U. after    9 cycles

 The electronic state is 1-A.
 Alpha  occ. eigenvalues --  -11.14403  -0.95348  -0.58166  -0.55491  -0.50289
 Alpha virt. eigenvalues --    0.28580   0.32670   0.35680   0.38284   0.86723
 Alpha virt. eigenvalues --    0.92197   0.97588   1.25468   1.34412   1.37148
 Alpha virt. eigenvalues --    1.48630   1.96638

 Mulliken charges:
               1
     1  C   -0.782286
     2  H    0.232578
     3  H    0.201771
     4  H    0.201728
     5  H    0.146210
 Sum of Mulliken charges =  -0.00000

 Dipole moment (field-independent basis, Debye):
    X=              0.0869    Y=             -0.0000    Z=              0.0725  Tot=              0.1131
 Quadrupole moment (field-independent basis, Debye-Ang):
   XX=             -8.5327   YY=             -8.2728   ZZ=             -8.3706
   XY=             -0.0010   XZ=             -0.0484   YZ=             -0.0006

 Normal termination of Gaussian 16 at Fri Sep 22 17:18:43 2023.
