 Gaussian 16, Revision A.03,
 Gaussian 16:  ES64L-G16RevA.03 25-Dec-2016

 ----------
 # hf/3-21g
 ----------

 -----------------------
 tmpdir/M2_conf_78_6.gjf
 -----------------------
 Symbolic Z-matrix:
 Charge =  0 Multiplicity = 1

                         Standard orientation:
 ---------------------------------------------------------------------
 Center     Atomic      Atomic             Coordinates (Angstroms)
 Number     Number       Type             X           Y           Z
 ---------------------------------------------------------------------
      1          1           0       -1.671799   -0.003723    0.969294
      2          6           0       -1.202848    0.000007    0.003758
      3         17           0        0.689049   -0.000040    0.006903
      4          1           0       -1.412218    0.894867   -0.551221
      5          1           0       -1.412736   -0.890501   -0.557981
 ---------------------------------------------------------------------

 SCF Done:  E(RHF) =  -496.685788289     A.U. after   11 cycles

 The electronic state is 1-A.
 Alpha  occ. eigenvalues -- -104.08804 -11.24992 -10.48194  -7.94567  -7.94163
 Alpha  occ. eigenvalues --   -7.94163  -1.11367  -0.93310  -0.63325  -0.63293
 Alpha  occ. eigenvalues --   -0.51168  -0.43763  -0.43643
 Alpha virt. eigenvalues --    0.16343   0.27324   0.31361   0.31460   0.73868
 Alpha virt. eigenvalues --    0.80097   0.81232   0.85694   0.92443   0.94595
 Alpha virt. eigenvalues --    1.00249   1.30701   1.31301   1.32476   1.91510

 Mulliken charges:
               1
     1  H    0.264491
     2  C   -0.704662
     3  Cl  -0.106472
     4  H    0.273334
     5  H    0.273309
 Sum of Mulliken charges =  -0.00000

 Dipole moment (field-independent basis, Debye):
    X=             -2.8555    Y=              0.0004    Z=             -0.0876  Tot=              2.8568
 Quadrupole moment (field-independent basis, Debye-Ang):
   XX=            -18.5558   YY=            -20.1762   ZZ=            -20.2337
   XY=              0.0016   XZ=             -0.2595   YZ=             -0.0001

 Normal termination of Gaussian 16 at Fri Sep 22 17:16:04 2023.
