 Gaussian 16, Revision A.03,
 Gaussian 16:  ES64L-G16RevA.03 25-Dec-2016

 ----------
 # hf/3-21g
 ----------

 -----------------------
 tmpdir/M2_conf_31_6.gjf
 -----------------------
 Symbolic Z-matrix:
 Charge =  0 Multiplicity = 1

                         Standard orientation:
 ---------------------------------------------------------------------
 Center     Atomic      Atomic             Coordinates (Angstroms)
 Number     Number       Type             X           Y           Z
 ---------------------------------------------------------------------
      1          1           0       -1.537834   -0.088639    1.016516
      2          6           0       -1.202381   -0.000044    0.000735
      3         17           0        0.689523   -0.000137    0.001421
      4          1           0       -1.484635    0.934937   -0.445084
      5          1           0       -1.485127   -0.843709   -0.600008
 ---------------------------------------------------------------------

 SCF Done:  E(RHF) =  -496.689328253     A.U. after   11 cycles

 The electronic state is 1-A.
 Alpha  occ. eigenvalues -- -104.08774 -11.25001 -10.48163  -7.94538  -7.94134
 Alpha  occ. eigenvalues --   -7.94134  -1.11283  -0.93336  -0.63258  -0.63237
 Alpha  occ. eigenvalues --   -0.51317  -0.43745  -0.43707
 Alpha virt. eigenvalues --    0.16595   0.27332   0.31370   0.31389   0.73827
 Alpha virt. eigenvalues --    0.80567   0.80793   0.85506   0.93422   0.93896
 Alpha virt. eigenvalues --    0.99552   1.31197   1.31238   1.32208   1.91986

 Mulliken charges:
               1
     1  H    0.268703
     2  C   -0.702678
     3  Cl  -0.107044
     4  H    0.270521
     5  H    0.270499
 Sum of Mulliken charges =  -0.00000

 Dipole moment (field-independent basis, Debye):
    X=             -2.8659    Y=              0.0017    Z=             -0.0184  Tot=              2.8659
 Quadrupole moment (field-independent basis, Debye-Ang):
   XX=            -18.5696   YY=            -20.1792   ZZ=            -20.1838
   XY=              0.0052   XZ=             -0.0534   YZ=              0.0000

 Normal termination of Gaussian 16 at Fri Sep 22 17:14:53 2023.
