 Gaussian 16, Revision A.03,
 Gaussian 16:  ES64L-G16RevA.03 25-Dec-2016

 ----------
 # hf/3-21g
 ----------

 -----------------------
 tmpdir/M2_conf_58_4.gjf
 -----------------------
 Symbolic Z-matrix:
 Charge =  0 Multiplicity = 1

                         Standard orientation:
 ---------------------------------------------------------------------
 Center     Atomic      Atomic             Coordinates (Angstroms)
 Number     Number       Type             X           Y           Z
 ---------------------------------------------------------------------
      1          1           0       -1.028928    0.177206   -0.338260
      2          6           0       -0.024194   -0.026980   -0.020449
      3          1           0        0.716897   -0.385698   -0.709454
      4          1           0        0.011960   -0.669371    0.838988
      5          1           0        0.445232    1.039744    0.331418
 ---------------------------------------------------------------------

 SCF Done:  E(RHF) =  -39.9635458251     A.U. after    9 cycles

 The electronic state is 1-A.
 Alpha  occ. eigenvalues --  -11.15749  -0.93828  -0.57348  -0.54390  -0.49693
 Alpha virt. eigenvalues --    0.28325   0.31804   0.35121   0.36341   0.90736
 Alpha virt. eigenvalues --    0.94066   0.97357   1.25283   1.31736   1.35844
 Alpha virt. eigenvalues --    1.38729   1.94606

 Mulliken charges:
               1
     1  H    0.210387
     2  C   -0.776212
     3  H    0.210215
     4  H    0.206041
     5  H    0.149569
 Sum of Mulliken charges =  -0.00000

 Dipole moment (field-independent basis, Debye):
    X=              0.0206    Y=             -0.0675    Z=              0.0144  Tot=              0.0720
 Quadrupole moment (field-independent basis, Debye-Ang):
   XX=             -8.1545   YY=             -8.6159   ZZ=             -8.6868
   XY=             -0.1757   XZ=             -0.0461   YZ=             -0.1243

 Normal termination of Gaussian 16 at Fri Sep 22 17:15:34 2023.
