 Gaussian 16, Revision A.03,
 Gaussian 16:  ES64L-G16RevA.03 25-Dec-2016

 ----------
 # hf/3-21g
 ----------

 ------------------------
 tmpdir/M2_conf_214_9.gjf
 ------------------------
 Symbolic Z-matrix:
 Charge =  0 Multiplicity = 1

                         Standard orientation:
 ---------------------------------------------------------------------
 Center     Atomic      Atomic             Coordinates (Angstroms)
 Number     Number       Type             X           Y           Z
 ---------------------------------------------------------------------
      1          1           0        1.078677   -0.002868    1.055456
      2          6           0        1.205112    0.000029   -0.010669
      3         17           0       -0.686785    0.000039   -0.015073
      4          1           0        1.683047   -0.891519   -0.369720
      5          1           0        1.682946    0.893556   -0.365476
 ---------------------------------------------------------------------

 SCF Done:  E(RHF) =  -496.665767823     A.U. after   11 cycles

 The electronic state is 1-A.
 Alpha  occ. eigenvalues -- -104.09039 -11.24871 -10.48454  -7.94822  -7.94415
 Alpha  occ. eigenvalues --   -7.94407  -1.11955  -0.93169  -0.64046  -0.63134
 Alpha  occ. eigenvalues --   -0.50680  -0.44185  -0.42967
 Alpha virt. eigenvalues --    0.15322   0.27576   0.31452   0.31558   0.74068
 Alpha virt. eigenvalues --    0.79434   0.80893   0.85322   0.92879   0.96263
 Alpha virt. eigenvalues --    1.01331   1.29559   1.31184   1.32164   1.88655

 Mulliken charges:
               1
     1  H    0.284147
     2  C   -0.706863
     3  Cl  -0.109466
     4  H    0.266106
     5  H    0.266077
 Sum of Mulliken charges =  -0.00000

 Dipole moment (field-independent basis, Debye):
    X=              2.7841    Y=             -0.0007    Z=              0.2383  Tot=              2.7943
 Quadrupole moment (field-independent basis, Debye-Ang):
   XX=            -18.5199   YY=            -20.1796   ZZ=            -20.4614
   XY=              0.0012   XZ=             -0.5600   YZ=             -0.0001

 Normal termination of Gaussian 16 at Fri Sep 22 17:19:33 2023.
