 Gaussian 16, Revision A.03,
 Gaussian 16:  ES64L-G16RevA.03 25-Dec-2016

 ----------
 # hf/3-21g
 ----------

 ------------------------
 tmpdir/M2_conf_276_8.gjf
 ------------------------
 Symbolic Z-matrix:
 Charge =  0 Multiplicity = 1

                         Standard orientation:
 ---------------------------------------------------------------------
 Center     Atomic      Atomic             Coordinates (Angstroms)
 Number     Number       Type             X           Y           Z
 ---------------------------------------------------------------------
      1          1           0       -0.659840   -0.000130    0.886248
      2          6           0       -1.213475   -0.000015   -0.033592
      3         17           0        0.678384    0.000012   -0.021146
      4          1           0       -1.795752   -0.892466   -0.162676
      5          1           0       -1.796087    0.892484   -0.162542
 ---------------------------------------------------------------------

 SCF Done:  E(RHF) =  -496.571972555     A.U. after   12 cycles

 The electronic state is 1-A.
 Alpha  occ. eigenvalues -- -104.10489 -11.23541 -10.50202  -7.96555  -7.96109
 Alpha  occ. eigenvalues --   -7.96061  -1.15691  -0.92368  -0.66162  -0.62622
 Alpha  occ. eigenvalues --   -0.50933  -0.45873  -0.39433
 Alpha virt. eigenvalues --    0.12245   0.29562   0.32174   0.32216   0.74009
 Alpha virt. eigenvalues --    0.77794   0.80119   0.84510   0.93663   0.98134
 Alpha virt. eigenvalues --    1.03328   1.23537   1.31119   1.31822   1.81838

 Mulliken charges:
               1
     1  H    0.295139
     2  C   -0.725883
     3  Cl  -0.107402
     4  H    0.269093
     5  H    0.269053
 Sum of Mulliken charges =  -0.00000

 Dipole moment (field-independent basis, Debye):
    X=             -2.2738    Y=             -0.0002    Z=              0.5366  Tot=              2.3363
 Quadrupole moment (field-independent basis, Debye-Ang):
   XX=            -18.6677   YY=            -20.0971   ZZ=            -21.2619
   XY=             -0.0003   XZ=              0.6747   YZ=              0.0000

 Normal termination of Gaussian 16 at Fri Sep 22 17:21:08 2023.
