 Gaussian 16, Revision A.03,
 Gaussian 16:  ES64L-G16RevA.03 25-Dec-2016

 ----------
 # hf/3-21g
 ----------

 ------------------------
 tmpdir/M2_conf_128_6.gjf
 ------------------------
 Symbolic Z-matrix:
 Charge =  0 Multiplicity = 1

                         Standard orientation:
 ---------------------------------------------------------------------
 Center     Atomic      Atomic             Coordinates (Angstroms)
 Number     Number       Type             X           Y           Z
 ---------------------------------------------------------------------
      1          1           0       -1.313612   -0.006968    1.063620
      2          6           0       -1.202919    0.000044   -0.004034
      3         17           0        0.688980    0.000037   -0.007364
      4          1           0       -1.590553    0.895707   -0.451402
      5          1           0       -1.590984   -0.889636   -0.462820
 ---------------------------------------------------------------------

 SCF Done:  E(RHF) =  -496.685006347     A.U. after   11 cycles

 The electronic state is 1-A.
 Alpha  occ. eigenvalues -- -104.08817 -11.24985 -10.48209  -7.94582  -7.94178
 Alpha  occ. eigenvalues --   -7.94177  -1.11397  -0.93305  -0.63446  -0.63192
 Alpha  occ. eigenvalues --   -0.51160  -0.43866  -0.43536
 Alpha virt. eigenvalues --    0.16327   0.27356   0.31376   0.31434   0.73884
 Alpha virt. eigenvalues --    0.80121   0.81042   0.85629   0.92562   0.94913
 Alpha virt. eigenvalues --    1.00051   1.30777   1.31173   1.32370   1.91329

 Mulliken charges:
               1
     1  H    0.276555
     2  C   -0.703947
     3  Cl  -0.107164
     4  H    0.267287
     5  H    0.267269
 Sum of Mulliken charges =  -0.00000

 Dipole moment (field-independent basis, Debye):
    X=             -2.8522    Y=             -0.0006    Z=              0.1033  Tot=              2.8541
 Quadrupole moment (field-independent basis, Debye-Ang):
   XX=            -18.5560   YY=            -20.1826   ZZ=            -20.2359
   XY=             -0.0013   XZ=              0.2746   YZ=             -0.0001

 Normal termination of Gaussian 16 at Fri Sep 22 17:17:18 2023.
