 Gaussian 16, Revision A.03,
 Gaussian 16:  ES64L-G16RevA.03 25-Dec-2016

 ----------
 # hf/3-21g
 ----------

 -----------------------
 tmpdir/M2_conf_71_1.gjf
 -----------------------
 Symbolic Z-matrix:
 Charge =  0 Multiplicity = 1

                         Standard orientation:
 ---------------------------------------------------------------------
 Center     Atomic      Atomic             Coordinates (Angstroms)
 Number     Number       Type             X           Y           Z
 ---------------------------------------------------------------------
      1          6           0       -0.032242   -0.000060    0.016080
      2          1           0       -0.133257   -0.001337    0.979297
      3          1           0       -0.418364   -0.892438   -0.438620
      4          1           0       -0.420680    0.892503   -0.436748
      5          1           0        1.165751    0.001633   -0.200408
 ---------------------------------------------------------------------

 SCF Done:  E(RHF) =  -39.9562960036     A.U. after    9 cycles

 The electronic state is 1-A.
 Alpha  occ. eigenvalues --  -11.14512  -0.95191  -0.57952  -0.55498  -0.50290
 Alpha virt. eigenvalues --    0.28565   0.32650   0.35680   0.38059   0.87157
 Alpha virt. eigenvalues --    0.92168   0.97579   1.25442   1.34331   1.37133
 Alpha virt. eigenvalues --    1.47424   1.96397

 Mulliken charges:
               1
     1  C   -0.781654
     2  H    0.230618
     3  H    0.202213
     4  H    0.202159
     5  H    0.146665
 Sum of Mulliken charges =   0.00000

 Dipole moment (field-independent basis, Debye):
    X=             -0.0858    Y=             -0.0003    Z=              0.0682  Tot=              0.1096
 Quadrupole moment (field-independent basis, Debye-Ang):
   XX=             -8.5430   YY=             -8.2837   ZZ=             -8.3728
   XY=             -0.0005   XZ=              0.0489   YZ=             -0.0001

 Normal termination of Gaussian 16 at Fri Sep 22 17:15:54 2023.
