 Gaussian 16, Revision A.03,
 Gaussian 16:  ES64L-G16RevA.03 25-Dec-2016

 ----------
 # hf/3-21g
 ----------

 ------------------------
 tmpdir/M2_conf_245_4.gjf
 ------------------------
 Symbolic Z-matrix:
 Charge =  0 Multiplicity = 1

                         Standard orientation:
 ---------------------------------------------------------------------
 Center     Atomic      Atomic             Coordinates (Angstroms)
 Number     Number       Type             X           Y           Z
 ---------------------------------------------------------------------
      1          1           0        0.415953   -0.239225    0.960727
      2          6           0        0.024209    0.015154   -0.005718
      3          1           0        0.604739   -0.512261   -0.738822
      4          1           0       -0.051872    1.076071   -0.151564
      5          1           0       -1.114072   -0.415509   -0.036036
 ---------------------------------------------------------------------

 SCF Done:  E(RHF) =  -39.9664478269     A.U. after    9 cycles

 The electronic state is 1-A.
 Alpha  occ. eigenvalues --  -11.15720  -0.93797  -0.56402  -0.54607  -0.50487
 Alpha virt. eigenvalues --    0.28279   0.32321   0.35294   0.35992   0.91059
 Alpha virt. eigenvalues --    0.92704   0.97930   1.24929   1.32688   1.36003
 Alpha virt. eigenvalues --    1.37790   1.94507

 Mulliken charges:
               1
     1  H    0.205246
     2  C   -0.771309
     3  H    0.206165
     4  H    0.207186
     5  H    0.152712
 Sum of Mulliken charges =   0.00000

 Dipole moment (field-independent basis, Debye):
    X=              0.0867    Y=              0.0110    Z=              0.0308  Tot=              0.0927
 Quadrupole moment (field-independent basis, Debye-Ang):
   XX=             -8.5185   YY=             -8.3523   ZZ=             -8.5631
   XY=             -0.1584   XZ=             -0.0198   YZ=             -0.0052

 Normal termination of Gaussian 16 at Fri Sep 22 17:20:20 2023.
