 Gaussian 16, Revision A.03,
 Gaussian 16:  ES64L-G16RevA.03 25-Dec-2016

 ----------
 # hf/3-21g
 ----------

 ------------------------
 tmpdir/M2_conf_246_0.gjf
 ------------------------
 Symbolic Z-matrix:
 Charge =  0 Multiplicity = 1

                         Standard orientation:
 ---------------------------------------------------------------------
 Center     Atomic      Atomic             Coordinates (Angstroms)
 Number     Number       Type             X           Y           Z
 ---------------------------------------------------------------------
      1          6           0       -0.032236    0.000055    0.010733
      2          1           0       -0.176277   -0.001723    1.010205
      3          1           0       -0.399280    0.894691   -0.455668
      4          1           0       -0.404197   -0.890682   -0.459200
      5          1           0        1.173171   -0.002618   -0.159733
 ---------------------------------------------------------------------

 SCF Done:  E(RHF) =  -39.9630953659     A.U. after    9 cycles

 The electronic state is 1-A.
 Alpha  occ. eigenvalues --  -11.14984  -0.94575  -0.57033  -0.55547  -0.50288
 Alpha virt. eigenvalues --    0.28490   0.32533   0.35682   0.37101   0.89018
 Alpha virt. eigenvalues --    0.92076   0.97550   1.25318   1.33881   1.37064
 Alpha virt. eigenvalues --    1.42654   1.95564

 Mulliken charges:
               1
     1  C   -0.778207
     2  H    0.221755
     3  H    0.203940
     4  H    0.203934
     5  H    0.148579
 Sum of Mulliken charges =  -0.00000

 Dipole moment (field-independent basis, Debye):
    X=             -0.0816    Y=              0.0002    Z=              0.0460  Tot=              0.0936
 Quadrupole moment (field-independent basis, Debye-Ang):
   XX=             -8.5894   YY=             -8.3262   ZZ=             -8.3810
   XY=              0.0012   XZ=              0.0396   YZ=             -0.0004

 Normal termination of Gaussian 16 at Fri Sep 22 17:20:22 2023.
