 Gaussian 16, Revision A.03,
 Gaussian 16:  ES64L-G16RevA.03 25-Dec-2016

 ----------
 # hf/3-21g
 ----------

 ------------------------
 tmpdir/M2_conf_204_1.gjf
 ------------------------
 Symbolic Z-matrix:
 Charge =  0 Multiplicity = 1

                         Standard orientation:
 ---------------------------------------------------------------------
 Center     Atomic      Atomic             Coordinates (Angstroms)
 Number     Number       Type             X           Y           Z
 ---------------------------------------------------------------------
      1          6           0       -0.032234   -0.000060    0.011749
      2          1           0       -0.165381   -0.002009    1.005669
      3          1           0       -0.405245   -0.892103   -0.454409
      4          1           0       -0.407444    0.892837   -0.451456
      5          1           0        1.171473    0.001636   -0.170298
 ---------------------------------------------------------------------

 SCF Done:  E(RHF) =  -39.9622120643     A.U. after    9 cycles

 The electronic state is 1-A.
 Alpha  occ. eigenvalues --  -11.14901  -0.94676  -0.57193  -0.55537  -0.50289
 Alpha virt. eigenvalues --    0.28505   0.32558   0.35683   0.37265   0.88701
 Alpha virt. eigenvalues --    0.92081   0.97552   1.25342   1.33981   1.37081
 Alpha virt. eigenvalues --    1.43423   1.95690

 Mulliken charges:
               1
     1  C   -0.778900
     2  H    0.223318
     3  H    0.203693
     4  H    0.203638
     5  H    0.148251
 Sum of Mulliken charges =   0.00000

 Dipole moment (field-independent basis, Debye):
    X=             -0.0823    Y=             -0.0003    Z=              0.0501  Tot=              0.0964
 Quadrupole moment (field-independent basis, Debye-Ang):
   XX=             -8.5811   YY=             -8.3196   ZZ=             -8.3793
   XY=             -0.0005   XZ=              0.0428   YZ=             -0.0001

 Normal termination of Gaussian 16 at Fri Sep 22 17:19:18 2023.
