 Gaussian 16, Revision A.03,
 Gaussian 16:  ES64L-G16RevA.03 25-Dec-2016

 ----------
 # hf/3-21g
 ----------

 ------------------------
 tmpdir/M2_conf_184_8.gjf
 ------------------------
 Symbolic Z-matrix:
 Charge =  0 Multiplicity = 1

                         Standard orientation:
 ---------------------------------------------------------------------
 Center     Atomic      Atomic             Coordinates (Angstroms)
 Number     Number       Type             X           Y           Z
 ---------------------------------------------------------------------
      1          1           0       -1.040376   -0.000895    1.048797
      2          6           0       -1.205626   -0.000006   -0.012009
      3         17           0        0.686268    0.000021   -0.016110
      4          1           0       -1.696079   -0.892187   -0.352079
      5          1           0       -1.696346    0.892763   -0.350795
 ---------------------------------------------------------------------

 SCF Done:  E(RHF) =  -496.660916166     A.U. after   11 cycles

 The electronic state is 1-A.
 Alpha  occ. eigenvalues -- -104.09100 -11.24832 -10.48523  -7.94890  -7.94482
 Alpha  occ. eigenvalues --   -7.94473  -1.12108  -0.93134  -0.64183  -0.63117
 Alpha  occ. eigenvalues --   -0.50602  -0.44262  -0.42817
 Alpha virt. eigenvalues --    0.15101   0.27648   0.31476   0.31585   0.74099
 Alpha virt. eigenvalues --    0.79316   0.80832   0.85198   0.93087   0.96460
 Alpha virt. eigenvalues --    1.01548   1.29293   1.31195   1.32083   1.88059

 Mulliken charges:
               1
     1  H    0.285323
     2  C   -0.707374
     3  Cl  -0.110158
     4  H    0.266127
     5  H    0.266082
 Sum of Mulliken charges =  -0.00000

 Dipole moment (field-independent basis, Debye):
    X=             -2.7652    Y=             -0.0003    Z=              0.2610  Tot=              2.7775
 Quadrupole moment (field-independent basis, Debye-Ang):
   XX=            -18.5159   YY=            -20.1782   ZZ=            -20.5137
   XY=             -0.0006   XZ=              0.5975   YZ=              0.0000

 Normal termination of Gaussian 16 at Fri Sep 22 17:18:48 2023.
