 Gaussian 16, Revision A.03,
 Gaussian 16:  ES64L-G16RevA.03 25-Dec-2016

 ----------
 # hf/3-21g
 ----------

 -----------------------
 tmpdir/M2_conf_90_6.gjf
 -----------------------
 Symbolic Z-matrix:
 Charge =  0 Multiplicity = 1

                         Standard orientation:
 ---------------------------------------------------------------------
 Center     Atomic      Atomic             Coordinates (Angstroms)
 Number     Number       Type             X           Y           Z
 ---------------------------------------------------------------------
      1          1           0       -1.299230   -0.006156    1.064690
      2          6           0       -1.203002    0.000042   -0.004370
      3         17           0        0.688891    0.000035   -0.007891
      4          1           0       -1.596737    0.895331   -0.447138
      5          1           0       -1.597163   -0.890021   -0.457177
 ---------------------------------------------------------------------

 SCF Done:  E(RHF) =  -496.684290891     A.U. after   11 cycles

 The electronic state is 1-A.
 Alpha  occ. eigenvalues -- -104.08824 -11.24982 -10.48217  -7.94590  -7.94186
 Alpha  occ. eigenvalues --   -7.94184  -1.11416  -0.93300  -0.63472  -0.63188
 Alpha  occ. eigenvalues --   -0.51137  -0.43880  -0.43514
 Alpha virt. eigenvalues --    0.16285   0.27361   0.31378   0.31440   0.73893
 Alpha virt. eigenvalues --    0.80080   0.81050   0.85637   0.92519   0.95003
 Alpha virt. eigenvalues --    1.00119   1.30719   1.31171   1.32376   1.91222

 Mulliken charges:
               1
     1  H    0.277049
     2  C   -0.704117
     3  Cl  -0.107209
     4  H    0.267148
     5  H    0.267130
 Sum of Mulliken charges =  -0.00000

 Dipole moment (field-independent basis, Debye):
    X=             -2.8499    Y=             -0.0006    Z=              0.1114  Tot=              2.8520
 Quadrupole moment (field-independent basis, Debye-Ang):
   XX=            -18.5540   YY=            -20.1826   ZZ=            -20.2448
   XY=             -0.0012   XZ=              0.2942   YZ=             -0.0001

 Normal termination of Gaussian 16 at Fri Sep 22 17:16:22 2023.
