 Gaussian 16, Revision A.03,
 Gaussian 16:  ES64L-G16RevA.03 25-Dec-2016

 ----------
 # hf/3-21g
 ----------

 ------------------------
 tmpdir/M2_conf_256_8.gjf
 ------------------------
 Symbolic Z-matrix:
 Charge =  0 Multiplicity = 1

                         Standard orientation:
 ---------------------------------------------------------------------
 Center     Atomic      Atomic             Coordinates (Angstroms)
 Number     Number       Type             X           Y           Z
 ---------------------------------------------------------------------
      1          1           0        0.460313    0.000026    0.704792
      2          6           0        1.220143    0.000019   -0.053677
      3         17           0       -0.671421   -0.000010   -0.018058
      4          1           0        1.816319    0.892489   -0.037877
      5          1           0        1.816673   -0.892461   -0.037862
 ---------------------------------------------------------------------

 SCF Done:  E(RHF) =  -496.474450419     A.U. after   12 cycles

 The electronic state is 1-A.
 Alpha  occ. eigenvalues -- -104.12736 -11.21181 -10.52857  -7.99236  -7.98680
 Alpha  occ. eigenvalues --   -7.98611  -1.21417  -0.91281  -0.68026  -0.61649
 Alpha  occ. eigenvalues --   -0.52783  -0.47946  -0.35517
 Alpha virt. eigenvalues --    0.10672   0.31800   0.33177   0.34689   0.72958
 Alpha virt. eigenvalues --    0.76294   0.77898   0.81414   0.91169   0.98929
 Alpha virt. eigenvalues --    1.04650   1.19964   1.32744   1.33158   1.81238

 Mulliken charges:
               1
     1  H    0.281168
     2  C   -0.776119
     3  Cl  -0.047256
     4  H    0.271121
     5  H    0.271086
 Sum of Mulliken charges =  -0.00000

 Dipole moment (field-independent basis, Debye):
    X=              1.3914    Y=              0.0001    Z=              0.8213  Tot=              1.6157
 Quadrupole moment (field-independent basis, Debye-Ang):
   XX=            -19.0597   YY=            -19.9043   ZZ=            -21.8187
   XY=             -0.0003   XZ=             -0.1583   YZ=              0.0000

 Normal termination of Gaussian 16 at Fri Sep 22 17:20:38 2023.
