 Gaussian 16, Revision A.03,
 Gaussian 16:  ES64L-G16RevA.03 25-Dec-2016

 ----------
 # hf/3-21g
 ----------

 -----------------------
 tmpdir/M2_conf_42_5.gjf
 -----------------------
 Symbolic Z-matrix:
 Charge =  0 Multiplicity = 1

                         Standard orientation:
 ---------------------------------------------------------------------
 Center     Atomic      Atomic             Coordinates (Angstroms)
 Number     Number       Type             X           Y           Z
 ---------------------------------------------------------------------
      1          1           0        0.329585    0.974615   -0.344100
      2          6           0        0.032486    0.000977   -0.003589
      3          1           0        0.261909   -0.787298   -0.695406
      4          1           0        0.395517   -0.217776    0.982801
      5          1           0       -1.181930    0.024599    0.078238
 ---------------------------------------------------------------------

 SCF Done:  E(RHF) =  -39.9668003263     A.U. after    9 cycles

 The electronic state is 1-A.
 Alpha  occ. eigenvalues --  -11.15728  -0.93777  -0.55888  -0.55450  -0.50205
 Alpha virt. eigenvalues --    0.28324   0.32194   0.35605   0.35784   0.91735
 Alpha virt. eigenvalues --    0.92166   0.97581   1.25102   1.32369   1.36752
 Alpha virt. eigenvalues --    1.37189   1.94663

 Mulliken charges:
               1
     1  H    0.206875
     2  C   -0.770914
     3  H    0.206676
     4  H    0.206304
     5  H    0.151059
 Sum of Mulliken charges =   0.00000

 Dipole moment (field-independent basis, Debye):
    X=              0.0673    Y=             -0.0079    Z=              0.0001  Tot=              0.0678
 Quadrupole moment (field-independent basis, Debye-Ang):
   XX=             -8.6665   YY=             -8.3491   ZZ=             -8.4241
   XY=              0.0122   XZ=              0.0320   YZ=             -0.0014

 Normal termination of Gaussian 16 at Fri Sep 22 17:15:10 2023.
