 Gaussian 16, Revision A.03,
 Gaussian 16:  ES64L-G16RevA.03 25-Dec-2016

 ----------
 # hf/3-21g
 ----------

 ------------------------
 tmpdir/M2_conf_202_8.gjf
 ------------------------
 Symbolic Z-matrix:
 Charge =  0 Multiplicity = 1

                         Standard orientation:
 ---------------------------------------------------------------------
 Center     Atomic      Atomic             Coordinates (Angstroms)
 Number     Number       Type             X           Y           Z
 ---------------------------------------------------------------------
      1          1           0       -0.757952   -0.000220    0.947007
      2          6           0       -1.210933   -0.000013   -0.026351
      3         17           0        0.680963    0.000013   -0.020947
      4          1           0       -1.776252   -0.892439   -0.216526
      5          1           0       -1.776574    0.892511   -0.216272
 ---------------------------------------------------------------------

 SCF Done:  E(RHF) =  -496.603875830     A.U. after   12 cycles

 The electronic state is 1-A.
 Alpha  occ. eigenvalues -- -104.09930 -11.24123 -10.49516  -7.95871  -7.95444
 Alpha  occ. eigenvalues --   -7.95410  -1.14233  -0.92673  -0.65515  -0.62855
 Alpha  occ. eigenvalues --   -0.50546  -0.45250  -0.40740
 Alpha virt. eigenvalues --    0.13066   0.28781   0.31857   0.31931   0.74155
 Alpha virt. eigenvalues --    0.78283   0.80325   0.84495   0.94224   0.97753
 Alpha virt. eigenvalues --    1.02894   1.25875   1.31250   1.31520   1.83215

 Mulliken charges:
               1
     1  H    0.293451
     2  C   -0.716334
     3  Cl  -0.112964
     4  H    0.267945
     5  H    0.267903
 Sum of Mulliken charges =  -0.00000

 Dipole moment (field-independent basis, Debye):
    X=             -2.4837    Y=             -0.0002    Z=              0.4507  Tot=              2.5243
 Quadrupole moment (field-independent basis, Debye-Ang):
   XX=            -18.5742   YY=            -20.1365   ZZ=            -21.0322
   XY=             -0.0004   XZ=              0.7288   YZ=              0.0000

 Normal termination of Gaussian 16 at Fri Sep 22 17:19:15 2023.
