 Gaussian 16, Revision A.03,
 Gaussian 16:  ES64L-G16RevA.03 25-Dec-2016

 ----------
 # hf/3-21g
 ----------

 -----------------------
 tmpdir/M2_conf_32_5.gjf
 -----------------------
 Symbolic Z-matrix:
 Charge =  0 Multiplicity = 1

                         Standard orientation:
 ---------------------------------------------------------------------
 Center     Atomic      Atomic             Coordinates (Angstroms)
 Number     Number       Type             X           Y           Z
 ---------------------------------------------------------------------
      1          1           0       -0.389138   -0.272561    0.965925
      2          6           0       -0.027033    0.011272   -0.003873
      3          1           0       -0.537341   -0.568486   -0.749589
      4          1           0       -0.061034    1.072819   -0.160623
      5          1           0        1.149710   -0.299404   -0.032477
 ---------------------------------------------------------------------

 SCF Done:  E(RHF) =  -39.9667682725     A.U. after    9 cycles

 The electronic state is 1-A.
 Alpha  occ. eigenvalues --  -11.15721  -0.93787  -0.56182  -0.54905  -0.50430
 Alpha virt. eigenvalues --    0.28293   0.32303   0.35407   0.35909   0.91277
 Alpha virt. eigenvalues --    0.92480   0.97834   1.24969   1.32639   1.36262
 Alpha virt. eigenvalues --    1.37531   1.94563

 Mulliken charges:
               1
     1  H    0.205553
     2  C   -0.770896
     3  H    0.206120
     4  H    0.206926
     5  H    0.152297
 Sum of Mulliken charges =  -0.00000

 Dipole moment (field-independent basis, Debye):
    X=             -0.0818    Y=              0.0069    Z=              0.0221  Tot=              0.0850
 Quadrupole moment (field-independent basis, Debye-Ang):
   XX=             -8.5748   YY=             -8.3462   ZZ=             -8.5134
   XY=              0.1183   XZ=              0.0173   YZ=             -0.0030

 Normal termination of Gaussian 16 at Fri Sep 22 17:14:55 2023.
