 Gaussian 16, Revision A.03,
 Gaussian 16:  ES64L-G16RevA.03 25-Dec-2016

 ----------
 # hf/3-21g
 ----------

 -----------------------
 tmpdir/M2_conf_56_8.gjf
 -----------------------
 Symbolic Z-matrix:
 Charge =  0 Multiplicity = 1

                         Standard orientation:
 ---------------------------------------------------------------------
 Center     Atomic      Atomic             Coordinates (Angstroms)
 Number     Number       Type             X           Y           Z
 ---------------------------------------------------------------------
      1          1           0       -1.548504   -0.154555    1.005449
      2          6           0       -1.202398   -0.000158    0.000965
      3         17           0        0.689504   -0.000280    0.001843
      4          1           0       -1.479273   -0.802011   -0.656721
      5          1           0       -1.479403    0.962267   -0.385849
 ---------------------------------------------------------------------

 SCF Done:  E(RHF) =  -496.689219562     A.U. after   11 cycles

 The electronic state is 1-A.
 Alpha  occ. eigenvalues -- -104.08774 -11.25001 -10.48164  -7.94538  -7.94134
 Alpha  occ. eigenvalues --   -7.94134  -1.11286  -0.93335  -0.63261  -0.63239
 Alpha  occ. eigenvalues --   -0.51313  -0.43749  -0.43701
 Alpha virt. eigenvalues --    0.16588   0.27332   0.31370   0.31390   0.73828
 Alpha virt. eigenvalues --    0.80533   0.80825   0.85512   0.93335   0.93978
 Alpha virt. eigenvalues --    0.99571   1.31165   1.31246   1.32225   1.91971

 Mulliken charges:
               1
     1  H    0.268306
     2  C   -0.702734
     3  Cl  -0.107040
     4  H    0.270758
     5  H    0.270710
 Sum of Mulliken charges =   0.00000

 Dipole moment (field-independent basis, Debye):
    X=             -2.8656    Y=              0.0036    Z=             -0.0241  Tot=              2.8657
 Quadrupole moment (field-independent basis, Debye-Ang):
   XX=            -18.5694   YY=            -20.1801   ZZ=            -20.1842
   XY=              0.0106   XZ=             -0.0687   YZ=              0.0003

 Normal termination of Gaussian 16 at Fri Sep 22 17:15:31 2023.
