 Gaussian 16, Revision A.03,
 Gaussian 16:  ES64L-G16RevA.03 25-Dec-2016

 ----------
 # hf/3-21g
 ----------

 ------------------------
 tmpdir/M2_conf_118_9.gjf
 ------------------------
 Symbolic Z-matrix:
 Charge =  0 Multiplicity = 1

                         Standard orientation:
 ---------------------------------------------------------------------
 Center     Atomic      Atomic             Coordinates (Angstroms)
 Number     Number       Type             X           Y           Z
 ---------------------------------------------------------------------
      1          1           0        1.377943   -0.029147    1.056172
      2          6           0        1.202605    0.000080   -0.002610
      3         17           0       -0.689298    0.000129   -0.004938
      4          1           0        1.562382   -0.878974   -0.502631
      5          1           0        1.562104    0.905442   -0.453925
 ---------------------------------------------------------------------

 SCF Done:  E(RHF) =  -496.687542774     A.U. after   11 cycles

 The electronic state is 1-A.
 Alpha  occ. eigenvalues -- -104.08791 -11.24995 -10.48181  -7.94556  -7.94152
 Alpha  occ. eigenvalues --   -7.94151  -1.11329  -0.93323  -0.63347  -0.63208
 Alpha  occ. eigenvalues --   -0.51250  -0.43811  -0.43620
 Alpha virt. eigenvalues --    0.16481   0.27339   0.31368   0.31413   0.73851
 Alpha virt. eigenvalues --    0.80307   0.80976   0.85575   0.92855   0.94497
 Alpha virt. eigenvalues --    0.99781   1.31017   1.31193   1.32302   1.91714

 Mulliken charges:
               1
     1  H    0.274267
     2  C   -0.703268
     3  Cl  -0.107039
     4  H    0.268032
     5  H    0.268008
 Sum of Mulliken charges =  -0.00000

 Dipole moment (field-independent basis, Debye):
    X=              2.8603    Y=             -0.0019    Z=              0.0675  Tot=              2.8611
 Quadrupole moment (field-independent basis, Debye-Ang):
   XX=            -18.5635   YY=            -20.1827   ZZ=            -20.2036
   XY=              0.0046   XZ=             -0.1845   YZ=             -0.0002

 Normal termination of Gaussian 16 at Fri Sep 22 17:17:04 2023.
