 Gaussian 16, Revision A.03,
 Gaussian 16:  ES64L-G16RevA.03 25-Dec-2016

 ----------
 # hf/3-21g
 ----------

 ------------------------
 tmpdir/M2_conf_104_8.gjf
 ------------------------
 Symbolic Z-matrix:
 Charge =  0 Multiplicity = 1

                         Standard orientation:
 ---------------------------------------------------------------------
 Center     Atomic      Atomic             Coordinates (Angstroms)
 Number     Number       Type             X           Y           Z
 ---------------------------------------------------------------------
      1          1           0       -1.552093   -0.126344    1.008221
      2          6           0       -1.202402   -0.000140    0.001044
      3         17           0        0.689497   -0.000247    0.001996
      4          1           0       -1.477411   -0.819881   -0.635016
      5          1           0       -1.477540    0.951257   -0.413396
 ---------------------------------------------------------------------

 SCF Done:  E(RHF) =  -496.689176417     A.U. after   11 cycles

 The electronic state is 1-A.
 Alpha  occ. eigenvalues -- -104.08775 -11.25000 -10.48164  -7.94539  -7.94135
 Alpha  occ. eigenvalues --   -7.94135  -1.11287  -0.93335  -0.63263  -0.63239
 Alpha  occ. eigenvalues --   -0.51311  -0.43750  -0.43699
 Alpha virt. eigenvalues --    0.16585   0.27332   0.31369   0.31392   0.73829
 Alpha virt. eigenvalues --    0.80521   0.80836   0.85514   0.93309   0.94001
 Alpha virt. eigenvalues --    0.99578   1.31157   1.31248   1.32230   1.91965

 Mulliken charges:
               1
     1  H    0.268185
     2  C   -0.702757
     3  Cl  -0.107034
     4  H    0.270827
     5  H    0.270779
 Sum of Mulliken charges =  -0.00000

 Dipole moment (field-independent basis, Debye):
    X=             -2.8654    Y=              0.0031    Z=             -0.0261  Tot=              2.8655
 Quadrupole moment (field-independent basis, Debye-Ang):
   XX=            -18.5693   YY=            -20.1800   ZZ=            -20.1849
   XY=              0.0094   XZ=             -0.0744   YZ=              0.0003

 Normal termination of Gaussian 16 at Fri Sep 22 17:16:43 2023.
