 Gaussian 16, Revision A.03,
 Gaussian 16:  ES64L-G16RevA.03 25-Dec-2016

 ----------
 # hf/3-21g
 ----------

 -----------------------
 tmpdir/M2_conf_17_8.gjf
 -----------------------
 Symbolic Z-matrix:
 Charge =  0 Multiplicity = 1

                         Standard orientation:
 ---------------------------------------------------------------------
 Center     Atomic      Atomic             Coordinates (Angstroms)
 Number     Number       Type             X           Y           Z
 ---------------------------------------------------------------------
      1          1           0       -1.468996   -0.388000    0.964156
      2          6           0       -1.202379    0.000240   -0.000625
      3         17           0        0.689520    0.000511   -0.001258
      4          1           0       -1.519206   -0.639070   -0.802548
      5          1           0       -1.519361    1.016944   -0.136468
 ---------------------------------------------------------------------

 SCF Done:  E(RHF) =  -496.689342293     A.U. after   11 cycles

 The electronic state is 1-A.
 Alpha  occ. eigenvalues -- -104.08773 -11.25001 -10.48163  -7.94537  -7.94133
 Alpha  occ. eigenvalues --   -7.94133  -1.11283  -0.93336  -0.63264  -0.63232
 Alpha  occ. eigenvalues --   -0.51318  -0.43747  -0.43705
 Alpha virt. eigenvalues --    0.16597   0.27332   0.31373   0.31386   0.73827
 Alpha virt. eigenvalues --    0.80578   0.80782   0.85505   0.93434   0.93888
 Alpha virt. eigenvalues --    0.99547   1.31213   1.31224   1.32206   1.91987

 Mulliken charges:
               1
     1  H    0.271060
     2  C   -0.702667
     3  Cl  -0.107055
     4  H    0.269355
     5  H    0.269307
 Sum of Mulliken charges =  -0.00000

 Dipole moment (field-independent basis, Debye):
    X=             -2.8659    Y=             -0.0068    Z=              0.0165  Tot=              2.8660
 Quadrupole moment (field-independent basis, Debye-Ang):
   XX=            -18.5699   YY=            -20.1814   ZZ=            -20.1813
   XY=             -0.0190   XZ=              0.0473   YZ=             -0.0005

 Normal termination of Gaussian 16 at Fri Sep 22 17:14:32 2023.
