 Gaussian 16, Revision A.03,
 Gaussian 16:  ES64L-G16RevA.03 25-Dec-2016

 ----------
 # hf/3-21g
 ----------

 -----------------------
 tmpdir/M2_conf_98_2.gjf
 -----------------------
 Symbolic Z-matrix:
 Charge =  0 Multiplicity = 1

                         Standard orientation:
 ---------------------------------------------------------------------
 Center     Atomic      Atomic             Coordinates (Angstroms)
 Number     Number       Type             X           Y           Z
 ---------------------------------------------------------------------
      1          6           0        0.031796    0.000017    0.001205
      2          1           0        0.310526   -0.043084    1.030979
      3          1           0        0.344536   -0.869261   -0.545374
      4          1           0        0.339523    0.914300   -0.469978
      5          1           0       -1.185362   -0.002060   -0.022857
 ---------------------------------------------------------------------

 SCF Done:  E(RHF) =  -39.9668718307     A.U. after    9 cycles

 The electronic state is 1-A.
 Alpha  occ. eigenvalues --  -11.15657  -0.93843  -0.55763  -0.55630  -0.50273
 Alpha virt. eigenvalues --    0.28338   0.32268   0.35688   0.35808   0.91657
 Alpha virt. eigenvalues --    0.91930   0.97616   1.25096   1.32670   1.36958
 Alpha virt. eigenvalues --    1.37333   1.94723

 Mulliken charges:
               1
     1  C   -0.771493
     2  H    0.207915
     3  H    0.206259
     4  H    0.206211
     5  H    0.151108
 Sum of Mulliken charges =  -0.00000

 Dipole moment (field-independent basis, Debye):
    X=              0.0723    Y=             -0.0001    Z=              0.0047  Tot=              0.0725
 Quadrupole moment (field-independent basis, Debye-Ang):
   XX=             -8.6515   YY=             -8.3845   ZZ=             -8.3891
   XY=             -0.0012   XZ=             -0.0055   YZ=             -0.0004

 Normal termination of Gaussian 16 at Fri Sep 22 17:16:34 2023.
