 Gaussian 16, Revision A.03,
 Gaussian 16:  ES64L-G16RevA.03 25-Dec-2016

 ----------
 # hf/3-21g
 ----------

 ------------------------
 tmpdir/M2_conf_140_1.gjf
 ------------------------
 Symbolic Z-matrix:
 Charge =  0 Multiplicity = 1

                         Standard orientation:
 ---------------------------------------------------------------------
 Center     Atomic      Atomic             Coordinates (Angstroms)
 Number     Number       Type             X           Y           Z
 ---------------------------------------------------------------------
      1          6           0       -0.032186   -0.000060    0.008443
      2          1           0       -0.198800   -0.003049    1.021326
      3          1           0       -0.391214   -0.891584   -0.469538
      4          1           0       -0.393291    0.893353   -0.464867
      5          1           0        1.176421    0.001641   -0.137576
 ---------------------------------------------------------------------

 SCF Done:  E(RHF) =  -39.9647985805     A.U. after    9 cycles

 The electronic state is 1-A.
 Alpha  occ. eigenvalues --  -11.15175  -0.94351  -0.56669  -0.55567  -0.50286
 Alpha virt. eigenvalues --    0.28454   0.32474   0.35684   0.36719   0.89785
 Alpha virt. eigenvalues --    0.92023   0.97551   1.25262   1.33654   1.37039
 Alpha virt. eigenvalues --    1.40915   1.95295

 Mulliken charges:
               1
     1  C   -0.776523
     2  H    0.217924
     3  H    0.204668
     4  H    0.204613
     5  H    0.149318
 Sum of Mulliken charges =   0.00000

 Dipole moment (field-independent basis, Debye):
    X=             -0.0795    Y=             -0.0003    Z=              0.0356  Tot=              0.0871
 Quadrupole moment (field-independent basis, Debye-Ang):
   XX=             -8.6073   YY=             -8.3439   ZZ=             -8.3829
   XY=             -0.0005   XZ=              0.0353   YZ=             -0.0001

 Normal termination of Gaussian 16 at Fri Sep 22 17:17:37 2023.
