 Gaussian 16, Revision A.03,
 Gaussian 16:  ES64L-G16RevA.03 25-Dec-2016

 ----------
 # hf/3-21g
 ----------

 -----------------------
 tmpdir/M2_conf_94_0.gjf
 -----------------------
 Symbolic Z-matrix:
 Charge =  0 Multiplicity = 1

                         Standard orientation:
 ---------------------------------------------------------------------
 Center     Atomic      Atomic             Coordinates (Angstroms)
 Number     Number       Type             X           Y           Z
 ---------------------------------------------------------------------
      1          6           0       -0.031695    0.000060    0.000447
      2          1           0       -0.323563   -0.048148    1.030198
      3          1           0       -0.333379    0.916937   -0.469604
      4          1           0       -0.338555   -0.866435   -0.554196
      5          1           0        1.185668   -0.002712   -0.009078
 ---------------------------------------------------------------------

 SCF Done:  E(RHF) =  -39.9669278140     A.U. after    9 cycles

 The electronic state is 1-A.
 Alpha  occ. eigenvalues --  -11.15702  -0.93799  -0.55681  -0.55633  -0.50271
 Alpha virt. eigenvalues --    0.28325   0.32244   0.35686   0.35730   0.91823
 Alpha virt. eigenvalues --    0.91929   0.97630   1.25077   1.32529   1.36941
 Alpha virt. eigenvalues --    1.37076   1.94675

 Mulliken charges:
               1
     1  C   -0.770958
     2  H    0.206985
     3  H    0.206352
     4  H    0.206348
     5  H    0.151272
 Sum of Mulliken charges =  -0.00000

 Dipole moment (field-independent basis, Debye):
    X=             -0.0714    Y=              0.0001    Z=              0.0019  Tot=              0.0714
 Quadrupole moment (field-independent basis, Debye-Ang):
   XX=             -8.6551   YY=             -8.3880   ZZ=             -8.3903
   XY=              0.0012   XZ=              0.0022   YZ=             -0.0002

 Normal termination of Gaussian 16 at Fri Sep 22 17:16:28 2023.
