 Gaussian 16, Revision A.03,
 Gaussian 16:  ES64L-G16RevA.03 25-Dec-2016

 ----------
 # hf/3-21g
 ----------

 ------------------------
 tmpdir/M2_conf_276_4.gjf
 ------------------------
 Symbolic Z-matrix:
 Charge =  0 Multiplicity = 1

                         Standard orientation:
 ---------------------------------------------------------------------
 Center     Atomic      Atomic             Coordinates (Angstroms)
 Number     Number       Type             X           Y           Z
 ---------------------------------------------------------------------
      1          1           0       -1.023886    0.200087   -0.339431
      2          6           0       -0.024490   -0.026509   -0.019977
      3          1           0        0.704906   -0.405958   -0.710350
      4          1           0       -0.004164   -0.665453    0.842543
      5          1           0        0.470083    1.030376    0.327102
 ---------------------------------------------------------------------

 SCF Done:  E(RHF) =  -39.9637239047     A.U. after    9 cycles

 The electronic state is 1-A.
 Alpha  occ. eigenvalues --  -11.15748  -0.93825  -0.57299  -0.54423  -0.49715
 Alpha virt. eigenvalues --    0.28326   0.31822   0.35137   0.36323   0.90765
 Alpha virt. eigenvalues --    0.93990   0.97362   1.25278   1.31760   1.35870
 Alpha virt. eigenvalues --    1.38674   1.94611

 Mulliken charges:
               1
     1  H    0.210230
     2  C   -0.775913
     3  H    0.210033
     4  H    0.206038
     5  H    0.149612
 Sum of Mulliken charges =   0.00000

 Dipole moment (field-independent basis, Debye):
    X=              0.0177    Y=             -0.0677    Z=              0.0136  Tot=              0.0713
 Quadrupole moment (field-independent basis, Debye-Ang):
   XX=             -8.1712   YY=             -8.6078   ZZ=             -8.6775
   XY=             -0.1842   XZ=             -0.0485   YZ=             -0.1216

 Normal termination of Gaussian 16 at Fri Sep 22 17:21:08 2023.
