 Gaussian 16, Revision A.03,
 Gaussian 16:  ES64L-G16RevA.03 25-Dec-2016

 ----------
 # hf/3-21g
 ----------

 -----------------------
 tmpdir/M2_conf_86_9.gjf
 -----------------------
 Symbolic Z-matrix:
 Charge =  0 Multiplicity = 1

                         Standard orientation:
 ---------------------------------------------------------------------
 Center     Atomic      Atomic             Coordinates (Angstroms)
 Number     Number       Type             X           Y           Z
 ---------------------------------------------------------------------
      1          1           0       -1.490403   -0.763673   -0.697070
      2          6           0       -1.202357    0.000202    0.000169
      3         17           0        0.689541    0.000361    0.000341
      4          1           0       -1.508997   -0.223741    1.004170
      5          1           0       -1.508656    0.980066   -0.313919
 ---------------------------------------------------------------------

 SCF Done:  E(RHF) =  -496.689464660     A.U. after   11 cycles

 The electronic state is 1-A.
 Alpha  occ. eigenvalues -- -104.08773 -11.25001 -10.48162  -7.94536  -7.94133
 Alpha  occ. eigenvalues --   -7.94133  -1.11280  -0.93337  -0.63249  -0.63241
 Alpha  occ. eigenvalues --   -0.51323  -0.43734  -0.43719
 Alpha virt. eigenvalues --    0.16605   0.27332   0.31375   0.31382   0.73825
 Alpha virt. eigenvalues --    0.80644   0.80720   0.85498   0.93579   0.93745
 Alpha virt. eigenvalues --    0.99529   1.31225   1.31229   1.32198   1.92006

 Mulliken charges:
               1
     1  H    0.270302
     2  C   -0.702620
     3  Cl  -0.107048
     4  H    0.269694
     5  H    0.269672
 Sum of Mulliken charges =   0.00000

 Dipole moment (field-independent basis, Debye):
    X=             -2.8662    Y=             -0.0049    Z=             -0.0044  Tot=              2.8662
 Quadrupole moment (field-independent basis, Debye-Ang):
   XX=            -18.5700   YY=            -20.1799   ZZ=            -20.1813
   XY=             -0.0134   XZ=             -0.0130   YZ=              0.0002

 Normal termination of Gaussian 16 at Fri Sep 22 17:16:16 2023.
