 Gaussian 16, Revision A.03,
 Gaussian 16:  ES64L-G16RevA.03 25-Dec-2016

 ----------
 # hf/3-21g
 ----------

 -----------------------
 tmpdir/M2_conf_94_8.gjf
 -----------------------
 Symbolic Z-matrix:
 Charge =  0 Multiplicity = 1

                         Standard orientation:
 ---------------------------------------------------------------------
 Center     Atomic      Atomic             Coordinates (Angstroms)
 Number     Number       Type             X           Y           Z
 ---------------------------------------------------------------------
      1          1           0       -1.390553   -0.019460    1.054529
      2          6           0       -1.202559    0.000031   -0.002303
      3         17           0        0.689338    0.000087   -0.004453
      4          1           0       -1.556332   -0.883428   -0.498815
      5          1           0       -1.556511    0.901224   -0.466186
 ---------------------------------------------------------------------

 SCF Done:  E(RHF) =  -496.687917788     A.U. after   11 cycles

 The electronic state is 1-A.
 Alpha  occ. eigenvalues -- -104.08787 -11.24996 -10.48177  -7.94551  -7.94147
 Alpha  occ. eigenvalues --   -7.94147  -1.11320  -0.93326  -0.63334  -0.63209
 Alpha  occ. eigenvalues --   -0.51263  -0.43801  -0.43634
 Alpha virt. eigenvalues --    0.16505   0.27337   0.31369   0.31408   0.73846
 Alpha virt. eigenvalues --    0.80344   0.80956   0.85563   0.92928   0.94411
 Alpha virt. eigenvalues --    0.99736   1.31060   1.31194   1.32285   1.91771

 Mulliken charges:
               1
     1  H    0.273830
     2  C   -0.703153
     3  Cl  -0.107041
     4  H    0.268206
     5  H    0.268158
 Sum of Mulliken charges =  -0.00000

 Dipole moment (field-independent basis, Debye):
    X=             -2.8615    Y=             -0.0012    Z=              0.0604  Tot=              2.8621
 Quadrupole moment (field-independent basis, Debye-Ang):
   XX=            -18.5650   YY=            -20.1829   ZZ=            -20.1984
   XY=             -0.0031   XZ=              0.1666   YZ=             -0.0000

 Normal termination of Gaussian 16 at Fri Sep 22 17:16:28 2023.
