 Gaussian 16, Revision A.03,
 Gaussian 16:  ES64L-G16RevA.03 25-Dec-2016

 ----------
 # hf/3-21g
 ----------

 ------------------------
 tmpdir/M2_conf_221_7.gjf
 ------------------------
 Symbolic Z-matrix:
 Charge =  0 Multiplicity = 1

                         Standard orientation:
 ---------------------------------------------------------------------
 Center     Atomic      Atomic             Coordinates (Angstroms)
 Number     Number       Type             X           Y           Z
 ---------------------------------------------------------------------
      1          1           0        0.444379   -0.204264    0.952727
      2          6           0        0.020290    0.019126   -0.007931
      3          1           0        0.674443   -0.434286   -0.728431
      4          1           0       -0.181033    1.065819   -0.134722
      5          1           0       -1.059529   -0.542025   -0.041990
 ---------------------------------------------------------------------

 SCF Done:  E(RHF) =  -39.9658553429     A.U. after    9 cycles

 The electronic state is 1-A.
 Alpha  occ. eigenvalues --  -11.15720  -0.93814  -0.56678  -0.54234  -0.50549
 Alpha virt. eigenvalues --    0.28258   0.32335   0.35150   0.36092   0.90827
 Alpha virt. eigenvalues --    0.92967   0.98066   1.24880   1.32728   1.35683
 Alpha virt. eigenvalues --    1.38133   1.94416

 Mulliken charges:
               1
     1  H    0.204852
     2  C   -0.772038
     3  H    0.206317
     4  H    0.207615
     5  H    0.153254
 Sum of Mulliken charges =  -0.00000

 Dipole moment (field-independent basis, Debye):
    X=              0.0930    Y=              0.0165    Z=              0.0417  Tot=              0.1032
 Quadrupole moment (field-independent basis, Debye-Ang):
   XX=             -8.4362   YY=             -8.3731   ZZ=             -8.6246
   XY=             -0.1956   XZ=             -0.0231   YZ=             -0.0085

 Normal termination of Gaussian 16 at Fri Sep 22 17:19:44 2023.
