 Gaussian 16, Revision A.03,
 Gaussian 16:  ES64L-G16RevA.03 25-Dec-2016

 ----------
 # hf/3-21g
 ----------

 ------------------------
 tmpdir/M2_conf_129_9.gjf
 ------------------------
 Symbolic Z-matrix:
 Charge =  0 Multiplicity = 1

                         Standard orientation:
 ---------------------------------------------------------------------
 Center     Atomic      Atomic             Coordinates (Angstroms)
 Number     Number       Type             X           Y           Z
 ---------------------------------------------------------------------
      1          1           0        1.621040   -0.024911    0.990915
      2          6           0        1.202593   -0.000049    0.002532
      3         17           0       -0.689309   -0.000132    0.004831
      4          1           0        1.441033   -0.878537   -0.566329
      5          1           0        1.440623    0.905991   -0.521908
 ---------------------------------------------------------------------

 SCF Done:  E(RHF) =  -496.687700698     A.U. after   11 cycles

 The electronic state is 1-A.
 Alpha  occ. eigenvalues -- -104.08788 -11.24997 -10.48178  -7.94552  -7.94148
 Alpha  occ. eigenvalues --   -7.94148  -1.11322  -0.93324  -0.63297  -0.63254
 Alpha  occ. eigenvalues --   -0.51249  -0.43766  -0.43666
 Alpha virt. eigenvalues --    0.16480   0.27331   0.31363   0.31422   0.73847
 Alpha virt. eigenvalues --    0.80275   0.81059   0.85595   0.92814   0.94390
 Alpha virt. eigenvalues --    0.99865   1.30918   1.31281   1.32357   1.91760

 Mulliken charges:
               1
     1  H    0.265944
     2  C   -0.703536
     3  Cl  -0.106820
     4  H    0.272216
     5  H    0.272196
 Sum of Mulliken charges =  -0.00000

 Dipole moment (field-independent basis, Debye):
    X=              2.8611    Y=              0.0015    Z=             -0.0619  Tot=              2.8617
 Quadrupole moment (field-independent basis, Debye-Ang):
   XX=            -18.5631   YY=            -20.1780   ZZ=            -20.2067
   XY=             -0.0053   XZ=              0.1810   YZ=              0.0001

 Normal termination of Gaussian 16 at Fri Sep 22 17:17:20 2023.
