 Gaussian 16, Revision A.03,
 Gaussian 16:  ES64L-G16RevA.03 25-Dec-2016

 ----------
 # hf/3-21g
 ----------

 ------------------------
 tmpdir/M2_conf_114_6.gjf
 ------------------------
 Symbolic Z-matrix:
 Charge =  0 Multiplicity = 1

                         Standard orientation:
 ---------------------------------------------------------------------
 Center     Atomic      Atomic             Coordinates (Angstroms)
 Number     Number       Type             X           Y           Z
 ---------------------------------------------------------------------
      1          1           0       -1.372697   -0.013200    1.057046
      2          6           0       -1.202628    0.000052   -0.002713
      3         17           0        0.689274    0.000053   -0.005141
      4          1           0       -1.564378    0.898618   -0.465669
      5          1           0       -1.564826   -0.886626   -0.487710
 ---------------------------------------------------------------------

 SCF Done:  E(RHF) =  -496.687377349     A.U. after   11 cycles

 The electronic state is 1-A.
 Alpha  occ. eigenvalues -- -104.08793 -11.24994 -10.48183  -7.94557  -7.94153
 Alpha  occ. eigenvalues --   -7.94152  -1.11334  -0.93322  -0.63355  -0.63206
 Alpha  occ. eigenvalues --   -0.51243  -0.43815  -0.43614
 Alpha virt. eigenvalues --    0.16471   0.27341   0.31370   0.31413   0.73853
 Alpha virt. eigenvalues --    0.80293   0.80982   0.85580   0.92818   0.94538
 Alpha virt. eigenvalues --    0.99800   1.30994   1.31185   1.32321   1.91690

 Mulliken charges:
               1
     1  H    0.274498
     2  C   -0.703322
     3  Cl  -0.107051
     4  H    0.267948
     5  H    0.267928
 Sum of Mulliken charges =   0.00000

 Dipole moment (field-independent basis, Debye):
    X=             -2.8598    Y=             -0.0008    Z=              0.0705  Tot=              2.8607
 Quadrupole moment (field-independent basis, Debye-Ang):
   XX=            -18.5631   YY=            -20.1821   ZZ=            -20.2063
   XY=             -0.0019   XZ=              0.1917   YZ=             -0.0002

 Normal termination of Gaussian 16 at Fri Sep 22 17:16:58 2023.
