 Gaussian 16, Revision A.03,
 Gaussian 16:  ES64L-G16RevA.03 25-Dec-2016

 ----------
 # hf/3-21g
 ----------

 -----------------------
 tmpdir/M2_conf_49_4.gjf
 -----------------------
 Symbolic Z-matrix:
 Charge =  0 Multiplicity = 1

                         Standard orientation:
 ---------------------------------------------------------------------
 Center     Atomic      Atomic             Coordinates (Angstroms)
 Number     Number       Type             X           Y           Z
 ---------------------------------------------------------------------
      1          1           0        0.469980   -0.165835    0.943849
      2          6           0        0.016044    0.022097   -0.010515
      3          1           0        0.726560   -0.366861   -0.715138
      4          1           0       -0.290583    1.044580   -0.125026
      5          1           0       -1.002222   -0.644464   -0.040593
 ---------------------------------------------------------------------

 SCF Done:  E(RHF) =  -39.9649653371     A.U. after    9 cycles

 The electronic state is 1-A.
 Alpha  occ. eigenvalues --  -11.15720  -0.93838  -0.56972  -0.53828  -0.50612
 Alpha virt. eigenvalues --    0.28232   0.32339   0.35000   0.36186   0.90590
 Alpha virt. eigenvalues --    0.93267   0.98232   1.24827   1.32716   1.35387
 Alpha virt. eigenvalues --    1.38516   1.94290

 Mulliken charges:
               1
     1  H    0.204569
     2  C   -0.773083
     3  H    0.206606
     4  H    0.208034
     5  H    0.153874
 Sum of Mulliken charges =   0.00000

 Dipole moment (field-independent basis, Debye):
    X=              0.1009    Y=              0.0214    Z=              0.0539  Tot=              0.1164
 Quadrupole moment (field-independent basis, Debye-Ang):
   XX=             -8.3464   YY=             -8.3963   ZZ=             -8.6921
   XY=             -0.2189   XZ=             -0.0232   YZ=             -0.0107

 Normal termination of Gaussian 16 at Fri Sep 22 17:15:21 2023.
