 Gaussian 16, Revision A.03,
 Gaussian 16:  ES64L-G16RevA.03 25-Dec-2016

 ----------
 # hf/3-21g
 ----------

 ------------------------
 tmpdir/M2_conf_200_6.gjf
 ------------------------
 Symbolic Z-matrix:
 Charge =  0 Multiplicity = 1

                         Standard orientation:
 ---------------------------------------------------------------------
 Center     Atomic      Atomic             Coordinates (Angstroms)
 Number     Number       Type             X           Y           Z
 ---------------------------------------------------------------------
      1          1           0       -1.195464   -0.003095    1.066337
      2          6           0       -1.203813    0.000036   -0.007026
      3         17           0        0.688079    0.000024   -0.011502
      4          1           0       -1.639304    0.893927   -0.411895
      5          1           0       -1.639695   -0.891447   -0.416750
 ---------------------------------------------------------------------

 SCF Done:  E(RHF) =  -496.677429804     A.U. after   11 cycles

 The electronic state is 1-A.
 Alpha  occ. eigenvalues -- -104.08900 -11.24948 -10.48299  -7.94670  -7.94265
 Alpha  occ. eigenvalues --   -7.94261  -1.11607  -0.93252  -0.63701  -0.63165
 Alpha  occ. eigenvalues --   -0.50934  -0.43999  -0.43312
 Alpha virt. eigenvalues --    0.15903   0.27427   0.31403   0.31487   0.73969
 Alpha virt. eigenvalues --    0.79780   0.81030   0.85595   0.92457   0.95623
 Alpha virt. eigenvalues --    1.00666   1.30234   1.31163   1.32350   1.90216

 Mulliken charges:
               1
     1  H    0.280511
     2  C   -0.705386
     3  Cl  -0.107902
     4  H    0.266396
     5  H    0.266380
 Sum of Mulliken charges =  -0.00000

 Dipole moment (field-independent basis, Debye):
    X=             -2.8267    Y=             -0.0004    Z=              0.1702  Tot=              2.8319
 Quadrupole moment (field-independent basis, Debye-Ang):
   XX=            -18.5377   YY=            -20.1821   ZZ=            -20.3283
   XY=             -0.0008   XZ=              0.4285   YZ=             -0.0001

 Normal termination of Gaussian 16 at Fri Sep 22 17:19:13 2023.
