 Gaussian 16, Revision A.03,
 Gaussian 16:  ES64L-G16RevA.03 25-Dec-2016

 ----------
 # hf/3-21g
 ----------

 -----------------------
 tmpdir/M2_conf_92_7.gjf
 -----------------------
 Symbolic Z-matrix:
 Charge =  0 Multiplicity = 1

                         Standard orientation:
 ---------------------------------------------------------------------
 Center     Atomic      Atomic             Coordinates (Angstroms)
 Number     Number       Type             X           Y           Z
 ---------------------------------------------------------------------
      1          1           0        0.426488   -0.228308    0.957663
      2          6           0        0.022787    0.016790   -0.006479
      3          1           0        0.633847   -0.480410   -0.735867
      4          1           0       -0.102831    1.074094   -0.142504
      5          1           0       -1.094224   -0.466113   -0.040418
 ---------------------------------------------------------------------

 SCF Done:  E(RHF) =  -39.9662561357     A.U. after    9 cycles

 The electronic state is 1-A.
 Alpha  occ. eigenvalues --  -11.15720  -0.93803  -0.56505  -0.54469  -0.50510
 Alpha virt. eigenvalues --    0.28272   0.32327   0.35239   0.36031   0.90975
 Alpha virt. eigenvalues --    0.92794   0.97978   1.24911   1.32710   1.35876
 Alpha virt. eigenvalues --    1.37918   1.94476

 Mulliken charges:
               1
     1  H    0.205062
     2  C   -0.771548
     3  H    0.206206
     4  H    0.207371
     5  H    0.152908
 Sum of Mulliken charges =  -0.00000

 Dipole moment (field-independent basis, Debye):
    X=              0.0888    Y=              0.0132    Z=              0.0348  Tot=              0.0963
 Quadrupole moment (field-independent basis, Debye-Ang):
   XX=             -8.4885   YY=             -8.3597   ZZ=             -8.5855
   XY=             -0.1742   XZ=             -0.0220   YZ=             -0.0066

 Normal termination of Gaussian 16 at Fri Sep 22 17:16:25 2023.
