 Gaussian 16, Revision A.03,
 Gaussian 16:  ES64L-G16RevA.03 25-Dec-2016

 ----------
 # hf/3-21g
 ----------

 ------------------------
 tmpdir/M2_conf_236_9.gjf
 ------------------------
 Symbolic Z-matrix:
 Charge =  0 Multiplicity = 1

                         Standard orientation:
 ---------------------------------------------------------------------
 Center     Atomic      Atomic             Coordinates (Angstroms)
 Number     Number       Type             X           Y           Z
 ---------------------------------------------------------------------
      1          1           0        0.945193   -0.001671    1.025159
      2          6           0        1.207109    0.000022   -0.016001
      3         17           0       -0.684787    0.000030   -0.018327
      4          1           0        1.726774   -0.892023   -0.309942
      5          1           0        1.726757    0.893056   -0.307652
 ---------------------------------------------------------------------

 SCF Done:  E(RHF) =  -496.646253458     A.U. after   11 cycles

 The electronic state is 1-A.
 Alpha  occ. eigenvalues -- -104.09294 -11.24694 -10.48748  -7.95112  -7.94701
 Alpha  occ. eigenvalues --   -7.94685  -1.12597  -0.93025  -0.64557  -0.63070
 Alpha  occ. eigenvalues --   -0.50454  -0.44501  -0.42333
 Alpha virt. eigenvalues --    0.14487   0.27897   0.31550   0.31667   0.74163
 Alpha virt. eigenvalues --    0.79008   0.80659   0.84876   0.93647   0.96936
 Alpha virt. eigenvalues --    1.02049   1.28497   1.31251   1.31836   1.86464

 Mulliken charges:
               1
     1  H    0.288175
     2  C   -0.709009
     3  Cl  -0.111989
     4  H    0.266428
     5  H    0.266396
 Sum of Mulliken charges =  -0.00000

 Dipole moment (field-independent basis, Debye):
    X=              2.7034    Y=             -0.0006    Z=              0.3201  Tot=              2.7223
 Quadrupole moment (field-independent basis, Debye-Ang):
   XX=            -18.5137   YY=            -20.1704   ZZ=            -20.6639
   XY=              0.0009   XZ=             -0.6733   YZ=             -0.0000

 Normal termination of Gaussian 16 at Fri Sep 22 17:20:07 2023.
