 Gaussian 16, Revision A.03,
 Gaussian 16:  ES64L-G16RevA.03 25-Dec-2016

 ----------
 # hf/3-21g
 ----------

 -----------------------
 tmpdir/M2_conf_32_3.gjf
 -----------------------
 Symbolic Z-matrix:
 Charge =  0 Multiplicity = 1

                         Standard orientation:
 ---------------------------------------------------------------------
 Center     Atomic      Atomic             Coordinates (Angstroms)
 Number     Number       Type             X           Y           Z
 ---------------------------------------------------------------------
      1          6           0       -1.146583    0.000021    0.000011
      2         17           0        0.660017   -0.000015   -0.000003
      3          1           0       -1.446951   -0.278181    0.992269
      4          1           0       -1.446626    0.998734   -0.255256
      5          1           0       -1.447204   -0.720419   -0.737020
 ---------------------------------------------------------------------

 SCF Done:  E(RHF) =  -496.686768621     A.U. after   10 cycles

 The electronic state is 1-A.
 Alpha  occ. eigenvalues -- -104.08689 -11.24070 -10.48333  -7.94726  -7.94277
 Alpha  occ. eigenvalues --   -7.94277  -1.13584  -0.92422  -0.63533  -0.63528
 Alpha  occ. eigenvalues --   -0.52826  -0.43684  -0.43684
 Alpha virt. eigenvalues --    0.19664   0.27724   0.31409   0.31412   0.74044
 Alpha virt. eigenvalues --    0.81028   0.81031   0.85385   0.93752   0.93765
 Alpha virt. eigenvalues --    0.97196   1.31527   1.31536   1.33236   1.94842

 Mulliken charges:
               1
     1  C   -0.758148
     2  Cl  -0.050139
     3  H    0.269457
     4  H    0.269427
     5  H    0.269403
 Sum of Mulliken charges =   0.00000

 Dipole moment (field-independent basis, Debye):
    X=             -2.5865    Y=              0.0000    Z=              0.0001  Tot=              2.5865
 Quadrupole moment (field-independent basis, Debye-Ang):
   XX=            -19.0844   YY=            -20.0958   ZZ=            -20.0971
   XY=              0.0008   XZ=             -0.0001   YZ=             -0.0001

 Normal termination of Gaussian 16 at Fri Sep 22 17:14:55 2023.
