 Gaussian 16, Revision A.03,
 Gaussian 16:  ES64L-G16RevA.03 25-Dec-2016

 ----------
 # hf/3-21g
 ----------

 -----------------------
 tmpdir/M2_conf_41_1.gjf
 -----------------------
 Symbolic Z-matrix:
 Charge =  0 Multiplicity = 1

                         Standard orientation:
 ---------------------------------------------------------------------
 Center     Atomic      Atomic             Coordinates (Angstroms)
 Number     Number       Type             X           Y           Z
 ---------------------------------------------------------------------
      1          6           0       -0.032244   -0.000060    0.014509
      2          1           0       -0.143616   -0.001529    0.989467
      3          1           0       -0.414172   -0.892342   -0.443906
      4          1           0       -0.416449    0.892598   -0.441728
      5          1           0        1.167700    0.001634   -0.190888
 ---------------------------------------------------------------------

 SCF Done:  E(RHF) =  -39.9588302981     A.U. after    9 cycles

 The electronic state is 1-A.
 Alpha  occ. eigenvalues --  -11.14656  -0.94992  -0.57669  -0.55512  -0.50290
 Alpha virt. eigenvalues --    0.28544   0.32619   0.35681   0.37763   0.87729
 Alpha virt. eigenvalues --    0.92135   0.97566   1.25406   1.34212   1.37115
 Alpha virt. eigenvalues --    1.45886   1.96111

 Mulliken charges:
               1
     1  C   -0.780723
     2  H    0.227967
     3  H    0.202774
     4  H    0.202720
     5  H    0.147262
 Sum of Mulliken charges =   0.00000

 Dipole moment (field-independent basis, Debye):
    X=             -0.0846    Y=             -0.0003    Z=              0.0618  Tot=              0.1048
 Quadrupole moment (field-independent basis, Debye-Ang):
   XX=             -8.5573   YY=             -8.2972   ZZ=             -8.3754
   XY=             -0.0005   XZ=              0.0471   YZ=             -0.0001

 Normal termination of Gaussian 16 at Fri Sep 22 17:15:08 2023.
