 Gaussian 16, Revision A.03,
 Gaussian 16:  ES64L-G16RevA.03 25-Dec-2016

 ----------
 # hf/3-21g
 ----------

 ------------------------
 tmpdir/M2_conf_280_7.gjf
 ------------------------
 Symbolic Z-matrix:
 Charge =  0 Multiplicity = 1

                         Standard orientation:
 ---------------------------------------------------------------------
 Center     Atomic      Atomic             Coordinates (Angstroms)
 Number     Number       Type             X           Y           Z
 ---------------------------------------------------------------------
      1          1           0        0.441627   -0.208042    0.953554
      2          6           0        0.020701    0.018775   -0.007691
      3          1           0        0.668359   -0.441609   -0.729637
      4          1           0       -0.168967    1.067463   -0.135969
      5          1           0       -1.065224   -0.530465   -0.041799
 ---------------------------------------------------------------------

 SCF Done:  E(RHF) =  -39.9659268236     A.U. after    9 cycles

 The electronic state is 1-A.
 Alpha  occ. eigenvalues --  -11.15720  -0.93812  -0.56650  -0.54272  -0.50543
 Alpha virt. eigenvalues --    0.28260   0.32334   0.35164   0.36082   0.90850
 Alpha virt. eigenvalues --    0.92939   0.98051   1.24885   1.32726   1.35714
 Alpha virt. eigenvalues --    1.38097   1.94427

 Mulliken charges:
               1
     1  H    0.204885
     2  C   -0.771951
     3  H    0.206295
     4  H    0.207574
     5  H    0.153197
 Sum of Mulliken charges =  -0.00000

 Dipole moment (field-independent basis, Debye):
    X=              0.0923    Y=              0.0160    Z=              0.0406  Tot=              0.1021
 Quadrupole moment (field-independent basis, Debye-Ang):
   XX=             -8.4448   YY=             -8.3708   ZZ=             -8.6182
   XY=             -0.1926   XZ=             -0.0229   YZ=             -0.0082

 Normal termination of Gaussian 16 at Fri Sep 22 17:21:14 2023.
