 Gaussian 16, Revision A.03,
 Gaussian 16:  ES64L-G16RevA.03 25-Dec-2016

 ----------
 # hf/3-21g
 ----------

 ------------------------
 tmpdir/M2_conf_120_7.gjf
 ------------------------
 Symbolic Z-matrix:
 Charge =  0 Multiplicity = 1

                         Standard orientation:
 ---------------------------------------------------------------------
 Center     Atomic      Atomic             Coordinates (Angstroms)
 Number     Number       Type             X           Y           Z
 ---------------------------------------------------------------------
      1          1           0       -1.061605    0.025804   -0.309095
      2          6           0       -0.026617   -0.029696   -0.029206
      3          1           0        0.804882   -0.207931   -0.684544
      4          1           0        0.143886   -0.713649    0.780307
      5          1           0        0.272541    1.073949    0.388566
 ---------------------------------------------------------------------

 SCF Done:  E(RHF) =  -39.9589130402     A.U. after    9 cycles

 The electronic state is 1-A.
 Alpha  occ. eigenvalues --  -11.15770  -0.93911  -0.58298  -0.53765  -0.49176
 Alpha virt. eigenvalues --    0.28292   0.31327   0.34847   0.36692   0.90233
 Alpha virt. eigenvalues --    0.95773   0.97284   1.25344   1.31236   1.35424
 Alpha virt. eigenvalues --    1.39864   1.94485

 Mulliken charges:
               1
     1  H    0.214198
     2  C   -0.784208
     3  H    0.214915
     4  H    0.206299
     5  H    0.148796
 Sum of Mulliken charges =  -0.00000

 Dipole moment (field-independent basis, Debye):
    X=              0.0587    Y=             -0.0643    Z=              0.0311  Tot=              0.0924
 Quadrupole moment (field-independent basis, Debye-Ang):
   XX=             -7.9358   YY=             -8.6658   ZZ=             -8.8737
   XY=             -0.1083   XZ=             -0.0274   YZ=             -0.1519

 Normal termination of Gaussian 16 at Fri Sep 22 17:17:06 2023.
