 Gaussian 16, Revision A.03,
 Gaussian 16:  ES64L-G16RevA.03 25-Dec-2016

 ----------
 # hf/3-21g
 ----------

 ------------------------
 tmpdir/M2_conf_175_6.gjf
 ------------------------
 Symbolic Z-matrix:
 Charge =  0 Multiplicity = 1

                         Standard orientation:
 ---------------------------------------------------------------------
 Center     Atomic      Atomic             Coordinates (Angstroms)
 Number     Number       Type             X           Y           Z
 ---------------------------------------------------------------------
      1          1           0       -1.165173   -0.002650    1.064796
      2          6           0       -1.204115    0.000035   -0.007894
      3         17           0        0.687784    0.000022   -0.012483
      4          1           0       -1.651044    0.893726   -0.400555
      5          1           0       -1.651424   -0.891649   -0.404659
 ---------------------------------------------------------------------

 SCF Done:  E(RHF) =  -496.674830923     A.U. after   11 cycles

 The electronic state is 1-A.
 Alpha  occ. eigenvalues -- -104.08930 -11.24933 -10.48331  -7.94703  -7.94297
 Alpha  occ. eigenvalues --   -7.94292  -1.11683  -0.93233  -0.63782  -0.63158
 Alpha  occ. eigenvalues --   -0.50869  -0.44041  -0.43237
 Alpha virt. eigenvalues --    0.15766   0.27457   0.31413   0.31503   0.73994
 Alpha virt. eigenvalues --    0.79692   0.81004   0.85545   0.92522   0.95797
 Alpha virt. eigenvalues --    1.00838   1.30072   1.31164   1.32319   1.89851

 Mulliken charges:
               1
     1  H    0.281488
     2  C   -0.705761
     3  Cl  -0.108234
     4  H    0.266261
     5  H    0.266246
 Sum of Mulliken charges =  -0.00000

 Dipole moment (field-independent basis, Debye):
    X=             -2.8176    Y=             -0.0004    Z=              0.1877  Tot=              2.8239
 Quadrupole moment (field-independent basis, Debye-Ang):
   XX=            -18.5327   YY=            -20.1816   ZZ=            -20.3590
   XY=             -0.0007   XZ=              0.4647   YZ=             -0.0001

 Normal termination of Gaussian 16 at Fri Sep 22 17:18:30 2023.
