 Gaussian 16, Revision A.03,
 Gaussian 16:  ES64L-G16RevA.03 25-Dec-2016

 ----------
 # hf/3-21g
 ----------

 ----------------------
 tmpdir/M2_conf_2_8.gjf
 ----------------------
 Symbolic Z-matrix:
 Charge =  0 Multiplicity = 1

                         Standard orientation:
 ---------------------------------------------------------------------
 Center     Atomic      Atomic             Coordinates (Angstroms)
 Number     Number       Type             X           Y           Z
 ---------------------------------------------------------------------
      1          1           0       -1.338998   -0.008772    1.061460
      2          6           0       -1.202782    0.000016   -0.003428
      3         17           0        0.689117    0.000058   -0.006422
      4          1           0       -1.579552   -0.888603   -0.473086
      5          1           0       -1.579745    0.896289   -0.458634
 ---------------------------------------------------------------------

 SCF Done:  E(RHF) =  -496.686136905     A.U. after   11 cycles

 The electronic state is 1-A.
 Alpha  occ. eigenvalues -- -104.08805 -11.24990 -10.48196  -7.94570  -7.94166
 Alpha  occ. eigenvalues --   -7.94165  -1.11366  -0.93313  -0.63406  -0.63196
 Alpha  occ. eigenvalues --   -0.51199  -0.43843  -0.43572
 Alpha virt. eigenvalues --    0.16395   0.27347   0.31373   0.31426   0.73869
 Alpha virt. eigenvalues --    0.80193   0.81025   0.85611   0.92669   0.94742
 Alpha virt. eigenvalues --    0.99936   1.30888   1.31182   1.32335   1.91499

 Mulliken charges:
               1
     1  H    0.275636
     2  C   -0.703653
     3  Cl  -0.107101
     4  H    0.267583
     5  H    0.267536
 Sum of Mulliken charges =  -0.00000

 Dipole moment (field-independent basis, Debye):
    X=             -2.8558    Y=             -0.0009    Z=              0.0889  Tot=              2.8572
 Quadrupole moment (field-independent basis, Debye-Ang):
   XX=            -18.5594   YY=            -20.1835   ZZ=            -20.2207
   XY=             -0.0020   XZ=              0.2400   YZ=              0.0000

 Normal termination of Gaussian 16 at Fri Sep 22 17:14:10 2023.
