 Gaussian 16, Revision A.03,
 Gaussian 16:  ES64L-G16RevA.03 25-Dec-2016

 ----------
 # hf/3-21g
 ----------

 ------------------------
 tmpdir/M2_conf_261_6.gjf
 ------------------------
 Symbolic Z-matrix:
 Charge =  0 Multiplicity = 1

                         Standard orientation:
 ---------------------------------------------------------------------
 Center     Atomic      Atomic             Coordinates (Angstroms)
 Number     Number       Type             X           Y           Z
 ---------------------------------------------------------------------
      1          1           0       -1.237417   -0.003948    1.066957
      2          6           0       -1.203452    0.000038   -0.005898
      3         17           0        0.688448    0.000027   -0.010086
      4          1           0       -1.622542    0.894314   -0.426902
      5          1           0       -1.622948   -0.891055   -0.433198
 ---------------------------------------------------------------------

 SCF Done:  E(RHF) =  -496.680572622     A.U. after   11 cycles

 The electronic state is 1-A.
 Alpha  occ. eigenvalues -- -104.08865 -11.24964 -10.48260  -7.94633  -7.94228
 Alpha  occ. eigenvalues --   -7.94225  -1.11518  -0.93274  -0.63599  -0.63175
 Alpha  occ. eigenvalues --   -0.51021  -0.43947  -0.43404
 Alpha virt. eigenvalues --    0.16073   0.27394   0.31391   0.31467   0.73936
 Alpha virt. eigenvalues --    0.79902   0.81052   0.85635   0.92428   0.95377
 Alpha virt. eigenvalues --    1.00436   1.30442   1.31164   1.32376   1.90669

 Mulliken charges:
               1
     1  H    0.279134
     2  C   -0.704860
     3  Cl  -0.107550
     4  H    0.266647
     5  H    0.266629
 Sum of Mulliken charges =  -0.00000

 Dipole moment (field-independent basis, Debye):
    X=             -2.8375    Y=             -0.0005    Z=              0.1462  Tot=              2.8413
 Quadrupole moment (field-independent basis, Debye-Ang):
   XX=            -18.5445   YY=            -20.1825   ZZ=            -20.2905
   XY=             -0.0009   XZ=              0.3759   YZ=             -0.0001

 Normal termination of Gaussian 16 at Fri Sep 22 17:20:45 2023.
