 Gaussian 16, Revision A.03,
 Gaussian 16:  ES64L-G16RevA.03 25-Dec-2016

 ----------
 # hf/3-21g
 ----------

 ------------------------
 tmpdir/M2_conf_100_2.gjf
 ------------------------
 Symbolic Z-matrix:
 Charge =  0 Multiplicity = 1

                         Standard orientation:
 ---------------------------------------------------------------------
 Center     Atomic      Atomic             Coordinates (Angstroms)
 Number     Number       Type             X           Y           Z
 ---------------------------------------------------------------------
      1          6           0        0.029358   -0.009613   -0.000014
      2          1           0        0.558559    0.961872   -0.007869
      3          1           0        0.215628   -0.571226    0.895583
      4          1           0        0.209674   -0.583087   -0.889529
      5          1           0       -1.160009    0.250118    0.001900
 ---------------------------------------------------------------------

 SCF Done:  E(RHF) =  -39.9665229987     A.U. after    9 cycles

 The electronic state is 1-A.
 Alpha  occ. eigenvalues --  -11.16108  -0.93430  -0.55692  -0.54939  -0.50244
 Alpha virt. eigenvalues --    0.28186   0.31976   0.35053   0.35689   0.91844
 Alpha virt. eigenvalues --    0.93303   0.97837   1.24883   1.30798   1.35389
 Alpha virt. eigenvalues --    1.36867   1.94265

 Mulliken charges:
               1
     1  C   -0.765785
     2  H    0.197887
     3  H    0.207626
     4  H    0.207577
     5  H    0.152695
 Sum of Mulliken charges =  -0.00000

 Dipole moment (field-independent basis, Debye):
    X=              0.0557    Y=             -0.0332    Z=              0.0001  Tot=              0.0649
 Quadrupole moment (field-independent basis, Debye-Ang):
   XX=             -8.6714   YY=             -8.4137   ZZ=             -8.4220
   XY=              0.0651   XZ=              0.0012   YZ=              0.0001

 Normal termination of Gaussian 16 at Fri Sep 22 17:16:37 2023.
