 Gaussian 16, Revision A.03,
 Gaussian 16:  ES64L-G16RevA.03 25-Dec-2016

 ----------
 # hf/3-21g
 ----------

 ------------------------
 tmpdir/M2_conf_186_6.gjf
 ------------------------
 Symbolic Z-matrix:
 Charge =  0 Multiplicity = 1

                         Standard orientation:
 ---------------------------------------------------------------------
 Center     Atomic      Atomic             Coordinates (Angstroms)
 Number     Number       Type             X           Y           Z
 ---------------------------------------------------------------------
      1          1           0       -0.857948   -0.000889    0.994102
      2          6           0       -1.208738    0.000027   -0.020360
      3         17           0        0.683164    0.000012   -0.019862
      4          1           0       -1.751581    0.892954   -0.266563
      5          1           0       -1.751830   -0.892426   -0.267720
 ---------------------------------------------------------------------

 SCF Done:  E(RHF) =  -496.629043714     A.U. after   11 cycles

 The electronic state is 1-A.
 Alpha  occ. eigenvalues -- -104.09539 -11.24492 -10.49039  -7.95400  -7.94983
 Alpha  occ. eigenvalues --   -7.94960  -1.13222  -0.92888  -0.64964  -0.62996
 Alpha  occ. eigenvalues --   -0.50413  -0.44793  -0.41717
 Alpha virt. eigenvalues --    0.13855   0.28232   0.31656   0.31765   0.74190
 Alpha virt. eigenvalues --    0.78697   0.80496   0.84632   0.94069   0.97345
 Alpha virt. eigenvalues --    1.02460   1.27510   1.31336   1.31572   1.84921

 Mulliken charges:
               1
     1  H    0.290785
     2  C   -0.711358
     3  Cl  -0.113368
     4  H    0.266974
     5  H    0.266967
 Sum of Mulliken charges =   0.00000

 Dipole moment (field-independent basis, Debye):
    X=             -2.6221    Y=             -0.0003    Z=              0.3779  Tot=              2.6492
 Quadrupole moment (field-independent basis, Debye-Ang):
   XX=            -18.5278   YY=            -20.1581   ZZ=            -20.8243
   XY=             -0.0004   XZ=              0.7175   YZ=             -0.0001

 Normal termination of Gaussian 16 at Fri Sep 22 17:18:51 2023.
