 Gaussian 16, Revision A.03,
 Gaussian 16:  ES64L-G16RevA.03 25-Dec-2016

 ----------
 # hf/3-21g
 ----------

 -----------------------
 tmpdir/M2_conf_17_4.gjf
 -----------------------
 Symbolic Z-matrix:
 Charge =  0 Multiplicity = 1

                         Standard orientation:
 ---------------------------------------------------------------------
 Center     Atomic      Atomic             Coordinates (Angstroms)
 Number     Number       Type             X           Y           Z
 ---------------------------------------------------------------------
      1          1           0       -1.057592    0.040474   -0.315279
      2          6           0       -0.025788   -0.029401   -0.027730
      3          1           0        0.795770   -0.227694   -0.689805
      4          1           0        0.127621   -0.709136    0.788988
      5          1           0        0.288927    1.072760    0.382476
 ---------------------------------------------------------------------

 SCF Done:  E(RHF) =  -39.9599107678     A.U. after    9 cycles

 The electronic state is 1-A.
 Alpha  occ. eigenvalues --  -11.15766  -0.93892  -0.58130  -0.53870  -0.49282
 Alpha virt. eigenvalues --    0.28300   0.31429   0.34888   0.36632   0.90316
 Alpha virt. eigenvalues --    0.95429   0.97294   1.25339   1.31334   1.35482
 Alpha virt. eigenvalues --    1.39651   1.94509

 Mulliken charges:
               1
     1  H    0.213433
     2  C   -0.782453
     3  H    0.213914
     4  H    0.206181
     5  H    0.148924
 Sum of Mulliken charges =   0.00000

 Dipole moment (field-independent basis, Debye):
    X=              0.0525    Y=             -0.0647    Z=              0.0275  Tot=              0.0878
 Quadrupole moment (field-independent basis, Debye-Ang):
   XX=             -7.9713   YY=             -8.6606   ZZ=             -8.8398
   XY=             -0.1153   XZ=             -0.0297   YZ=             -0.1489

 Normal termination of Gaussian 16 at Fri Sep 22 17:14:32 2023.
