 Gaussian 16, Revision A.03,
 Gaussian 16:  ES64L-G16RevA.03 25-Dec-2016

 ----------
 # hf/3-21g
 ----------

 -----------------------
 tmpdir/M2_conf_48_2.gjf
 -----------------------
 Symbolic Z-matrix:
 Charge =  0 Multiplicity = 1

                         Standard orientation:
 ---------------------------------------------------------------------
 Center     Atomic      Atomic             Coordinates (Angstroms)
 Number     Number       Type             X           Y           Z
 ---------------------------------------------------------------------
      1          6           0        0.032275    0.000013    0.013414
      2          1           0        0.153997   -0.002888    0.995394
      3          1           0        0.413026   -0.890205   -0.449985
      4          1           0        0.408809    0.894943   -0.444783
      5          1           0       -1.169480   -0.001932   -0.181108
 ---------------------------------------------------------------------

 SCF Done:  E(RHF) =  -39.9602449712     A.U. after    9 cycles

 The electronic state is 1-A.
 Alpha  occ. eigenvalues --  -11.14749  -0.94869  -0.57485  -0.55524  -0.50288
 Alpha virt. eigenvalues --    0.28531   0.32596   0.35683   0.37572   0.88096
 Alpha virt. eigenvalues --    0.92119   0.97558   1.25382   1.34126   1.37106
 Alpha virt. eigenvalues --    1.44926   1.95942

 Mulliken charges:
               1
     1  C   -0.780062
     2  H    0.226214
     3  H    0.203124
     4  H    0.203079
     5  H    0.147645
 Sum of Mulliken charges =  -0.00000

 Dipole moment (field-independent basis, Debye):
    X=              0.0839    Y=             -0.0001    Z=              0.0572  Tot=              0.1015
 Quadrupole moment (field-independent basis, Debye-Ang):
   XX=             -8.5670   YY=             -8.3053   ZZ=             -8.3769
   XY=             -0.0011   XZ=             -0.0439   YZ=             -0.0005

 Normal termination of Gaussian 16 at Fri Sep 22 17:15:19 2023.
