 Gaussian 16, Revision A.03,
 Gaussian 16:  ES64L-G16RevA.03 25-Dec-2016

 ----------
 # hf/3-21g
 ----------

 ------------------------
 tmpdir/M2_conf_195_2.gjf
 ------------------------
 Symbolic Z-matrix:
 Charge =  0 Multiplicity = 1

                         Standard orientation:
 ---------------------------------------------------------------------
 Center     Atomic      Atomic             Coordinates (Angstroms)
 Number     Number       Type             X           Y           Z
 ---------------------------------------------------------------------
      1          6           0        0.021419   -0.021694   -0.000015
      2          1           0        0.894221    0.706826   -0.004126
      3          1           0       -0.013633   -0.615158    0.893725
      4          1           0       -0.019931   -0.618608   -0.891422
      5          1           0       -0.989170    0.657103    0.001912
 ---------------------------------------------------------------------

 SCF Done:  E(RHF) =  -39.9649804595     A.U. after    9 cycles

 The electronic state is 1-A.
 Alpha  occ. eigenvalues --  -11.16462  -0.93142  -0.55746  -0.54313  -0.50200
 Alpha virt. eigenvalues --    0.28020   0.31657   0.34562   0.35688   0.91780
 Alpha virt. eigenvalues --    0.94388   0.98243   1.24619   1.28887   1.34651
 Alpha virt. eigenvalues --    1.36789   1.93924

 Mulliken charges:
               1
     1  C   -0.760604
     2  H    0.189533
     3  H    0.208618
     4  H    0.208568
     5  H    0.153886
 Sum of Mulliken charges =   0.00000

 Dipole moment (field-independent basis, Debye):
    X=              0.0203    Y=             -0.0636    Z=              0.0001  Tot=              0.0668
 Quadrupole moment (field-independent basis, Debye-Ang):
   XX=             -8.6088   YY=             -8.5105   ZZ=             -8.4508
   XY=              0.1465   XZ=              0.0012   YZ=             -0.0003

 Normal termination of Gaussian 16 at Fri Sep 22 17:19:05 2023.
