 Gaussian 16, Revision A.03,
 Gaussian 16:  ES64L-G16RevA.03 25-Dec-2016

 ----------
 # hf/3-21g
 ----------

 -----------------------
 tmpdir/M2_conf_20_4.gjf
 -----------------------
 Symbolic Z-matrix:
 Charge =  0 Multiplicity = 1

                         Standard orientation:
 ---------------------------------------------------------------------
 Center     Atomic      Atomic             Coordinates (Angstroms)
 Number     Number       Type             X           Y           Z
 ---------------------------------------------------------------------
      1          1           0       -1.031631    0.164246   -0.337457
      2          6           0       -0.024050   -0.027240   -0.020754
      3          1           0        0.723627   -0.373795   -0.708860
      4          1           0        0.021274   -0.671695    0.836700
      5          1           0        0.431028    1.044686    0.334142
 ---------------------------------------------------------------------

 SCF Done:  E(RHF) =  -39.9634270679     A.U. after    9 cycles

 The electronic state is 1-A.
 Alpha  occ. eigenvalues --  -11.15750  -0.93830  -0.57379  -0.54368  -0.49679
 Alpha virt. eigenvalues --    0.28324   0.31791   0.35111   0.36353   0.90717
 Alpha virt. eigenvalues --    0.94116   0.97353   1.25286   1.31720   1.35828
 Alpha virt. eigenvalues --    1.38764   1.94603

 Mulliken charges:
               1
     1  H    0.210491
     2  C   -0.776413
     3  H    0.210337
     4  H    0.206043
     5  H    0.149541
 Sum of Mulliken charges =   0.00000

 Dipole moment (field-independent basis, Debye):
    X=              0.0224    Y=             -0.0673    Z=              0.0148  Tot=              0.0725
 Quadrupole moment (field-independent basis, Debye-Ang):
   XX=             -8.1445   YY=             -8.6204   ZZ=             -8.6929
   XY=             -0.1708   XZ=             -0.0447   YZ=             -0.1259

 Normal termination of Gaussian 16 at Fri Sep 22 17:14:37 2023.
