 Gaussian 16, Revision A.03,
 Gaussian 16:  ES64L-G16RevA.03 25-Dec-2016

 ----------
 # hf/3-21g
 ----------

 -----------------------
 tmpdir/M2_conf_24_5.gjf
 -----------------------
 Symbolic Z-matrix:
 Charge =  0 Multiplicity = 1

                         Standard orientation:
 ---------------------------------------------------------------------
 Center     Atomic      Atomic             Coordinates (Angstroms)
 Number     Number       Type             X           Y           Z
 ---------------------------------------------------------------------
      1          1           0        1.059673    0.032602   -0.311852
      2          6           0        0.026225   -0.029557   -0.028463
      3          1           0       -0.800058   -0.217768   -0.687594
      4          1           0       -0.136451   -0.711036    0.785006
      5          1           0       -0.280515    1.073546    0.385220
 ---------------------------------------------------------------------

 SCF Done:  E(RHF) =  -39.9594355120     A.U. after    9 cycles

 The electronic state is 1-A.
 Alpha  occ. eigenvalues --  -11.15768  -0.93901  -0.58214  -0.53814  -0.49232
 Alpha virt. eigenvalues --    0.28296   0.31382   0.34865   0.36662   0.90278
 Alpha virt. eigenvalues --    0.95591   0.97287   1.25343   1.31292   1.35446
 Alpha virt. eigenvalues --    1.39758   1.94502

 Mulliken charges:
               1
     1  H    0.213824
     2  C   -0.783299
     3  H    0.214400
     4  H    0.206214
     5  H    0.148861
 Sum of Mulliken charges =  -0.00000

 Dipole moment (field-independent basis, Debye):
    X=             -0.0556    Y=             -0.0644    Z=              0.0293  Tot=              0.0900
 Quadrupole moment (field-independent basis, Debye-Ang):
   XX=             -7.9538   YY=             -8.6640   ZZ=             -8.8558
   XY=              0.1117   XZ=              0.0285   YZ=             -0.1502

 Normal termination of Gaussian 16 at Fri Sep 22 17:14:43 2023.
