 Gaussian 16, Revision A.03,
 Gaussian 16:  ES64L-G16RevA.03 25-Dec-2016

 ----------
 # hf/3-21g
 ----------

 ------------------------
 tmpdir/M2_conf_137_6.gjf
 ------------------------
 Symbolic Z-matrix:
 Charge =  0 Multiplicity = 1

                         Standard orientation:
 ---------------------------------------------------------------------
 Center     Atomic      Atomic             Coordinates (Angstroms)
 Number     Number       Type             X           Y           Z
 ---------------------------------------------------------------------
      1          1           0       -1.334324   -0.008485    1.061717
      2          6           0       -1.202803    0.000046   -0.003561
      3         17           0        0.689094    0.000042   -0.006595
      4          1           0       -1.581511    0.896413   -0.457121
      5          1           0       -1.581949   -0.888912   -0.471120
 ---------------------------------------------------------------------

 SCF Done:  E(RHF) =  -496.685940848     A.U. after   11 cycles

 The electronic state is 1-A.
 Alpha  occ. eigenvalues -- -104.08807 -11.24989 -10.48198  -7.94572  -7.94168
 Alpha  occ. eigenvalues --   -7.94167  -1.11372  -0.93312  -0.63411  -0.63196
 Alpha  occ. eigenvalues --   -0.51192  -0.43848  -0.43566
 Alpha virt. eigenvalues --    0.16383   0.27349   0.31373   0.31426   0.73872
 Alpha virt. eigenvalues --    0.80181   0.81027   0.85614   0.92639   0.94783
 Alpha virt. eigenvalues --    0.99957   1.30858   1.31177   1.32356   1.91471

 Mulliken charges:
               1
     1  H    0.275838
     2  C   -0.703718
     3  Cl  -0.107107
     4  H    0.267503
     5  H    0.267484
 Sum of Mulliken charges =  -0.00000

 Dipole moment (field-independent basis, Debye):
    X=             -2.8552    Y=             -0.0007    Z=              0.0918  Tot=              2.8567
 Quadrupole moment (field-independent basis, Debye-Ang):
   XX=            -18.5587   YY=            -20.1824   ZZ=            -20.2243
   XY=             -0.0015   XZ=              0.2459   YZ=             -0.0002

 Normal termination of Gaussian 16 at Fri Sep 22 17:17:32 2023.
