 Gaussian 16, Revision A.03,
 Gaussian 16:  ES64L-G16RevA.03 25-Dec-2016

 ----------
 # hf/3-21g
 ----------

 -----------------------
 tmpdir/M2_conf_77_8.gjf
 -----------------------
 Symbolic Z-matrix:
 Charge =  0 Multiplicity = 1

                         Standard orientation:
 ---------------------------------------------------------------------
 Center     Atomic      Atomic             Coordinates (Angstroms)
 Number     Number       Type             X           Y           Z
 ---------------------------------------------------------------------
      1          1           0        1.482177   -0.890961   -0.528856
      2          6           0        1.202372    0.000337    0.000212
      3         17           0       -0.689534    0.000715    0.000419
      4          1           0        1.512755   -0.017288    1.027602
      5          1           0        1.512907    0.894077   -0.507149
 ---------------------------------------------------------------------

 SCF Done:  E(RHF) =  -496.689431236     A.U. after   11 cycles

 The electronic state is 1-A.
 Alpha  occ. eigenvalues -- -104.08772 -11.25001 -10.48162  -7.94536  -7.94133
 Alpha  occ. eigenvalues --   -7.94133  -1.11281  -0.93337  -0.63256  -0.63236
 Alpha  occ. eigenvalues --   -0.51321  -0.43739  -0.43714
 Alpha virt. eigenvalues --    0.16602   0.27332   0.31374   0.31383   0.73825
 Alpha virt. eigenvalues --    0.80618   0.80744   0.85500   0.93525   0.93798
 Alpha virt. eigenvalues --    0.99533   1.31219   1.31231   1.32199   1.92000

 Mulliken charges:
               1
     1  H    0.270597
     2  C   -0.702628
     3  Cl  -0.107063
     4  H    0.269571
     5  H    0.269523
 Sum of Mulliken charges =  -0.00000

 Dipole moment (field-independent basis, Debye):
    X=              2.8662    Y=             -0.0093    Z=             -0.0054  Tot=              2.8662
 Quadrupole moment (field-independent basis, Debye-Ang):
   XX=            -18.5702   YY=            -20.1801   ZZ=            -20.1814
   XY=              0.0268   XZ=              0.0160   YZ=              0.0005

 Normal termination of Gaussian 16 at Fri Sep 22 17:16:03 2023.
