 Gaussian 16, Revision A.03,
 Gaussian 16:  ES64L-G16RevA.03 25-Dec-2016

 ----------
 # hf/3-21g
 ----------

 -----------------------
 tmpdir/M2_conf_98_9.gjf
 -----------------------
 Symbolic Z-matrix:
 Charge =  0 Multiplicity = 1

                         Standard orientation:
 ---------------------------------------------------------------------
 Center     Atomic      Atomic             Coordinates (Angstroms)
 Number     Number       Type             X           Y           Z
 ---------------------------------------------------------------------
      1          1           0        1.644884   -0.016578    0.981257
      2          6           0        1.202699   -0.000037    0.003087
      3         17           0       -0.689201   -0.000109    0.005807
      4          1           0        1.427880   -0.883087   -0.564110
      5          1           0        1.427458    0.901745   -0.534386
 ---------------------------------------------------------------------

 SCF Done:  E(RHF) =  -496.686894352     A.U. after   11 cycles

 The electronic state is 1-A.
 Alpha  occ. eigenvalues -- -104.08795 -11.24995 -10.48184  -7.94558  -7.94154
 Alpha  occ. eigenvalues --   -7.94154  -1.11341  -0.93318  -0.63310  -0.63269
 Alpha  occ. eigenvalues --   -0.51215  -0.43766  -0.43655
 Alpha virt. eigenvalues --    0.16422   0.27329   0.31362   0.31437   0.73856
 Alpha virt. eigenvalues --    0.80191   0.81139   0.85638   0.92637   0.94498
 Alpha virt. eigenvalues --    1.00028   1.30812   1.31293   1.32416   1.91653

 Mulliken charges:
               1
     1  H    0.265224
     2  C   -0.704002
     3  Cl  -0.106681
     4  H    0.272739
     5  H    0.272720
 Sum of Mulliken charges =  -0.00000

 Dipole moment (field-independent basis, Debye):
    X=              2.8587    Y=              0.0012    Z=             -0.0741  Tot=              2.8597
 Quadrupole moment (field-independent basis, Debye-Ang):
   XX=            -18.5600   YY=            -20.1775   ZZ=            -20.2179
   XY=             -0.0044   XZ=              0.2177   YZ=              0.0000

 Normal termination of Gaussian 16 at Fri Sep 22 17:16:34 2023.
