 Gaussian 16, Revision A.03,
 Gaussian 16:  ES64L-G16RevA.03 25-Dec-2016

 ----------
 # hf/3-21g
 ----------

 -----------------------
 tmpdir/M2_conf_21_6.gjf
 -----------------------
 Symbolic Z-matrix:
 Charge =  0 Multiplicity = 1

                         Standard orientation:
 ---------------------------------------------------------------------
 Center     Atomic      Atomic             Coordinates (Angstroms)
 Number     Number       Type             X           Y           Z
 ---------------------------------------------------------------------
      1          1           0       -1.322574   -0.007566    1.062849
      2          6           0       -1.202868    0.000045   -0.003828
      3         17           0        0.689031    0.000039   -0.007033
      4          1           0       -1.586659    0.895985   -0.453946
      5          1           0       -1.587093   -0.889351   -0.466380
 ---------------------------------------------------------------------

 SCF Done:  E(RHF) =  -496.685424550     A.U. after   11 cycles

 The electronic state is 1-A.
 Alpha  occ. eigenvalues -- -104.08813 -11.24987 -10.48204  -7.94578  -7.94174
 Alpha  occ. eigenvalues --   -7.94172  -1.11385  -0.93308  -0.63430  -0.63194
 Alpha  occ. eigenvalues --   -0.51175  -0.43858  -0.43549
 Alpha virt. eigenvalues --    0.16352   0.27353   0.31375   0.31431   0.73879
 Alpha virt. eigenvalues --    0.80147   0.81036   0.85623   0.92593   0.94857
 Alpha virt. eigenvalues --    1.00009   1.30813   1.31175   1.32365   1.91393

 Mulliken charges:
               1
     1  H    0.276246
     2  C   -0.703847
     3  Cl  -0.107137
     4  H    0.267378
     5  H    0.267359
 Sum of Mulliken charges =  -0.00000

 Dipole moment (field-independent basis, Debye):
    X=             -2.8536    Y=             -0.0006    Z=              0.0983  Tot=              2.8553
 Quadrupole moment (field-independent basis, Debye-Ang):
   XX=            -18.5572   YY=            -20.1825   ZZ=            -20.2307
   XY=             -0.0014   XZ=              0.2622   YZ=             -0.0002

 Normal termination of Gaussian 16 at Fri Sep 22 17:14:39 2023.
