 Gaussian 16, Revision A.03,
 Gaussian 16:  ES64L-G16RevA.03 25-Dec-2016

 ----------
 # hf/3-21g
 ----------

 -----------------------
 tmpdir/M2_conf_77_6.gjf
 -----------------------
 Symbolic Z-matrix:
 Charge =  0 Multiplicity = 1

                         Standard orientation:
 ---------------------------------------------------------------------
 Center     Atomic      Atomic             Coordinates (Angstroms)
 Number     Number       Type             X           Y           Z
 ---------------------------------------------------------------------
      1          1           0       -1.667522   -0.003980    0.971241
      2          6           0       -1.202824    0.000006    0.003652
      3         17           0        0.689075   -0.000041    0.006730
      4          1           0       -1.414649    0.895005   -0.550171
      5          1           0       -1.415167   -0.890361   -0.557387
 ---------------------------------------------------------------------

 SCF Done:  E(RHF) =  -496.685977311     A.U. after   11 cycles

 The electronic state is 1-A.
 Alpha  occ. eigenvalues -- -104.08802 -11.24992 -10.48192  -7.94566  -7.94162
 Alpha  occ. eigenvalues --   -7.94161  -1.11363  -0.93311  -0.63323  -0.63289
 Alpha  occ. eigenvalues --   -0.51176  -0.43764  -0.43644
 Alpha virt. eigenvalues --    0.16356   0.27325   0.31360   0.31457   0.73866
 Alpha virt. eigenvalues --    0.80111   0.81217   0.85685   0.92475   0.94580
 Alpha virt. eigenvalues --    1.00211   1.30722   1.31299   1.32464   1.91534

 Mulliken charges:
               1
     1  H    0.264610
     2  C   -0.704545
     3  Cl  -0.106511
     4  H    0.273235
     5  H    0.273210
 Sum of Mulliken charges =  -0.00000

 Dipole moment (field-independent basis, Debye):
    X=             -2.8560    Y=              0.0004    Z=             -0.0855  Tot=              2.8573
 Quadrupole moment (field-independent basis, Debye-Ang):
   XX=            -18.5565   YY=            -20.1763   ZZ=            -20.2311
   XY=              0.0017   XZ=             -0.2529   YZ=             -0.0001

 Normal termination of Gaussian 16 at Fri Sep 22 17:16:02 2023.
