 Gaussian 16, Revision A.03,
 Gaussian 16:  ES64L-G16RevA.03 25-Dec-2016

 ----------
 # hf/3-21g
 ----------

 ------------------------
 tmpdir/M2_conf_205_0.gjf
 ------------------------
 Symbolic Z-matrix:
 Charge =  0 Multiplicity = 1

                         Standard orientation:
 ---------------------------------------------------------------------
 Center     Atomic      Atomic             Coordinates (Angstroms)
 Number     Number       Type             X           Y           Z
 ---------------------------------------------------------------------
      1          6           0       -0.031362   -0.001949   -0.000055
      2          1           0       -0.372432    1.024360   -0.014881
      3          1           0       -0.309679   -0.540229   -0.886293
      4          1           0       -0.314915   -0.515810    0.898916
      5          1           0        1.185196    0.043372    0.002585
 ---------------------------------------------------------------------

 SCF Done:  E(RHF) =  -39.9669765889     A.U. after    9 cycles

 The electronic state is 1-A.
 Alpha  occ. eigenvalues --  -11.15821  -0.93685  -0.55649  -0.55461  -0.50265
 Alpha virt. eigenvalues --    0.28289   0.32175   0.35521   0.35686   0.91906
 Alpha virt. eigenvalues --    0.92272   0.97672   1.25027   1.32109   1.36453
 Alpha virt. eigenvalues --    1.36918   1.94550

 Mulliken charges:
               1
     1  C   -0.769517
     2  H    0.204378
     3  H    0.206723
     4  H    0.206719
     5  H    0.151698
 Sum of Mulliken charges =  -0.00000

 Dipole moment (field-independent basis, Debye):
    X=             -0.0683    Y=             -0.0073    Z=             -0.0001  Tot=              0.0687
 Quadrupole moment (field-independent basis, Debye-Ang):
   XX=             -8.6641   YY=             -8.3933   ZZ=             -8.3980
   XY=             -0.0115   XZ=             -0.0012   YZ=              0.0002

 Normal termination of Gaussian 16 at Fri Sep 22 17:19:20 2023.
