 Gaussian 16, Revision A.03,
 Gaussian 16:  ES64L-G16RevA.03 25-Dec-2016

 ----------
 # hf/3-21g
 ----------

 ------------------------
 tmpdir/M2_conf_262_2.gjf
 ------------------------
 Symbolic Z-matrix:
 Charge =  0 Multiplicity = 1

                         Standard orientation:
 ---------------------------------------------------------------------
 Center     Atomic      Atomic             Coordinates (Angstroms)
 Number     Number       Type             X           Y           Z
 ---------------------------------------------------------------------
      1          6           0        0.032274    0.000013    0.013273
      2          1           0        0.155098   -0.002928    0.996225
      3          1           0        0.412576   -0.890185   -0.450534
      4          1           0        0.408353    0.894963   -0.445260
      5          1           0       -1.169671   -0.001932   -0.180068
 ---------------------------------------------------------------------

 SCF Done:  E(RHF) =  -39.9604227405     A.U. after    9 cycles

 The electronic state is 1-A.
 Alpha  occ. eigenvalues --  -11.14762  -0.94853  -0.57461  -0.55526  -0.50288
 Alpha virt. eigenvalues --    0.28529   0.32593   0.35683   0.37547   0.88146
 Alpha virt. eigenvalues --    0.92116   0.97557   1.25379   1.34114   1.37104
 Alpha virt. eigenvalues --    1.44799   1.95920

 Mulliken charges:
               1
     1  C   -0.779971
     2  H    0.225977
     3  H    0.203171
     4  H    0.203127
     5  H    0.147696
 Sum of Mulliken charges =  -0.00000

 Dipole moment (field-independent basis, Debye):
    X=              0.0838    Y=             -0.0001    Z=              0.0566  Tot=              0.1011
 Quadrupole moment (field-independent basis, Debye-Ang):
   XX=             -8.5682   YY=             -8.3064   ZZ=             -8.3771
   XY=             -0.0011   XZ=             -0.0437   YZ=             -0.0005

 Normal termination of Gaussian 16 at Fri Sep 22 17:20:47 2023.
