 Gaussian 16, Revision A.03,
 Gaussian 16:  ES64L-G16RevA.03 25-Dec-2016

 ----------
 # hf/3-21g
 ----------

 -----------------------
 tmpdir/M2_conf_89_8.gjf
 -----------------------
 Symbolic Z-matrix:
 Charge =  0 Multiplicity = 1

                         Standard orientation:
 ---------------------------------------------------------------------
 Center     Atomic      Atomic             Coordinates (Angstroms)
 Number     Number       Type             X           Y           Z
 ---------------------------------------------------------------------
      1          1           0       -1.554779   -0.110146    1.009242
      2          6           0       -1.202404   -0.000130    0.001103
      3         17           0        0.689492   -0.000227    0.002109
      4          1           0       -1.476012   -0.829837   -0.622518
      5          1           0       -1.476141    0.944612   -0.429187
 ---------------------------------------------------------------------

 SCF Done:  E(RHF) =  -496.689141946     A.U. after   11 cycles

 The electronic state is 1-A.
 Alpha  occ. eigenvalues -- -104.08775 -11.25000 -10.48165  -7.94539  -7.94135
 Alpha  occ. eigenvalues --   -7.94135  -1.11288  -0.93334  -0.63264  -0.63239
 Alpha  occ. eigenvalues --   -0.51309  -0.43751  -0.43698
 Alpha virt. eigenvalues --    0.16583   0.27332   0.31369   0.31393   0.73829
 Alpha virt. eigenvalues --    0.80512   0.80845   0.85516   0.93290   0.94018
 Alpha virt. eigenvalues --    0.99585   1.31150   1.31249   1.32233   1.91960

 Mulliken charges:
               1
     1  H    0.268095
     2  C   -0.702776
     3  Cl  -0.107028
     4  H    0.270878
     5  H    0.270830
 Sum of Mulliken charges =  -0.00000

 Dipole moment (field-independent basis, Debye):
    X=             -2.8653    Y=              0.0029    Z=             -0.0275  Tot=              2.8654
 Quadrupole moment (field-independent basis, Debye-Ang):
   XX=            -18.5692   YY=            -20.1799   ZZ=            -20.1854
   XY=              0.0087   XZ=             -0.0787   YZ=              0.0003

 Normal termination of Gaussian 16 at Fri Sep 22 17:16:20 2023.
