 Gaussian 16, Revision A.03,
 Gaussian 16:  ES64L-G16RevA.03 25-Dec-2016

 ----------
 # hf/3-21g
 ----------

 ------------------------
 tmpdir/M2_conf_274_9.gjf
 ------------------------
 Symbolic Z-matrix:
 Charge =  0 Multiplicity = 1

                         Standard orientation:
 ---------------------------------------------------------------------
 Center     Atomic      Atomic             Coordinates (Angstroms)
 Number     Number       Type             X           Y           Z
 ---------------------------------------------------------------------
      1          1           0        1.194909   -0.005267    1.066501
      2          6           0        1.203821    0.000038   -0.007049
      3         17           0       -0.688077    0.000053   -0.011522
      4          1           0        1.639826   -0.890460   -0.418279
      5          1           0        1.639654    0.894602   -0.410050
 ---------------------------------------------------------------------

 SCF Done:  E(RHF) =  -496.677383239     A.U. after   11 cycles

 The electronic state is 1-A.
 Alpha  occ. eigenvalues -- -104.08901 -11.24947 -10.48299  -7.94671  -7.94266
 Alpha  occ. eigenvalues --   -7.94262  -1.11608  -0.93252  -0.63701  -0.63166
 Alpha  occ. eigenvalues --   -0.50933  -0.44000  -0.43311
 Alpha virt. eigenvalues --    0.15900   0.27426   0.31403   0.31490   0.73969
 Alpha virt. eigenvalues --    0.79777   0.81031   0.85595   0.92466   0.95618
 Alpha virt. eigenvalues --    1.00670   1.30242   1.31169   1.32331   1.90209

 Mulliken charges:
               1
     1  H    0.280480
     2  C   -0.705383
     3  Cl  -0.107897
     4  H    0.266413
     5  H    0.266386
 Sum of Mulliken charges =  -0.00000

 Dipole moment (field-independent basis, Debye):
    X=              2.8265    Y=             -0.0009    Z=              0.1704  Tot=              2.8316
 Quadrupole moment (field-independent basis, Debye-Ang):
   XX=            -18.5374   YY=            -20.1828   ZZ=            -20.3284
   XY=              0.0018   XZ=             -0.4296   YZ=             -0.0001

 Normal termination of Gaussian 16 at Fri Sep 22 17:21:05 2023.
