 Gaussian 16, Revision A.03,
 Gaussian 16:  ES64L-G16RevA.03 25-Dec-2016

 ----------
 # hf/3-21g
 ----------

 ------------------------
 tmpdir/M2_conf_190_4.gjf
 ------------------------
 Symbolic Z-matrix:
 Charge =  0 Multiplicity = 1

                         Standard orientation:
 ---------------------------------------------------------------------
 Center     Atomic      Atomic             Coordinates (Angstroms)
 Number     Number       Type             X           Y           Z
 ---------------------------------------------------------------------
      1          1           0        0.332027   -0.751710   -0.704993
      2          6           0        0.031665    0.000069   -0.000154
      3          1           0        0.327482    0.987383   -0.300684
      4          1           0        0.336226   -0.232408    1.002743
      5          1           0       -1.185726   -0.003682    0.003857
 ---------------------------------------------------------------------

 SCF Done:  E(RHF) =  -39.9669465528     A.U. after    9 cycles

 The electronic state is 1-A.
 Alpha  occ. eigenvalues --  -11.15726  -0.93776  -0.55645  -0.55631  -0.50268
 Alpha virt. eigenvalues --    0.28318   0.32230   0.35683   0.35691   0.91913
 Alpha virt. eigenvalues --    0.91925   0.97636   1.25068   1.32451   1.36932
 Alpha virt. eigenvalues --    1.36952   1.94650

 Mulliken charges:
               1
     1  H    0.206486
     2  C   -0.770685
     3  H    0.206432
     4  H    0.206418
     5  H    0.151349
 Sum of Mulliken charges =  -0.00000

 Dipole moment (field-independent basis, Debye):
    X=              0.0708    Y=              0.0002    Z=             -0.0002  Tot=              0.0708
 Quadrupole moment (field-independent basis, Debye-Ang):
   XX=             -8.6573   YY=             -8.3894   ZZ=             -8.3912
   XY=             -0.0017   XZ=              0.0015   YZ=              0.0003

 Normal termination of Gaussian 16 at Fri Sep 22 17:18:57 2023.
