 Gaussian 16, Revision A.03,
 Gaussian 16:  ES64L-G16RevA.03 25-Dec-2016

 ----------
 # hf/3-21g
 ----------

 -----------------------
 tmpdir/M2_conf_25_8.gjf
 -----------------------
 Symbolic Z-matrix:
 Charge =  0 Multiplicity = 1

                         Standard orientation:
 ---------------------------------------------------------------------
 Center     Atomic      Atomic             Coordinates (Angstroms)
 Number     Number       Type             X           Y           Z
 ---------------------------------------------------------------------
      1          1           0       -1.539693   -0.285425    0.979279
      2          6           0       -1.202384   -0.000231    0.000758
      3         17           0        0.689515   -0.000418    0.001446
      4          1           0       -1.483814   -0.709914   -0.753778
      5          1           0       -1.483947    1.003822   -0.254622
 ---------------------------------------------------------------------

 SCF Done:  E(RHF) =  -496.689311511     A.U. after   11 cycles

 The electronic state is 1-A.
 Alpha  occ. eigenvalues -- -104.08774 -11.25001 -10.48163  -7.94538  -7.94134
 Alpha  occ. eigenvalues --   -7.94134  -1.11284  -0.93336  -0.63258  -0.63239
 Alpha  occ. eigenvalues --   -0.51316  -0.43745  -0.43706
 Alpha virt. eigenvalues --    0.16594   0.27332   0.31371   0.31388   0.73827
 Alpha virt. eigenvalues --    0.80563   0.80797   0.85507   0.93397   0.93920
 Alpha virt. eigenvalues --    0.99554   1.31184   1.31243   1.32215   1.91984

 Mulliken charges:
               1
     1  H    0.268605
     2  C   -0.702692
     3  Cl  -0.107047
     4  H    0.270591
     5  H    0.270543
 Sum of Mulliken charges =  -0.00000

 Dipole moment (field-independent basis, Debye):
    X=             -2.8658    Y=              0.0054    Z=             -0.0190  Tot=              2.8659
 Quadrupole moment (field-independent basis, Debye-Ang):
   XX=            -18.5698   YY=            -20.1803   ZZ=            -20.1828
   XY=              0.0157   XZ=             -0.0538   YZ=              0.0004

 Normal termination of Gaussian 16 at Fri Sep 22 17:14:45 2023.
