 Gaussian 16, Revision A.03,
 Gaussian 16:  ES64L-G16RevA.03 25-Dec-2016

 ----------
 # hf/3-21g
 ----------

 ------------------------
 tmpdir/M2_conf_160_6.gjf
 ------------------------
 Symbolic Z-matrix:
 Charge =  0 Multiplicity = 1

                         Standard orientation:
 ---------------------------------------------------------------------
 Center     Atomic      Atomic             Coordinates (Angstroms)
 Number     Number       Type             X           Y           Z
 ---------------------------------------------------------------------
      1          1           0       -1.099417   -0.001976    1.058249
      2          6           0       -1.204851    0.000032   -0.009958
      3         17           0        0.687043    0.000018   -0.014481
      4          1           0       -1.675426    0.893425   -0.374679
      5          1           0       -1.675781   -0.891953   -0.377649
 ---------------------------------------------------------------------

 SCF Done:  E(RHF) =  -496.668173860     A.U. after   11 cycles

 The electronic state is 1-A.
 Alpha  occ. eigenvalues -- -104.09009 -11.24888 -10.48420  -7.94789  -7.94382
 Alpha  occ. eigenvalues --   -7.94376  -1.11882  -0.93186  -0.63979  -0.63140
 Alpha  occ. eigenvalues --   -0.50724  -0.44147  -0.43040
 Alpha virt. eigenvalues --    0.15436   0.27544   0.31441   0.31542   0.74051
 Alpha virt. eigenvalues --    0.79498   0.80923   0.85383   0.92770   0.96161
 Alpha virt. eigenvalues --    1.01213   1.29683   1.31173   1.32221   1.88962

 Mulliken charges:
               1
     1  H    0.283557
     2  C   -0.706598
     3  Cl  -0.109143
     4  H    0.266099
     5  H    0.266085
 Sum of Mulliken charges =   0.00000

 Dipole moment (field-independent basis, Debye):
    X=             -2.7933    Y=             -0.0004    Z=              0.2261  Tot=              2.8025
 Quadrupole moment (field-independent basis, Debye-Ang):
   XX=            -18.5228   YY=            -20.1798   ZZ=            -20.4352
   XY=             -0.0006   XZ=              0.5381   YZ=             -0.0001

 Normal termination of Gaussian 16 at Fri Sep 22 17:18:07 2023.
