 Gaussian 16, Revision A.03,
 Gaussian 16:  ES64L-G16RevA.03 25-Dec-2016

 ----------
 # hf/3-21g
 ----------

 ------------------------
 tmpdir/M2_conf_297_7.gjf
 ------------------------
 Symbolic Z-matrix:
 Charge =  0 Multiplicity = 1

                         Standard orientation:
 ---------------------------------------------------------------------
 Center     Atomic      Atomic             Coordinates (Angstroms)
 Number     Number       Type             X           Y           Z
 ---------------------------------------------------------------------
      1          1           0       -0.325730    0.976653   -0.340978
      2          6           0       -0.032314    0.000859   -0.002822
      3          1           0       -0.279175   -0.783151   -0.693477
      4          1           0       -0.384430   -0.213511    0.988255
      5          1           0        1.183217    0.014854    0.063132
 ---------------------------------------------------------------------

 SCF Done:  E(RHF) =  -39.9668416966     A.U. after    9 cycles

 The electronic state is 1-A.
 Alpha  occ. eigenvalues --  -11.15727  -0.93777  -0.55832  -0.55492  -0.50220
 Alpha virt. eigenvalues --    0.28323   0.32202   0.35625   0.35761   0.91765
 Alpha virt. eigenvalues --    0.92120   0.97593   1.25094   1.32387   1.36800
 Alpha virt. eigenvalues --    1.37128   1.94661

 Mulliken charges:
               1
     1  H    0.206731
     2  C   -0.770850
     3  H    0.206612
     4  H    0.206383
     5  H    0.151125
 Sum of Mulliken charges =   0.00000

 Dipole moment (field-independent basis, Debye):
    X=             -0.0681    Y=             -0.0060    Z=              0.0000  Tot=              0.0684
 Quadrupole moment (field-independent basis, Debye-Ang):
   XX=             -8.6649   YY=             -8.3575   ZZ=             -8.4168
   XY=             -0.0075   XZ=             -0.0261   YZ=             -0.0009

 Normal termination of Gaussian 16 at Fri Sep 22 17:21:44 2023.
