 Gaussian 16, Revision A.03,
 Gaussian 16:  ES64L-G16RevA.03 25-Dec-2016

 ----------
 # hf/3-21g
 ----------

 ------------------------
 tmpdir/M2_conf_215_9.gjf
 ------------------------
 Symbolic Z-matrix:
 Charge =  0 Multiplicity = 1

                         Standard orientation:
 ---------------------------------------------------------------------
 Center     Atomic      Atomic             Coordinates (Angstroms)
 Number     Number       Type             X           Y           Z
 ---------------------------------------------------------------------
      1          1           0        1.089666   -0.003017    1.057095
      2          6           0        1.204969    0.000029   -0.010291
      3         17           0       -0.686923    0.000040   -0.014763
      4          1           0        1.679158   -0.891455   -0.374431
      5          1           0        1.679050    0.893620   -0.369942
 ---------------------------------------------------------------------

 SCF Done:  E(RHF) =  -496.667062128     A.U. after   11 cycles

 The electronic state is 1-A.
 Alpha  occ. eigenvalues -- -104.09023 -11.24880 -10.48436  -7.94805  -7.94398
 Alpha  occ. eigenvalues --   -7.94390  -1.11915  -0.93178  -0.64009  -0.63137
 Alpha  occ. eigenvalues --   -0.50704  -0.44165  -0.43006
 Alpha virt. eigenvalues --    0.15383   0.27557   0.31446   0.31551   0.74058
 Alpha virt. eigenvalues --    0.79467   0.80910   0.85356   0.92824   0.96204
 Alpha virt. eigenvalues --    1.01269   1.29631   1.31182   1.32185   1.88818

 Mulliken charges:
               1
     1  H    0.283808
     2  C   -0.706721
     3  Cl  -0.109280
     4  H    0.266111
     5  H    0.266082
 Sum of Mulliken charges =  -0.00000

 Dipole moment (field-independent basis, Debye):
    X=              2.7890    Y=             -0.0007    Z=              0.2317  Tot=              2.7986
 Quadrupole moment (field-independent basis, Debye-Ang):
   XX=            -18.5214   YY=            -20.1801   ZZ=            -20.4471
   XY=              0.0013   XZ=             -0.5487   YZ=             -0.0001

 Normal termination of Gaussian 16 at Fri Sep 22 17:19:35 2023.
