 Gaussian 16, Revision A.03,
 Gaussian 16:  ES64L-G16RevA.03 25-Dec-2016

 ----------
 # hf/3-21g
 ----------

 -----------------------
 tmpdir/M2_conf_78_1.gjf
 -----------------------
 Symbolic Z-matrix:
 Charge =  0 Multiplicity = 1

                         Standard orientation:
 ---------------------------------------------------------------------
 Center     Atomic      Atomic             Coordinates (Angstroms)
 Number     Number       Type             X           Y           Z
 ---------------------------------------------------------------------
      1          6           0       -0.021553   -0.021573    0.000059
      2          1           0       -0.889870    0.711829   -0.002308
      3          1           0        0.013006   -0.614368    0.894252
      4          1           0        0.013555   -0.619865   -0.890683
      5          1           0        0.992627    0.651844   -0.001615
 ---------------------------------------------------------------------

 SCF Done:  E(RHF) =  -39.9650004684     A.U. after    9 cycles

 The electronic state is 1-A.
 Alpha  occ. eigenvalues --  -11.16459  -0.93145  -0.55742  -0.54324  -0.50199
 Alpha virt. eigenvalues --    0.28022   0.31659   0.34570   0.35687   0.91776
 Alpha virt. eigenvalues --    0.94386   0.98234   1.24623   1.28905   1.34662
 Alpha virt. eigenvalues --    1.36787   1.93928

 Mulliken charges:
               1
     1  C   -0.760660
     2  H    0.189621
     3  H    0.208609
     4  H    0.208554
     5  H    0.153876
 Sum of Mulliken charges =   0.00000

 Dipole moment (field-independent basis, Debye):
    X=             -0.0209    Y=             -0.0633    Z=              0.0003  Tot=              0.0667
 Quadrupole moment (field-independent basis, Debye-Ang):
   XX=             -8.6112   YY=             -8.5071   ZZ=             -8.4511
   XY=             -0.1456   XZ=              0.0003   YZ=              0.0004

 Normal termination of Gaussian 16 at Fri Sep 22 17:16:04 2023.
