 Gaussian 16, Revision A.03,
 Gaussian 16:  ES64L-G16RevA.03 25-Dec-2016

 ----------
 # hf/3-21g
 ----------

 -------------------
 tmpdir/M2_ref_3.gjf
 -------------------
 Symbolic Z-matrix:
 Charge =  0 Multiplicity = 1

                         Standard orientation:
 ---------------------------------------------------------------------
 Center     Atomic      Atomic             Coordinates (Angstroms)
 Number     Number       Type             X           Y           Z
 ---------------------------------------------------------------------
      1          6           0       -1.202384    0.000013    0.000000
      2         17           0        0.689558   -0.000014   -0.000000
      3          1           0       -1.502812   -0.271832    0.994041
      4          1           0       -1.502409    0.997119   -0.261631
      5          1           0       -1.502957   -0.725124   -0.732411
 ---------------------------------------------------------------------

 SCF Done:  E(RHF) =  -496.689483625     A.U. after   10 cycles

 The electronic state is 1-A.
 Alpha  occ. eigenvalues -- -104.08772 -11.25002 -10.48162  -7.94536  -7.94132
 Alpha  occ. eigenvalues --   -7.94132  -1.11279  -0.93337  -0.63246  -0.63242
 Alpha  occ. eigenvalues --   -0.51323  -0.43727  -0.43727
 Alpha virt. eigenvalues --    0.16605   0.27331   0.31377   0.31378   0.73824
 Alpha virt. eigenvalues --    0.80680   0.80684   0.85497   0.93658   0.93669
 Alpha virt. eigenvalues --    0.99527   1.31223   1.31229   1.32193   1.92007

 Mulliken charges:
               1
     1  C   -0.702577
     2  Cl  -0.107078
     3  H    0.269904
     4  H    0.269883
     5  H    0.269868
 Sum of Mulliken charges =   0.00000

 Dipole moment (field-independent basis, Debye):
    X=             -2.8664    Y=              0.0001    Z=              0.0001  Tot=              2.8664
 Quadrupole moment (field-independent basis, Debye-Ang):
   XX=            -18.5700   YY=            -20.1798   ZZ=            -20.1812
   XY=              0.0007   XZ=             -0.0002   YZ=             -0.0001

 Normal termination of Gaussian 16 at Fri Sep 22 17:14:05 2023.
