 Gaussian 16, Revision A.03,
 Gaussian 16:  ES64L-G16RevA.03 25-Dec-2016

 ----------------------------------
 # b3lyp/6-31g(d) geom=connectivity
 ----------------------------------

 -----
 title
 -----
 Symbolic Z-matrix:
 Charge =  0 Multiplicity = 1

                         Standard orientation:
 ---------------------------------------------------------------------
 Center     Atomic      Atomic             Coordinates (Angstroms)
 Number     Number       Type             X           Y           Z
 ---------------------------------------------------------------------
      1          6           0        4.027670    0.846537    0.452327
      2          6           0        4.192101   -0.496757    1.219672
      3          6           0        3.971273   -1.817057    0.447844
      4          6           0        2.519099   -2.333933    0.376089
      5          6           0        2.690893    1.614241    0.579950
      6          6           0        1.609821    1.291962   -0.479130
      7          1           0        4.266519    0.694290   -0.610098
      8          1           0        3.562147   -0.486515    2.120803
      9          1           0        4.360814   -1.707613   -0.573240
     10          1           0        4.806562    1.521495    0.828342
     11          1           0        5.225875   -0.522329    1.587138
     12          1           0        4.573248   -2.604340    0.921686
     13          1           0        2.482657   -3.259910   -0.209253
     14          1           0        2.169814   -2.599387    1.384373
     15          1           0        2.904885    2.688412    0.512625
     16          1           0        2.246247    1.445135    1.568287
     17          1           0        2.004885    1.533473   -1.481410
     18          6           0        1.298958   -0.143020   -0.422582
     19          6           0        1.618059   -1.313337   -0.184712
     20          7           0       -0.682907   -0.402831   -1.558934
     21          7           0       -0.705721   -1.643230   -1.360614
     22          7           0       -0.046953   -2.521043   -0.964919
     23          6           0       -1.959480    0.334571   -1.605097
     24          1           0       -1.650165    1.377907   -1.689160
     25          1           0       -2.498258    0.072890   -2.525295
     26          6           0       -2.855664    0.136584   -0.398069
     27          6           0       -2.462304    0.605153    0.863905
     28          6           0       -4.081736   -0.524469   -0.525465
     29          6           0       -3.285483    0.413318    1.972387
     30          1           0       -1.508025    1.114877    0.964911
     31          6           0       -4.908111   -0.714582    0.584597
     32          1           0       -4.393737   -0.893144   -1.500556
     33          6           0       -4.510623   -0.246073    1.836587
     34          1           0       -2.972206    0.780968    2.946353
     35          1           0       -5.858456   -1.229447    0.469572
     36          1           0       -5.150487   -0.393184    2.702821
     37          8           0        0.429965    2.074830   -0.264084
     38          6           0        0.536642    3.425016   -0.676786
     39          1           0       -0.462482    3.859426   -0.585764
     40          1           0        1.227601    4.008426   -0.051961
     41          1           0        0.865224    3.500742   -1.725343
 ---------------------------------------------------------------------

 SCF Done:  E(RB3LYP) =  -861.644062097     A.U. after   18 cycles

 The electronic state is 1-A.
 Alpha  occ. eigenvalues --  -19.15495 -14.45423 -14.38277 -14.37215 -10.25385
 Alpha  occ. eigenvalues --  -10.23267 -10.22275 -10.19552 -10.18977 -10.18589
 Alpha  occ. eigenvalues --  -10.18564 -10.18473 -10.18425 -10.18378 -10.18362
 Alpha  occ. eigenvalues --  -10.18281 -10.18230 -10.18148 -10.17959 -10.17810
 Alpha  occ. eigenvalues --   -1.09812  -1.03482  -0.92737  -0.84650  -0.81827
 Alpha  occ. eigenvalues --   -0.78007  -0.76700  -0.76213  -0.73640  -0.70185
 Alpha  occ. eigenvalues --   -0.69747  -0.68028  -0.65054  -0.59925  -0.59199
 Alpha  occ. eigenvalues --   -0.58904  -0.57269  -0.52923  -0.51242  -0.50508
 Alpha  occ. eigenvalues --   -0.49330  -0.49129  -0.47366  -0.46869  -0.46093
 Alpha  occ. eigenvalues --   -0.45384  -0.44656  -0.44418  -0.43315  -0.42722
 Alpha  occ. eigenvalues --   -0.42051  -0.41211  -0.40429  -0.40317  -0.39038
 Alpha  occ. eigenvalues --   -0.38966  -0.38436  -0.37818  -0.35402  -0.35079
 Alpha  occ. eigenvalues --   -0.34347  -0.33688  -0.33128  -0.32518  -0.31867
 Alpha  occ. eigenvalues --   -0.31395  -0.28558  -0.26545  -0.24726  -0.24357
 Alpha  occ. eigenvalues --   -0.24259  -0.23155  -0.22880
 Alpha virt. eigenvalues --   -0.03664   0.00084   0.00617   0.02110   0.03839
 Alpha virt. eigenvalues --    0.05549   0.08512   0.09328   0.10282   0.11282
 Alpha virt. eigenvalues --    0.12169   0.13143   0.13358   0.13850   0.14555

 Mulliken charges:
               1
     1  C   -0.267103
     2  C   -0.256643
     3  C   -0.256777
     4  C   -0.347754
     5  C   -0.272163
     6  C    0.053982
     7  H    0.136727
     8  H    0.136271
     9  H    0.139956
    10  H    0.134260
    11  H    0.133031
    12  H    0.131955
    13  H    0.165633
    14  H    0.163395
    15  H    0.129928
    16  H    0.149502
    17  H    0.134106
    18  C    0.094130
    19  C    0.015572
    20  N   -0.287123
    21  N    0.252597
    22  N   -0.223680
    23  C   -0.224123
    24  H    0.177341
    25  H    0.154552
    26  C    0.144312
    27  C   -0.177398
    28  C   -0.182103
    29  C   -0.132048
    30  H    0.165268
    31  C   -0.127508
    32  H    0.123759
    33  C   -0.127654
    34  H    0.127633
    35  H    0.127685
    36  H    0.127052
    37  O   -0.470427
    38  C   -0.201801
    39  H    0.161778
    40  H    0.139459
    41  H    0.134423
 Sum of Mulliken charges =  -0.00000

 Dipole moment (field-independent basis, Debye):
    X=              1.1294    Y=              2.4600    Z=              0.1834  Tot=              2.7131
 Quadrupole moment (field-independent basis, Debye-Ang):
   XX=           -107.1447   YY=           -116.1439   ZZ=           -114.3248
   XY=              2.4166   XZ=              2.0445   YZ=             -3.5174

 Normal termination of Gaussian 16 at Wed Jun 26 10:52:30 2024.
