 Gaussian 16, Revision A.03,
 Gaussian 16:  ES64L-G16RevA.03 25-Dec-2016

 ----------------------------------
 # b3lyp/6-31g(d) geom=connectivity
 ----------------------------------

 -----
 title
 -----
 Symbolic Z-matrix:
 Charge =  0 Multiplicity = 1

                         Standard orientation:
 ---------------------------------------------------------------------
 Center     Atomic      Atomic             Coordinates (Angstroms)
 Number     Number       Type             X           Y           Z
 ---------------------------------------------------------------------
      1          6           0      -14.037615   -0.606482    1.611214
      2          6           0      -14.807188   -1.899702    1.184016
      3          6           0      -14.174279   -2.809433    0.099125
      4          6           0      -14.512887   -2.434475   -1.371426
      5          6           0      -14.585543    0.768456    1.146780
      6          6           0      -14.062386    1.277293   -0.226303
      7          1           0      -12.981255   -0.694786    1.322041
      8          1           0      -15.831792   -1.638771    0.887282
      9          1           0      -13.083142   -2.804560    0.218507
     10          1           0      -14.035510   -0.583150    2.708055
     11          1           0      -14.911306   -2.520225    2.082946
     12          1           0      -14.499266   -3.845443    0.263720
     13          1           0      -13.889094   -3.014333   -2.063392
     14          1           0      -15.556703   -2.696534   -1.593761
     15          1           0      -14.336551    1.521792    1.905516
     16          1           0      -15.679836    0.735760    1.079786
     17          1           0      -12.988209    1.519410   -0.134405
     18          6           0      -14.229010    0.167485   -1.164485
     19          6           0      -14.323751   -0.992636   -1.496604
     20          7           0       15.620215    2.223918   -0.791472
     21          7           0       15.139539    2.467876    0.320595
     22          7           0       14.620548    2.785125    1.287862
     23          6           0       16.662917    1.156149   -0.817712
     24          1           0       16.997364    1.142456   -1.857358
     25          1           0       17.515973    1.459053   -0.196692
     26          6           0       16.152788   -0.202984   -0.391750
     27          6           0       15.301490   -0.935704   -1.230580
     28          6           0       16.498623   -0.735392    0.854981
     29          6           0       14.809461   -2.176300   -0.830175
     30          1           0       15.021873   -0.525758   -2.198205
     31          6           0       16.007930   -1.979399    1.258167
     32          1           0       17.159646   -0.176028    1.513463
     33          6           0       15.162514   -2.701470    0.416228
     34          1           0       14.152449   -2.735985   -1.490513
     35          1           0       16.286890   -2.381706    2.228263
     36          1           0       14.780022   -3.669857    0.727191
     37          8           0      -14.759548    2.434966   -0.675605
     38          6           0      -14.354074    3.634684   -0.047362
     39          1           0      -14.877172    4.447390   -0.558189
     40          1           0      -14.616245    3.667109    1.020568
     41          1           0      -13.267846    3.795474   -0.143555
 ---------------------------------------------------------------------

 SCF Done:  E(RB3LYP) =  -861.657017040     A.U. after   15 cycles

 The electronic state is 1-A.
 Alpha  occ. eigenvalues --  -19.14388 -14.50939 -14.40433 -14.37965 -10.25180
 Alpha  occ. eigenvalues --  -10.24361 -10.22491 -10.20644 -10.20540 -10.19960
 Alpha  occ. eigenvalues --  -10.19836 -10.19808 -10.19774 -10.19746 -10.18984
 Alpha  occ. eigenvalues --  -10.18460 -10.18347 -10.18313 -10.17245 -10.16482
 Alpha  occ. eigenvalues --   -1.13580  -1.02785  -0.97715  -0.86345  -0.81889
 Alpha  occ. eigenvalues --   -0.78721  -0.78138  -0.75612  -0.75209  -0.71474
 Alpha  occ. eigenvalues --   -0.69591  -0.67905  -0.64708  -0.61472  -0.60399
 Alpha  occ. eigenvalues --   -0.58991  -0.57360  -0.54238  -0.52012  -0.51440
 Alpha  occ. eigenvalues --   -0.50620  -0.49948  -0.48814  -0.47738  -0.46649
 Alpha  occ. eigenvalues --   -0.46284  -0.45381  -0.45122  -0.44319  -0.43492
 Alpha  occ. eigenvalues --   -0.42818  -0.42255  -0.41833  -0.40894  -0.40342
 Alpha  occ. eigenvalues --   -0.38898  -0.38587  -0.37908  -0.36964  -0.35858
 Alpha  occ. eigenvalues --   -0.35142  -0.34974  -0.33229  -0.32571  -0.31915
 Alpha  occ. eigenvalues --   -0.30871  -0.30104  -0.26150  -0.25973  -0.25791
 Alpha  occ. eigenvalues --   -0.24732  -0.24703  -0.23628
 Alpha virt. eigenvalues --   -0.02964  -0.01088  -0.00737   0.01499   0.02612
 Alpha virt. eigenvalues --    0.05325   0.08784   0.09111   0.09956   0.11367
 Alpha virt. eigenvalues --    0.11373   0.12271   0.12356   0.13069   0.14531

 Mulliken charges:
               1
     1  C   -0.266156
     2  C   -0.257126
     3  C   -0.253820
     4  C   -0.367229
     5  C   -0.269058
     6  C    0.054371
     7  H    0.137665
     8  H    0.142060
     9  H    0.143411
    10  H    0.132692
    11  H    0.132290
    12  H    0.134033
    13  H    0.159503
    14  H    0.166016
    15  H    0.129580
    16  H    0.151950
    17  H    0.130376
    18  C    0.004340
    19  C    0.039522
    20  N   -0.364603
    21  N    0.418640
    22  N   -0.265639
    23  C   -0.241004
    24  H    0.179231
    25  H    0.164026
    26  C    0.161335
    27  C   -0.166357
    28  C   -0.180886
    29  C   -0.128017
    30  H    0.137825
    31  C   -0.125374
    32  H    0.130852
    33  C   -0.126647
    34  H    0.135806
    35  H    0.135719
    36  H    0.135092
    37  O   -0.471567
    38  C   -0.196829
    39  H    0.161554
    40  H    0.133070
    41  H    0.129351
 Sum of Mulliken charges =  -0.00000

 Dipole moment (field-independent basis, Debye):
    X=              2.0837    Y=             -2.6864    Z=              1.4072  Tot=              3.6795
 Quadrupole moment (field-independent basis, Debye-Ang):
   XX=            -96.3497   YY=           -112.8303   ZZ=           -120.1367
   XY=            -13.9326   XZ=            -31.7838   YZ=              1.5110

 Normal termination of Gaussian 16 at Wed Jun 26 11:01:24 2024.
