 Gaussian 16, Revision A.03,
 Gaussian 16:  ES64L-G16RevA.03 25-Dec-2016

 ------------------------
 #p b3lyp/6-31g(d) em=gd3
 ------------------------

 -------------------
 tmpdir/Subs_0_0.gjf
 -------------------
 Symbolic Z-matrix:
 Charge =  0 Multiplicity = 1

                         Standard orientation:
 ---------------------------------------------------------------------
 Center     Atomic      Atomic             Coordinates (Angstroms)
 Number     Number       Type             X           Y           Z
 ---------------------------------------------------------------------
      1          7           0        2.036601   -0.517655   -0.329630
      2          7           0        2.914009    0.293197    0.309985
      3          7           0        3.695208    0.809603   -0.598226
      4          6           0        0.968953   -1.167976    0.415921
      5          1           0        0.928445   -2.224400    0.129519
      6          1           0        1.274818   -1.115698    1.464990
      7          6           0       -0.376683   -0.500683    0.200756
      8          6           0       -1.505665   -1.255743   -0.128387
      9          6           0       -0.495460    0.888354    0.338312
     10          6           0       -2.744295   -0.635021   -0.309528
     11          1           0       -1.417709   -2.333989   -0.244343
     12          6           0       -1.729808    1.508570    0.153790
     13          1           0        0.386240    1.475144    0.583049
     14          6           0       -2.857899    0.748250   -0.169260
     15          1           0       -3.615420   -1.231923   -0.565955
     16          1           0       -1.812700    2.586647    0.261866
     17          1           0       -3.819268    1.233700   -0.313658
 ---------------------------------------------------------------------

 SCF Done:  E(RB3LYP) =  -435.026334151     A.U. after   27 cycles

 The electronic state is 1-A.
 Alpha  occ. eigenvalues --  -14.49234 -14.45540 -14.37973 -10.22668 -10.20240
 Alpha  occ. eigenvalues --  -10.19420 -10.19368 -10.19353 -10.19269 -10.19205
 Alpha  occ. eigenvalues --   -1.07824  -0.88966  -0.85220  -0.76703  -0.74709
 Alpha  occ. eigenvalues --   -0.69643  -0.60952  -0.59778  -0.56328  -0.51901
 Alpha  occ. eigenvalues --   -0.49193  -0.47447  -0.46684  -0.45031  -0.44135
 Alpha  occ. eigenvalues --   -0.42274  -0.41273  -0.40137  -0.36364  -0.35063
 Alpha  occ. eigenvalues --   -0.34480  -0.27508  -0.25381  -0.24782  -0.23710
 Alpha virt. eigenvalues --   -0.17395  -0.06039  -0.00672  -0.00114   0.09142
 Alpha virt. eigenvalues --    0.11796   0.12506   0.14632   0.15947   0.16926
 Alpha virt. eigenvalues --    0.17825   0.18799   0.21147   0.24048   0.26924

 Mulliken charges:
               1
     1  N   -0.253597
     2  N    0.021536
     3  N    0.037670
     4  C   -0.235155
     5  H    0.170604
     6  H    0.156796
     7  C    0.181636
     8  C   -0.184468
     9  C   -0.166749
    10  C   -0.127340
    11  H    0.127240
    12  C   -0.130796
    13  H    0.132744
    14  C   -0.127514
    15  H    0.132422
    16  H    0.133025
    17  H    0.131946
 Sum of Mulliken charges =  -0.00000

 Dipole moment (field-independent basis, Debye):
    X=             -1.3200    Y=             -0.4518    Z=              1.2519  Tot=              1.8745
 Quadrupole moment (field-independent basis, Debye-Ang):
   XX=            -57.4388   YY=            -52.5665   ZZ=            -60.1776
   XY=             -0.6865   XZ=              4.6968   YZ=              0.6392

 Normal termination of Gaussian 16 at Thu Mar  7 19:56:56 2024.
