 Gaussian 16, Revision A.03,
 Gaussian 16:  ES64L-G16RevA.03 25-Dec-2016

 ------------------------
 #p b3lyp/6-31g(d) em=gd3
 ------------------------

 -------------------
 tmpdir/Subs_0_0.gjf
 -------------------
 Symbolic Z-matrix:
 Charge =  0 Multiplicity = 1

                         Standard orientation:
 ---------------------------------------------------------------------
 Center     Atomic      Atomic             Coordinates (Angstroms)
 Number     Number       Type             X           Y           Z
 ---------------------------------------------------------------------
      1          6           0        1.670892    0.396958   -0.000613
      2          6           0       -1.682538    0.383757    0.000366
      3          6           0       -0.682430   -0.723682    0.000266
      4          6           0        0.701108   -0.742585    0.000628
      5          1           0        1.237994    1.291715   -0.460579
      6          1           0        2.570495    0.123494   -0.559963
      7          1           0        1.983493    0.663660    1.017009
      8          1           0       -1.173466    1.350102   -0.043594
      9          1           0       -2.358795    0.320797   -0.861890
     10          1           0       -2.301913    0.363545    0.905136
 ---------------------------------------------------------------------

 SCF Done:  E(RB3LYP) =  -155.879894972     A.U. after   13 cycles

 The electronic state is 1-A.
 Alpha  occ. eigenvalues --  -10.21259 -10.21005 -10.20714 -10.20409  -0.77788
 Alpha  occ. eigenvalues --   -0.73411  -0.62972  -0.47798  -0.44144  -0.42785
 Alpha  occ. eigenvalues --   -0.41638  -0.40815  -0.40118  -0.22506  -0.22356
 Alpha virt. eigenvalues --   -0.08347   0.02968   0.09353   0.13437   0.15575
 Alpha virt. eigenvalues --    0.16111   0.17810   0.20062   0.23809   0.27545
 Alpha virt. eigenvalues --    0.44200   0.47916   0.52375   0.53270   0.58365

 Mulliken charges:
               1
     1  C   -0.478106
     2  C   -0.481670
     3  C   -0.032302
     4  C   -0.047376
     5  H    0.170650
     6  H    0.169248
     7  H    0.177077
     8  H    0.174112
     9  H    0.172845
    10  H    0.175523
 Sum of Mulliken charges =  -0.00000

 Dipole moment (field-independent basis, Debye):
    X=             -0.1515    Y=              1.9569    Z=              0.0357  Tot=              1.9631
 Quadrupole moment (field-independent basis, Debye-Ang):
   XX=            -21.6849   YY=            -26.6216   ZZ=            -25.8621
   XY=              0.1246   XZ=              0.0374   YZ=              0.0489

 Normal termination of Gaussian 16 at Thu Mar  7 20:04:35 2024.
