 Gaussian 16, Revision A.03,
 Gaussian 16:  ES64L-G16RevA.03 25-Dec-2016

 --------------------------------------
 #scan 6-31g(d) geom=connectivity wb97x
 --------------------------------------

 ----------------------
 tmpdir/M1_conf_0_9.gjf
 ----------------------
 Symbolic Z-matrix:
 Charge =  0 Multiplicity = 1

 SCF Done:  E(RwB97X) =  -169.832213944     A.U. after   15 cycles

 The electronic state is 1-A.
 Alpha  occ. eigenvalues --  -19.17146 -14.43743 -10.36941  -1.15438  -1.04343
 Alpha  occ. eigenvalues --   -0.75964  -0.66436  -0.61247  -0.51705  -0.50218
 Alpha  occ. eigenvalues --   -0.36899  -0.34821
 Alpha virt. eigenvalues --    0.12793   0.18074   0.20781   0.28116   0.36791
 Alpha virt. eigenvalues --    0.46313   0.63976   0.65310   0.75618   0.79605
 Alpha virt. eigenvalues --    0.82402   0.82760   0.95857   0.98866   0.99633

 Mulliken charges:
               1
     1  C    0.325829
     2  O   -0.457874
     3  N   -0.715478
     4  H    0.339811
     5  H    0.137730
     6  H    0.369981
 Sum of Mulliken charges =  -0.00000

 Dipole moment (field-independent basis, Debye):
    X=             -3.9536    Y=              1.0547    Z=              0.2260  Tot=              4.0981
 Quadrupole moment (field-independent basis, Debye-Ang):
   XX=            -17.1463   YY=            -14.8378   ZZ=            -18.2638
   XY=              1.5473   XZ=              0.0068   YZ=             -0.4656

 SCF Done:  E(RwB97X) =  -169.832610703     A.U. after   12 cycles
 SCF Done:  E(RwB97X) =  -169.832813155     A.U. after   12 cycles

                         Standard orientation:
 ---------------------------------------------------------------------
 Center     Atomic      Atomic             Coordinates (Angstroms)
 Number     Number       Type             X           Y           Z
 ---------------------------------------------------------------------
      1          6           0        0.163498    0.400829    0.031838
      2          8           0        1.181330   -0.272538   -0.019102
      3          7           0       -1.074714   -0.162397   -0.014841
      4          1           0       -1.840480    0.490650   -0.113022
      5          1           0        0.282760    1.489357    0.043481
      6          1           0       -1.350912   -1.067901    0.135212
 ---------------------------------------------------------------------

 SCF Done:  E(RwB97X) =  -169.832832528     A.U. after   12 cycles
 Normal termination of Gaussian 16 at Sat May 11 15:32:57 2024.
