 Gaussian 16, Revision A.03,
 Gaussian 16:  ES64L-G16RevA.03 25-Dec-2016

 ------------------------------------------
 #p b3lyp/6-31g(d) geom=connectivity em=gd3
 ------------------------------------------

 -----
 title
 -----
 Symbolic Z-matrix:
 Charge =  0 Multiplicity = 1

                         Standard orientation:
 ---------------------------------------------------------------------
 Center     Atomic      Atomic             Coordinates (Angstroms)
 Number     Number       Type             X           Y           Z
 ---------------------------------------------------------------------
      1          7           0       -6.165709    2.151434   -0.989198
      2          7           0       -6.586766    2.397034    0.146076
      3          7           0       -7.053068    2.699180    1.144418
      4          6           0       -5.091974    1.112740   -1.047786
      5          1           0       -4.878991    1.010498   -2.113663
      6          1           0       -4.186989    1.497944   -0.559430
      7          6           0       -5.507708   -0.206998   -0.441344
      8          6           0       -6.302505   -1.102165   -1.169166
      9          6           0       -5.157084   -0.524262    0.875865
     10          6           0       -6.731630   -2.296443   -0.592837
     11          1           0       -6.587219   -0.855631   -2.189315
     12          6           0       -5.586554   -1.719541    1.456056
     13          1           0       -4.541892    0.165762    1.449149
     14          6           0       -6.373868   -2.607456    0.722141
     15          1           0       -7.343933   -2.985620   -1.168117
     16          1           0       -5.305405   -1.955696    2.478699
     17          1           0       -6.707569   -3.538949    1.171227
     18          6           0       14.089128   -0.512201   -0.484975
     19          6           0       14.136592    0.675141   -0.254487
     20          6           0       14.231575    1.931313    0.631297
     21          1           0       15.110962    1.874132    1.238182
     22          1           0       14.282074    2.801927    0.011313
     23          1           0       13.367685    1.990673    1.259842
     24          6           0       13.923275   -2.021209   -0.226152
     25          1           0       13.952242   -2.548044   -1.157015
     26          1           0       14.717781   -2.364628    0.402913
     27          1           0       12.984566   -2.199420    0.255476
 ---------------------------------------------------------------------

 SCF Done:  E(RB3LYP) =  -591.113872750     A.U. after   15 cycles

 The electronic state is 1-A.
 Alpha  occ. eigenvalues --  -14.50869 -14.40390 -14.37913 -10.24313 -10.20632
 Alpha  occ. eigenvalues --  -10.19974 -10.19967 -10.19863 -10.19863 -10.19841
 Alpha  occ. eigenvalues --  -10.19804 -10.19773 -10.17191 -10.16938  -1.13553
 Alpha  occ. eigenvalues --   -0.97702  -0.86368  -0.78707  -0.76794  -0.75240
 Alpha  occ. eigenvalues --   -0.73176  -0.71428  -0.66306  -0.61490  -0.60414
 Alpha  occ. eigenvalues --   -0.54220  -0.52047  -0.51359  -0.49893  -0.46646
 Alpha  occ. eigenvalues --   -0.46340  -0.46011  -0.44333  -0.42998  -0.42967
 Alpha  occ. eigenvalues --   -0.42857  -0.42211  -0.42082  -0.41894  -0.40748
 Alpha  occ. eigenvalues --   -0.40715  -0.37084  -0.35868  -0.34978  -0.30199
 Alpha  occ. eigenvalues --   -0.26088  -0.25782  -0.24720  -0.24328  -0.24251
 Alpha virt. eigenvalues --   -0.02951  -0.01056  -0.00772   0.01626   0.02687
 Alpha virt. eigenvalues --    0.07263   0.08717   0.11427   0.11826   0.12350
 Alpha virt. eigenvalues --    0.13263   0.14487   0.15776   0.16121   0.17296

 Mulliken charges:
               1
     1  N   -0.362451
     2  N    0.417477
     3  N   -0.266830
     4  C   -0.238245
     5  H    0.177521
     6  H    0.165289
     7  C    0.155633
     8  C   -0.165921
     9  C   -0.177994
    10  C   -0.128141
    11  H    0.136081
    12  C   -0.125548
    13  H    0.132016
    14  C   -0.126476
    15  H    0.135885
    16  H    0.136373
    17  H    0.135332
    18  C   -0.002332
    19  C   -0.057703
    20  C   -0.505343
    21  H    0.182605
    22  H    0.172015
    23  H    0.181794
    24  C   -0.510217
    25  H    0.173524
    26  H    0.182489
    27  H    0.183169
 Sum of Mulliken charges =  -0.00000

 Dipole moment (field-independent basis, Debye):
    X=              1.3242    Y=             -2.2555    Z=              0.6283  Tot=              2.6899
 Quadrupole moment (field-independent basis, Debye-Ang):
   XX=           -101.0943   YY=            -78.7497   ZZ=            -80.9285
   XY=             14.1242   XZ=             19.9286   YZ=             -0.4825

 Normal termination of Gaussian 16 at Thu Jun 27 10:18:18 2024.
