 Gaussian 16, Revision A.03,
 Gaussian 16:  ES64L-G16RevA.03 25-Dec-2016

 ----------------------------------------------
 #p MP2 IOp(3/125=0333312000) geom=connectivity
 ----------------------------------------------

 -----
 title
 -----
 Symbolic Z-matrix:
 Charge =  0 Multiplicity = 1

                         Standard orientation:
 ---------------------------------------------------------------------
 Center     Atomic      Atomic             Coordinates (Angstroms)
 Number     Number       Type             X           Y           Z
 ---------------------------------------------------------------------
      1          7           0       -6.166426    2.155430   -0.979605
      2          7           0       -6.586862    2.395918    0.156994
      3          7           0       -7.052631    2.693552    1.156938
      4          6           0       -5.092560    1.117180   -1.043428
      5          1           0       -4.880181    1.019707   -2.109872
      6          1           0       -4.187353    1.500358   -0.553892
      7          6           0       -5.507731   -0.205305   -0.442612
      8          6           0       -6.302809   -1.097360   -1.173940
      9          6           0       -5.156291   -0.528359    0.872971
     10          6           0       -6.731409   -2.294255   -0.602671
     11          1           0       -6.588156   -0.846344   -2.192818
     12          6           0       -5.585233   -1.726272    1.448099
     13          1           0       -4.540876    0.159212    1.448957
     14          6           0       -6.372832   -2.611046    0.710705
     15          1           0       -7.343937   -2.980969   -1.180650
     16          1           0       -5.303451   -1.966920    2.469519
     17          1           0       -6.706124   -3.544578    1.155843
     18          6           0       14.087463   -0.512323   -0.469379
     19          6           0       14.134872    0.673992   -0.233648
     20          6           0       14.225193    1.860832    0.611099
     21          1           0       15.104942    1.801098    1.217213
     22          1           0       14.275192    2.734199   -0.005042
     23          1           0       13.361659    1.917260    1.240404
     24          6           0       13.930301   -1.946728   -0.229818
     25          1           0       13.958811   -2.469420   -1.163028
     26          1           0       14.725228   -2.292809    0.397255
     27          1           0       12.991901   -2.127229    0.251559
 ---------------------------------------------------------------------

 SCF Done:  E(RHF) =  -580.000781680     A.U. after   21 cycles
 E2 =    -0.8938782471D+00 EUMP2 =    -0.58089465992738D+03

 The electronic state is 1-A.
 Alpha  occ. eigenvalues --  -15.63054 -15.45777 -15.36114 -11.10670 -11.06828
 Alpha  occ. eigenvalues --  -11.06719 -11.04887 -11.03982 -11.03960 -11.03934
 Alpha  occ. eigenvalues --  -11.03913 -11.03886 -10.97197 -10.96891  -1.44144
 Alpha  occ. eigenvalues --   -1.22278  -1.10494  -1.00981  -1.00221  -0.96505
 Alpha  occ. eigenvalues --   -0.96047  -0.90530  -0.85397  -0.78291  -0.76456
 Alpha  occ. eigenvalues --   -0.67865  -0.66425  -0.65591  -0.64083  -0.59610
 Alpha  occ. eigenvalues --   -0.59575  -0.59376  -0.56869  -0.56772  -0.56386
 Alpha  occ. eigenvalues --   -0.55268  -0.55064  -0.54307  -0.53252  -0.52366
 Alpha  occ. eigenvalues --   -0.51625  -0.46460  -0.44747  -0.43932  -0.35056
 Alpha  occ. eigenvalues --   -0.29853  -0.29384  -0.29075  -0.28821  -0.27562
 Alpha virt. eigenvalues --    0.23276   0.25823   0.26270   0.27364   0.33492
 Alpha virt. eigenvalues --    0.39937   0.47923   0.56199   0.57689   0.61071
 Alpha virt. eigenvalues --    0.63586   0.65344   0.66423   0.68980   0.69801

 Mulliken charges:
               1
     1  N   -0.204510
     2  N    0.083742
     3  N   -0.028849
     4  C   -0.026670
     5  H    0.087685
     6  H    0.071093
     7  C   -0.003102
     8  C   -0.059474
     9  C   -0.065405
    10  C   -0.060277
    11  H    0.066919
    12  C   -0.060238
    13  H    0.060203
    14  C   -0.059108
    15  H    0.066128
    16  H    0.065993
    17  H    0.065871
    18  C   -0.057754
    19  C   -0.060890
    20  C   -0.198901
    21  H    0.088138
    22  H    0.081217
    23  H    0.088397
    24  C   -0.199395
    25  H    0.082241
    26  H    0.088650
    27  H    0.088297
 Sum of Mulliken charges =  -0.00000

 Dipole moment (field-independent basis, Debye):
    X=              1.0990    Y=             -1.6843    Z=              0.6975  Tot=              2.1287
 Quadrupole moment (field-independent basis, Debye-Ang):
   XX=            -92.1030   YY=            -76.7990   ZZ=            -78.4831
   XY=             10.9588   XZ=              8.7528   YZ=              0.7804

 Normal termination of Gaussian 16 at Fri Aug 30 10:30:08 2024.
