 Gaussian 16, Revision A.03,
 Gaussian 16:  ES64L-G16RevA.03 25-Dec-2016

 ---------------------------------
 #MP2 IOp(3/125=0333312000) nosymm
 ---------------------------------

 -------------------
 tmpdir/Subs_0_0.gjf
 -------------------
 Symbolic Z-matrix:
 Charge =  0 Multiplicity = 1

                          Input orientation:
 ---------------------------------------------------------------------
 Center     Atomic      Atomic             Coordinates (Angstroms)
 Number     Number       Type             X           Y           Z
 ---------------------------------------------------------------------
      1          6           0        2.815363   -1.449917    1.203873
      2          6           0        1.193882    1.210024   -0.323396
      3          6           0        0.878727   -0.245571   -0.153391
      4          6           0        1.519588   -1.314724    0.454338
      5          7           0       -0.257727   -0.801049   -0.676947
      6          7           0       -0.317094   -2.120182   -0.417583
      7          7           0        0.754488   -2.432603    0.257598
      8          6           0       -1.377644   -0.165498   -1.372512
      9          1           0       -1.061621    0.847511   -1.631702
     10          1           0       -1.537470   -0.716934   -2.303111
     11          6           0       -2.651853   -0.135942   -0.550793
     12          6           0       -2.678223    0.483020    0.705822
     13          6           0       -3.819746   -0.714363   -1.054375
     14          6           0       -3.861294    0.519854    1.442015
     15          1           0       -1.767989    0.925011    1.098701
     16          6           0       -5.006464   -0.671098   -0.319192
     17          1           0       -3.801067   -1.208941   -2.022781
     18          6           0       -5.029264   -0.053735    0.931290
     19          1           0       -3.872460    0.997511    2.418360
     20          1           0       -5.907358   -1.127296   -0.720755
     21          1           0       -5.949818   -0.023428    1.508189
     22          1           0        3.737327   -1.428085    0.569113
     23          1           0        2.759673   -2.423746    1.701153
     24          1           0        2.891963   -0.699661    2.000401
     25          1           0        2.226086    1.481588   -0.022833
     26          1           0        1.072605    1.468603   -1.391131
     27          1           0        0.391242    1.812233    0.295391
 ---------------------------------------------------------------------

 SCF Done:  E(RHF) =  -580.214410971     A.U. after   15 cycles
 E2 =    -0.8248655430D+00 EUMP2 =    -0.58103927651453D+03

 Alpha  occ. eigenvalues --  -15.45439 -15.38761 -15.33900 -11.13019 -11.08259
 Alpha  occ. eigenvalues --  -11.08081 -11.05341 -11.04590 -11.04085 -11.03995
 Alpha  occ. eigenvalues --  -11.03962 -11.03902 -11.03866 -11.03782  -1.37002
 Alpha  occ. eigenvalues --   -1.15638  -1.10155  -1.04427  -0.99945  -0.96479
 Alpha  occ. eigenvalues --   -0.94182  -0.90529  -0.88513  -0.78523  -0.77134
 Alpha  occ. eigenvalues --   -0.73182  -0.71109  -0.66431  -0.63051  -0.61512
 Alpha  occ. eigenvalues --   -0.59339  -0.58467  -0.56166  -0.54369  -0.54158
 Alpha  occ. eigenvalues --   -0.53965  -0.53148  -0.52434  -0.50458  -0.49252
 Alpha  occ. eigenvalues --   -0.47796  -0.45787  -0.44344  -0.43964  -0.40110
 Alpha  occ. eigenvalues --   -0.33272  -0.32066  -0.28910  -0.28498  -0.26672
 Alpha virt. eigenvalues --    0.24840   0.25916   0.27277   0.35751   0.47474
 Alpha virt. eigenvalues --    0.55333   0.56092   0.57587   0.58768   0.60225
 Alpha virt. eigenvalues --    0.63038   0.63336   0.64665   0.65532   0.66747

 Mulliken charges:
               1
     1  C   -0.173648
     2  C   -0.157853
     3  C    0.081816
     4  C    0.035732
     5  N   -0.169809
     6  N   -0.070414
     7  N   -0.181270
     8  C   -0.000126
     9  H    0.085248
    10  H    0.093188
    11  C    0.010376
    12  C   -0.061610
    13  C   -0.056688
    14  C   -0.058418
    15  H    0.060072
    16  C   -0.058586
    17  H    0.065352
    18  C   -0.058376
    19  H    0.065429
    20  H    0.066694
    21  H    0.066362
    22  H    0.062801
    23  H    0.081455
    24  H    0.061595
    25  H    0.081013
    26  H    0.069888
    27  H    0.059779
 Sum of Mulliken charges =  -0.00000

 Dipole moment (field-independent basis, Debye):
    X=             -0.5339    Y=              4.3902    Z=             -0.8656  Tot=              4.5065
 Quadrupole moment (field-independent basis, Debye-Ang):
   XX=            -69.9158   YY=            -90.0944   ZZ=            -73.6785
   XY=              1.3493   XZ=              0.7077   YZ=              1.1741

 Normal termination of Gaussian 16 at Fri Aug 30 10:28:18 2024.
