 Gaussian 16, Revision A.03,
 Gaussian 16:  ES64L-G16RevA.03 25-Dec-2016

 ---------------------------------------------
 # MP2 IOp(3/125=0333312000) geom=connectivity
 ---------------------------------------------

 -------------------
 tmpdir/Subs_0_0.gjf
 -------------------
 Symbolic Z-matrix:
 Charge =  0 Multiplicity = 1

                         Standard orientation:
 ---------------------------------------------------------------------
 Center     Atomic      Atomic             Coordinates (Angstroms)
 Number     Number       Type             X           Y           Z
 ---------------------------------------------------------------------
      1          6           0        2.453699    0.747741   -0.118433
      2          6           0        2.895378   -0.138610    0.621399
      3          7           0        0.789298   -0.356683   -1.257117
      4          7           0        0.917678   -1.395400   -0.562116
      5          7           0        1.614006   -1.884746    0.235865
      6          6           0       -0.551720    0.008549   -1.750887
      7          1           0       -0.394250    0.977387   -2.228223
      8          1           0       -0.858008   -0.700234   -2.531487
      9          6           0       -1.621920    0.105526   -0.681061
     10          6           0       -1.553576    1.100770    0.304680
     11          6           0       -2.685873   -0.802174   -0.657432
     12          6           0       -2.535037    1.180828    1.291331
     13          1           0       -0.725105    1.803685    0.289960
     14          6           0       -3.670998   -0.720654    0.329563
     15          1           0       -2.745492   -1.578854   -1.417223
     16          6           0       -3.596728    0.271554    1.306795
     17          1           0       -2.473809    1.956431    2.050680
     18          1           0       -4.492186   -1.432764    0.334240
     19          1           0       -4.360813    0.337366    2.077036
     20          6           0        3.816677   -0.639078    1.655192
     21          1           0        4.769138   -0.055576    1.663866
     22          1           0        4.034247   -1.703599    1.510816
     23          1           0        3.325106   -0.560969    2.635681
     24          6           0        2.547877    2.078329   -0.734608
     25          1           0        3.124296    2.754984   -0.053078
     26          1           0        3.086324    1.991052   -1.694517
     27          1           0        1.477004    2.512207   -0.953400
 ---------------------------------------------------------------------

 SCF Done:  E(RHF) =  -579.966425947     A.U. after   21 cycles
 E2 =    -0.9129034928D+00 EUMP2 =    -0.58087932944002D+03

 The electronic state is 1-A.
 Alpha  occ. eigenvalues --  -15.56928 -15.44215 -15.36217 -11.10395 -11.06537
 Alpha  occ. eigenvalues --  -11.05690 -11.04452 -11.03591 -11.03575 -11.03543
 Alpha  occ. eigenvalues --  -11.03525 -11.03477 -10.98021 -10.96342  -1.40896
 Alpha  occ. eigenvalues --   -1.17866  -1.09897  -0.99602  -0.99366  -0.96095
 Alpha  occ. eigenvalues --   -0.93382  -0.89998  -0.83598  -0.77915  -0.76143
 Alpha  occ. eigenvalues --   -0.68155  -0.65543  -0.63184  -0.61781  -0.60391
 Alpha  occ. eigenvalues --   -0.58587  -0.58106  -0.55056  -0.54161  -0.53912
 Alpha  occ. eigenvalues --   -0.53309  -0.52484  -0.52182  -0.51734  -0.51431
 Alpha  occ. eigenvalues --   -0.50557  -0.45860  -0.44365  -0.43549  -0.33773
 Alpha  occ. eigenvalues --   -0.28739  -0.28627  -0.28292  -0.27184  -0.25731
 Alpha virt. eigenvalues --    0.21259   0.25320   0.26215   0.27801   0.34786
 Alpha virt. eigenvalues --    0.39028   0.48298   0.56600   0.59209   0.61078
 Alpha virt. eigenvalues --    0.63127   0.64158   0.65774   0.67683   0.69136

 Mulliken charges:
               1
     1  C   -0.025814
     2  C   -0.075538
     3  N   -0.188183
     4  N    0.044610
     5  N   -0.014192
     6  C   -0.025313
     7  H    0.084903
     8  H    0.074704
     9  C   -0.000022
    10  C   -0.062153
    11  C   -0.063400
    12  C   -0.060160
    13  H    0.065617
    14  C   -0.060907
    15  H    0.060597
    16  C   -0.060535
    17  H    0.064627
    18  H    0.064592
    19  H    0.064740
    20  C   -0.165717
    21  H    0.070245
    22  H    0.076051
    23  H    0.074538
    24  C   -0.146921
    25  H    0.073448
    26  H    0.074902
    27  H    0.055281
 Sum of Mulliken charges =  -0.00000

 Dipole moment (field-independent basis, Debye):
    X=             -1.3074    Y=              0.9209    Z=             -0.3181  Tot=              1.6305
 Quadrupole moment (field-independent basis, Debye-Ang):
   XX=            -74.6102   YY=            -76.1635   ZZ=            -74.9228
   XY=              3.8395   XZ=              0.7801   YZ=              1.5087

 Normal termination of Gaussian 16 at Fri Aug 30 10:28:18 2024.
