 Gaussian 16, Revision A.03,
 Gaussian 16:  ES64L-G16RevA.03 25-Dec-2016

 -----------------------------------------
 # scrf=(cpcm,solvent=water) def2tzvp olyp
 -----------------------------------------

 ----------------------
 tmpdir/M1_conf_0_2.gjf
 ----------------------
 Symbolic Z-matrix:
 Charge =  1 Multiplicity = 1

                         Standard orientation:
 ---------------------------------------------------------------------
 Center     Atomic      Atomic             Coordinates (Angstroms)
 Number     Number       Type             X           Y           Z
 ---------------------------------------------------------------------
      1         12           0        2.464247   -0.018864    0.152456
      2          8           0       -1.137884    1.491260   -0.062148
      3         15           0       -0.646201    0.098203    0.017069
      4          8           0       -1.662483   -1.115154    0.089973
      5          8           0        0.685612   -0.414080   -0.508395
      6          1           0       -0.314826    0.013110    1.600422
      7          1           0       -2.645076   -0.955994    0.158628
 ---------------------------------------------------------------------

 SCF Done:  E(RO-LYP) =  -768.411646514     A.U. after   13 cycles

 The electronic state is 1-A.
 Alpha  occ. eigenvalues --  -76.37952 -46.30082 -18.79637 -18.75342 -18.72119
 Alpha  occ. eigenvalues --   -6.40165  -4.61221  -4.61123  -4.60892  -3.01243
 Alpha  occ. eigenvalues --   -1.79492  -1.79476  -1.79260  -0.97528  -0.91148
 Alpha  occ. eigenvalues --   -0.87136  -0.55634  -0.43306  -0.40178  -0.38483
 Alpha  occ. eigenvalues --   -0.33849  -0.30550  -0.30299  -0.27271  -0.24978
 Alpha  occ. eigenvalues --   -0.21477
 Alpha virt. eigenvalues --   -0.08982  -0.01046   0.01349   0.02106   0.02859
 Alpha virt. eigenvalues --    0.05826   0.07421   0.09799   0.11508   0.13855
 Alpha virt. eigenvalues --    0.15067   0.15725   0.17266   0.19011   0.20526

 Mulliken charges:
               1
     1  Mg   1.651656
     2  O   -0.561022
     3  P    0.777780
     4  O   -0.439358
     5  O   -0.585273
     6  H   -0.192574
     7  H    0.348791
 Sum of Mulliken charges =   1.00000

 Dipole moment (field-independent basis, Debye):
    X=             19.3167    Y=             -2.0858    Z=              1.7301  Tot=             19.5058
 Quadrupole moment (field-independent basis, Debye-Ang):
   XX=             26.0671   YY=            -41.8731   ZZ=            -36.2824
   XY=              6.1873   XZ=              4.7831   YZ=             -0.3293

 Normal termination of Gaussian 16 at Wed Jun  5 22:39:01 2019.
