 Gaussian 16, Revision A.03,
 Gaussian 16:  ES64L-G16RevA.03 25-Dec-2016

 -----------------------------------------
 # scrf=(cpcm,solvent=water) def2tzvp olyp
 -----------------------------------------

 ----------------------
 tmpdir/M1_conf_0_4.gjf
 ----------------------
 Symbolic Z-matrix:
 Charge =  0 Multiplicity = 1

                         Standard orientation:
 ---------------------------------------------------------------------
 Center     Atomic      Atomic             Coordinates (Angstroms)
 Number     Number       Type             X           Y           Z
 ---------------------------------------------------------------------
      1         15           0       -0.010803    0.098184    0.257427
      2          8           0       -0.046789    1.511157   -0.244963
      3          8           0        1.313884   -0.594834   -0.212848
      4          8           0       -1.159255   -0.844794   -0.238755
      5          1           0        1.433437   -1.516044    0.072599
      6          1           0       -2.059453   -0.570790    0.004362
      7          1           0       -0.074667    0.041846    1.634167
 ---------------------------------------------------------------------

 SCF Done:  E(RO-LYP) =  -568.984731535     A.U. after   12 cycles

 The electronic state is 1-A.
 Alpha  occ. eigenvalues --  -76.39207 -18.80890 -18.80625 -18.72040  -6.41782
 Alpha  occ. eigenvalues --   -4.62864  -4.62701  -4.62445  -1.01147  -0.96777
 Alpha  occ. eigenvalues --   -0.87387  -0.59455  -0.52348  -0.47666  -0.39642
 Alpha  occ. eigenvalues --   -0.35954  -0.34938  -0.32438  -0.30252  -0.25563
 Alpha  occ. eigenvalues --   -0.25048
 Alpha virt. eigenvalues --   -0.00293   0.01287   0.04861   0.05449   0.06767
 Alpha virt. eigenvalues --    0.12601   0.20077   0.20896   0.22504   0.25340
 Alpha virt. eigenvalues --    0.29430   0.32699   0.34566   0.36403   0.37623

 Mulliken charges:
               1
     1  P    0.678041
     2  O   -0.578795
     3  O   -0.406198
     4  O   -0.413016
     5  H    0.351588
     6  H    0.356009
     7  H    0.012371
 Sum of Mulliken charges =  -0.00000

 Dipole moment (field-independent basis, Debye):
    X=             -1.4852    Y=             -5.1089    Z=              2.8615  Tot=              6.0411
 Quadrupole moment (field-independent basis, Debye-Ang):
   XX=            -23.5637   YY=            -33.6182   ZZ=            -29.5025
   XY=             -2.5496   XZ=              0.0046   YZ=              0.1246

 Normal termination of Gaussian 16 at Wed Jun  5 22:38:57 2019.
