 Gaussian 16, Revision A.03,
 Gaussian 16:  ES64L-G16RevA.03 25-Dec-2016

 -----------------------------------------
 # scrf=(cpcm,solvent=water) def2tzvp olyp
 -----------------------------------------

 ----------------------
 tmpdir/M1_conf_0_3.gjf
 ----------------------
 Symbolic Z-matrix:
 Charge =  0 Multiplicity = 1

                         Standard orientation:
 ---------------------------------------------------------------------
 Center     Atomic      Atomic             Coordinates (Angstroms)
 Number     Number       Type             X           Y           Z
 ---------------------------------------------------------------------
      1         15           0       -0.088207    0.378039   -0.007739
      2          8           0        1.224899   -0.482608    0.032931
      3          8           0       -1.297017   -0.521690   -0.021191
      4          1           0        2.027187   -0.017017   -0.254570
      5          1           0       -0.054686    1.306766   -0.940947
      6          1           0       -0.072445    1.074052    1.217683
 ---------------------------------------------------------------------

 SCF Done:  E(RO-LYP) =  -493.690207110     A.U. after   12 cycles

 The electronic state is 1-A.
 Alpha  occ. eigenvalues --  -76.36923 -18.80802 -18.71893  -6.40068  -4.61114
 Alpha  occ. eigenvalues --   -4.60849  -4.60779  -0.99062  -0.87428  -0.58696
 Alpha  occ. eigenvalues --   -0.50431  -0.41606  -0.37253  -0.33647  -0.30261
 Alpha  occ. eigenvalues --   -0.25621  -0.23847
 Alpha virt. eigenvalues --   -0.01046   0.00523   0.03379   0.04430   0.09175
 Alpha virt. eigenvalues --    0.16691   0.19903   0.22214   0.26593   0.28322
 Alpha virt. eigenvalues --    0.30032   0.31104   0.34689   0.39241   0.43199

 Mulliken charges:
               1
     1  P    0.575283
     2  O   -0.406174
     3  O   -0.594093
     4  H    0.349467
     5  H    0.056880
     6  H    0.018637
 Sum of Mulliken charges =  -0.00000

 Dipole moment (field-independent basis, Debye):
    X=              4.9198    Y=              3.9885    Z=             -0.8523  Tot=              6.3906
 Quadrupole moment (field-independent basis, Debye-Ang):
   XX=            -24.5510   YY=            -24.8829   ZZ=            -23.7849
   XY=             -0.7402   XZ=             -1.3739   YZ=             -0.4983

 Normal termination of Gaussian 16 at Wed Jun  5 22:38:51 2019.
