 Gaussian 16, Revision A.03,
 Gaussian 16:  ES64L-G16RevA.03 25-Dec-2016

 -----------------------------------------
 # scrf=(cpcm,solvent=water) def2tzvp olyp
 -----------------------------------------

 ----------------------
 tmpdir/M1_conf_0_5.gjf
 ----------------------
 Symbolic Z-matrix:
 Charge =  0 Multiplicity = 1

                         Standard orientation:
 ---------------------------------------------------------------------
 Center     Atomic      Atomic             Coordinates (Angstroms)
 Number     Number       Type             X           Y           Z
 ---------------------------------------------------------------------
      1          8           0        0.000000    0.091467    0.000000
      2          1           0        0.807695   -0.567134    0.000000
      3          1           0       -0.807695   -0.164602   -0.000000
 ---------------------------------------------------------------------

 SCF Done:  E(RO-LYP) =  -76.4160666269     A.U. after   10 cycles

 The electronic state is 1-A'.
 Alpha  occ. eigenvalues --  -18.74504  -0.93067  -0.50931  -0.30424  -0.25582
 Alpha virt. eigenvalues --   -0.00424   0.07606   0.31020   0.37565   0.39701
 Alpha virt. eigenvalues --    0.41350   0.54024   0.58634   1.10811   1.23456
 Alpha virt. eigenvalues --    1.29686   1.43305   1.48085   1.64299   1.87694

 Mulliken charges:
               1
     1  O   -0.667564
     2  H    0.366950
     3  H    0.300614
 Sum of Mulliken charges =  -0.00000

 Dipole moment (field-independent basis, Debye):
    X=             -0.0920    Y=             -1.8720    Z=             -0.0000  Tot=              1.8743
 Quadrupole moment (field-independent basis, Debye-Ang):
   XX=             -3.7101   YY=             -6.5445   ZZ=             -7.5400
   XY=             -0.8292   XZ=             -0.0000   YZ=             -0.0000

 Normal termination of Gaussian 16 at Wed Jun  5 22:38:43 2019.
