 Gaussian 16, Revision A.03,
 Gaussian 16:  ES64L-G16RevA.03 25-Dec-2016

 -----------------------------------------
 # scrf=(cpcm,solvent=water) def2tzvp olyp
 -----------------------------------------

 ----------------------
 tmpdir/M1_conf_0_1.gjf
 ----------------------
 Symbolic Z-matrix:
 Charge = -1 Multiplicity = 1

                         Standard orientation:
 ---------------------------------------------------------------------
 Center     Atomic      Atomic             Coordinates (Angstroms)
 Number     Number       Type             X           Y           Z
 ---------------------------------------------------------------------
      1          1           0        1.023850    0.935029   -0.410944
      2          6           0        0.566922   -0.000562   -0.000593
      3          1           0        1.016963   -0.822544   -0.605492
      4          8           0       -0.809420    0.000421    0.001028
      5          1           0        1.033015   -0.112481    1.011774
 ---------------------------------------------------------------------

 SCF Done:  E(RO-LYP) =  -115.211365864     A.U. after   12 cycles

 The electronic state is 1-A.
 Alpha  occ. eigenvalues --  -18.60396  -9.87785  -0.76984  -0.51730  -0.31394
 Alpha  occ. eigenvalues --   -0.31276  -0.25584  -0.10323  -0.10301
 Alpha virt. eigenvalues --    0.05119   0.11043   0.12483   0.12502   0.22639
 Alpha virt. eigenvalues --    0.22671   0.33797   0.38040   0.42998   0.43063
 Alpha virt. eigenvalues --    0.43174   0.50421   0.53920   0.53950   0.70741

 Mulliken charges:
               1
     1  H    0.002470
     2  C   -0.131894
     3  H    0.005203
     4  O   -0.877046
     5  H    0.001267
 Sum of Mulliken charges =  -1.00000

 Dipole moment (field-independent basis, Debye):
    X=              3.0782    Y=             -0.0113    Z=             -0.0158  Tot=              3.0783
 Quadrupole moment (field-independent basis, Debye-Ang):
   XX=            -20.3837   YY=            -16.3974   ZZ=            -16.4163
   XY=             -0.0075   XZ=             -0.0007   YZ=              0.0117

 Normal termination of Gaussian 16 at Wed Jun  5 22:38:46 2019.
