 Gaussian 16, Revision A.03,
 Gaussian 16:  ES64L-G16RevA.03 25-Dec-2016

 -----------------------------------------
 # scrf=(cpcm,solvent=water) def2tzvp olyp
 -----------------------------------------

 ----------------------
 tmpdir/M1_conf_0_6.gjf
 ----------------------
 Symbolic Z-matrix:
 Charge =  0 Multiplicity = 1

                         Standard orientation:
 ---------------------------------------------------------------------
 Center     Atomic      Atomic             Coordinates (Angstroms)
 Number     Number       Type             X           Y           Z
 ---------------------------------------------------------------------
      1          8           0        0.000000    0.083586   -0.000000
      2          1           0        0.793574   -0.355059   -0.000000
      3          1           0       -0.793574   -0.313625    0.000000
 ---------------------------------------------------------------------

 SCF Done:  E(RO-LYP) =  -76.4286186310     A.U. after   10 cycles

 The electronic state is 1-A'.
 Alpha  occ. eigenvalues --  -18.73965  -0.94251  -0.53300  -0.30601  -0.26005
 Alpha virt. eigenvalues --    0.01033   0.08353   0.35256   0.38727   0.39621
 Alpha virt. eigenvalues --    0.39783   0.56147   0.57890   1.11621   1.24770
 Alpha virt. eigenvalues --    1.30189   1.43926   1.46324   1.64807   1.84344

 Mulliken charges:
               1
     1  O   -0.666196
     2  H    0.338103
     3  H    0.328093
 Sum of Mulliken charges =  -0.00000

 Dipole moment (field-independent basis, Debye):
    X=             -0.0096    Y=             -1.7880    Z=              0.0000  Tot=              1.7880
 Quadrupole moment (field-independent basis, Debye-Ang):
   XX=             -3.6708   YY=             -6.7405   ZZ=             -7.4369
   XY=             -0.0859   XZ=             -0.0000   YZ=              0.0000

 Normal termination of Gaussian 16 at Wed Jun  5 22:38:45 2019.
