 Gaussian 16, Revision A.03,
 Gaussian 16:  ES64L-G16RevA.03 25-Dec-2016

 -----------------------------------------
 # scrf=(cpcm,solvent=water) def2tzvp olyp
 -----------------------------------------

 ----------------------
 tmpdir/M1_conf_0_0.gjf
 ----------------------
 Symbolic Z-matrix:
 Charge =  0 Multiplicity = 1

                         Standard orientation:
 ---------------------------------------------------------------------
 Center     Atomic      Atomic             Coordinates (Angstroms)
 Number     Number       Type             X           Y           Z
 ---------------------------------------------------------------------
      1          6           0        0.015729    0.001240   -0.001889
      2          1           0        0.577849   -0.770815   -0.531853
      3          1           0        0.006690   -0.216475    1.065993
      4          1           0        0.449469    0.983866   -0.183508
      5          1           0       -1.128385   -0.004014   -0.339298
 ---------------------------------------------------------------------

 SCF Done:  E(RO-LYP) =  -40.5047451484     A.U. after    8 cycles

 The electronic state is 1-A.
 Alpha  occ. eigenvalues --   -9.88900  -0.62001  -0.34606  -0.34533  -0.32665
 Alpha virt. eigenvalues --    0.02300   0.08673   0.10186   0.10270   0.17694
 Alpha virt. eigenvalues --    0.17720   0.18319   0.36531   0.39380   0.42894
 Alpha virt. eigenvalues --    0.43047   0.47071   0.55815   0.56080   0.89458

 Mulliken charges:
               1
     1  C   -0.493317
     2  H    0.126611
     3  H    0.126471
     4  H    0.126946
     5  H    0.113289
 Sum of Mulliken charges =   0.00000

 Dipole moment (field-independent basis, Debye):
    X=              0.0650    Y=             -0.0024    Z=              0.0529  Tot=              0.0839
 Quadrupole moment (field-independent basis, Debye-Ang):
   XX=             -8.4564   YY=             -8.4693   ZZ=             -8.5804
   XY=              0.0019   XZ=             -0.0982   YZ=              0.0000

 Normal termination of Gaussian 16 at Wed Jun  5 22:38:44 2019.
