 Gaussian 16, Revision A.03,
 Gaussian 16:  ES64L-G16RevA.03 25-Dec-2016

 -----------------------------------------
 # scrf=(cpcm,solvent=water) def2tzvp olyp
 -----------------------------------------

 -------------------
 tmpdir/M1_ref_5.gjf
 -------------------
 Symbolic Z-matrix:
 Charge =  0 Multiplicity = 1

                         Standard orientation:
 ---------------------------------------------------------------------
 Center     Atomic      Atomic             Coordinates (Angstroms)
 Number     Number       Type             X           Y           Z
 ---------------------------------------------------------------------
      1          8           0       -0.000000    0.082973   -0.000000
      2          1           0        0.801816   -0.429351    0.000000
      3          1           0       -0.801816   -0.234430   -0.000000
 ---------------------------------------------------------------------

 SCF Done:  E(RO-LYP) =  -76.4248370306     A.U. after   10 cycles

 The electronic state is 1-A'.
 Alpha  occ. eigenvalues --  -18.74026  -0.93908  -0.53017  -0.30303  -0.25892
 Alpha virt. eigenvalues --    0.00743   0.08163   0.33920   0.38314   0.39646
 Alpha virt. eigenvalues --    0.40649   0.55432   0.58286   1.11213   1.25348
 Alpha virt. eigenvalues --    1.30524   1.43296   1.46954   1.64542   1.84837

 Mulliken charges:
               1
     1  O   -0.669437
     2  H    0.356195
     3  H    0.313242
 Sum of Mulliken charges =  -0.00000

 Dipole moment (field-independent basis, Debye):
    X=             -0.0416    Y=             -1.7701    Z=              0.0000  Tot=              1.7706
 Quadrupole moment (field-independent basis, Debye-Ang):
   XX=             -3.6260   YY=             -6.7344   ZZ=             -7.4606
   XY=             -0.4103   XZ=             -0.0000   YZ=              0.0000

 Normal termination of Gaussian 16 at Wed Jun  5 22:38:22 2019.
