 Gaussian 16, Revision A.03,
 Gaussian 16:  ES64L-G16RevA.03 25-Dec-2016

 -----------------------------------------
 # scrf=(cpcm,solvent=water) def2tzvp olyp
 -----------------------------------------

 -------------------
 tmpdir/M1_ref_3.gjf
 -------------------
 Symbolic Z-matrix:
 Charge =  0 Multiplicity = 1

                         Standard orientation:
 ---------------------------------------------------------------------
 Center     Atomic      Atomic             Coordinates (Angstroms)
 Number     Number       Type             X           Y           Z
 ---------------------------------------------------------------------
      1         15           0       -0.086465    0.367427   -0.004456
      2          8           0        1.221329   -0.481481    0.019625
      3          8           0       -1.303967   -0.506835   -0.012578
      4          1           0        2.049498    0.000764   -0.143257
      5          1           0       -0.032698    1.259563   -1.003383
      6          1           0       -0.058718    1.134799    1.157108
 ---------------------------------------------------------------------

 SCF Done:  E(RO-LYP) =  -493.693632190     A.U. after   11 cycles

 The electronic state is 1-A.
 Alpha  occ. eigenvalues --  -76.36742 -18.80767 -18.72005  -6.39894  -4.60941
 Alpha  occ. eigenvalues --   -4.60672  -4.60606  -0.99278  -0.87786  -0.58714
 Alpha  occ. eigenvalues --   -0.50314  -0.41830  -0.37260  -0.33296  -0.30514
 Alpha  occ. eigenvalues --   -0.25920  -0.24062
 Alpha virt. eigenvalues --   -0.00813   0.00854   0.03609   0.04820   0.08684
 Alpha virt. eigenvalues --    0.16866   0.19998   0.22298   0.27309   0.28073
 Alpha virt. eigenvalues --    0.29922   0.30694   0.34987   0.39574   0.43232

 Mulliken charges:
               1
     1  P    0.578428
     2  O   -0.406430
     3  O   -0.589324
     4  H    0.351492
     5  H    0.044004
     6  H    0.021829
 Sum of Mulliken charges =  -0.00000

 Dipole moment (field-independent basis, Debye):
    X=              4.9895    Y=              3.8561    Z=             -0.4876  Tot=              6.3248
 Quadrupole moment (field-independent basis, Debye-Ang):
   XX=            -24.2408   YY=            -24.9508   ZZ=            -23.8981
   XY=             -0.5826   XZ=             -0.7930   YZ=             -0.2875

 Normal termination of Gaussian 16 at Wed Jun  5 22:38:29 2019.
