 Gaussian 16, Revision A.03,
 Gaussian 16:  ES64L-G16RevA.03 25-Dec-2016

 -----------------------------------------
 # scrf=(cpcm,solvent=water) def2tzvp olyp
 -----------------------------------------

 -------------------
 tmpdir/M1_ref_6.gjf
 -------------------
 Symbolic Z-matrix:
 Charge =  0 Multiplicity = 1

                         Standard orientation:
 ---------------------------------------------------------------------
 Center     Atomic      Atomic             Coordinates (Angstroms)
 Number     Number       Type             X           Y           Z
 ---------------------------------------------------------------------
      1          8           0       -0.000000    0.080549    0.000000
      2          1           0        0.798851   -0.324855   -0.000000
      3          1           0       -0.798851   -0.319534    0.000000
 ---------------------------------------------------------------------

 SCF Done:  E(RO-LYP) =  -76.4267701555     A.U. after    9 cycles

 The electronic state is 1-A'.
 Alpha  occ. eigenvalues --  -18.73859  -0.94234  -0.53703  -0.30305  -0.26006
 Alpha virt. eigenvalues --    0.01055   0.08344   0.34813   0.39446   0.39625
 Alpha virt. eigenvalues --    0.39650   0.56281   0.57897   1.11426   1.25879
 Alpha virt. eigenvalues --    1.30757   1.43911   1.45166   1.64215   1.83646

 Mulliken charges:
               1
     1  O   -0.667417
     2  H    0.334355
     3  H    0.333062
 Sum of Mulliken charges =   0.00000

 Dipole moment (field-independent basis, Debye):
    X=             -0.0011    Y=             -1.7405    Z=             -0.0000  Tot=              1.7405
 Quadrupole moment (field-independent basis, Debye-Ang):
   XX=             -3.6082   YY=             -6.7865   ZZ=             -7.4331
   XY=             -0.0112   XZ=              0.0000   YZ=              0.0000

 Normal termination of Gaussian 16 at Wed Jun  5 22:38:24 2019.
