 Gaussian 16, Revision A.03,
 Gaussian 16:  ES64L-G16RevA.03 25-Dec-2016

 -----------------------------------------
 # scrf=(cpcm,solvent=water) def2tzvp olyp
 -----------------------------------------

 -------------------
 tmpdir/M1_ref_2.gjf
 -------------------
 Symbolic Z-matrix:
 Charge =  1 Multiplicity = 1

                         Standard orientation:
 ---------------------------------------------------------------------
 Center     Atomic      Atomic             Coordinates (Angstroms)
 Number     Number       Type             X           Y           Z
 ---------------------------------------------------------------------
      1         12           0        2.491628   -0.021585    0.110317
      2          8           0       -1.205610    1.438802   -0.143362
      3         15           0       -0.638127    0.100334    0.144415
      4          8           0       -1.631816   -1.125686   -0.020365
      5          8           0        0.673512   -0.345466   -0.487110
      6          1           0       -0.400151    0.029913    1.602426
      7          1           0       -2.616171   -1.017108    0.114236
 ---------------------------------------------------------------------

 SCF Done:  E(RO-LYP) =  -768.439668577     A.U. after   13 cycles

 The electronic state is 1-A.
 Alpha  occ. eigenvalues --  -76.36536 -46.29836 -18.78524 -18.74572 -18.70639
 Alpha  occ. eigenvalues --   -6.38924  -4.59995  -4.59826  -4.59664  -3.01014
 Alpha  occ. eigenvalues --   -1.79271  -1.79251  -1.79015  -0.96710  -0.90246
 Alpha  occ. eigenvalues --   -0.85849  -0.55044  -0.43838  -0.40430  -0.37353
 Alpha  occ. eigenvalues --   -0.32901  -0.29785  -0.29480  -0.26622  -0.23692
 Alpha  occ. eigenvalues --   -0.23424
 Alpha virt. eigenvalues --   -0.08919   0.00470   0.01661   0.02080   0.04543
 Alpha virt. eigenvalues --    0.06970   0.08409   0.10117   0.10828   0.12864
 Alpha virt. eigenvalues --    0.15207   0.15382   0.17956   0.18613   0.20661

 Mulliken charges:
               1
     1  Mg   1.665910
     2  O   -0.596332
     3  P    0.717256
     4  O   -0.465097
     5  O   -0.593800
     6  H   -0.075247
     7  H    0.347310
 Sum of Mulliken charges =   1.00000

 Dipole moment (field-independent basis, Debye):
    X=             20.1918    Y=             -2.3642    Z=              3.1460  Tot=             20.5717
 Quadrupole moment (field-independent basis, Debye-Ang):
   XX=             26.0309   YY=            -41.7294   ZZ=            -34.6983
   XY=              6.5093   XZ=              2.7543   YZ=             -0.0829

 Normal termination of Gaussian 16 at Wed Jun  5 22:38:41 2019.
