 Gaussian 16, Revision A.03,
 Gaussian 16:  ES64L-G16RevA.03 25-Dec-2016

 -----------------------------------------
 # scrf=(cpcm,solvent=water) def2tzvp olyp
 -----------------------------------------

 -----------------------
 tmpdir/M2_conf_0_37.gjf
 -----------------------
 Symbolic Z-matrix:
 Charge =  0 Multiplicity = 1

                         Standard orientation:
 ---------------------------------------------------------------------
 Center     Atomic      Atomic             Coordinates (Angstroms)
 Number     Number       Type             X           Y           Z
 ---------------------------------------------------------------------
      1          8           0        1.325589   -0.568178   -0.201839
      2         15           0       -0.012192    0.100953    0.250874
      3          8           0       -1.134832   -0.876252   -0.227293
      4          1           0        1.432305   -1.507683    0.022962
      5          1           0       -0.076164    0.059240    1.637466
      6          8           0       -0.081571    1.511882   -0.245485
      7          1           0       -2.046742   -0.605459   -0.026597
 ---------------------------------------------------------------------

 SCF Done:  E(RO-LYP) =  -568.984735589     A.U. after   12 cycles

 The electronic state is 1-A.
 Alpha  occ. eigenvalues --  -76.39160 -18.80920 -18.80677 -18.72074  -6.41732
 Alpha  occ. eigenvalues --   -4.62818  -4.62643  -4.62399  -1.01298  -0.96861
 Alpha  occ. eigenvalues --   -0.87517  -0.59529  -0.52640  -0.47276  -0.39747
 Alpha  occ. eigenvalues --   -0.36180  -0.34912  -0.32457  -0.30150  -0.25711
 Alpha  occ. eigenvalues --   -0.25078
 Alpha virt. eigenvalues --   -0.00310   0.01360   0.05041   0.05501   0.06961
 Alpha virt. eigenvalues --    0.12296   0.20123   0.20992   0.22429   0.25447
 Alpha virt. eigenvalues --    0.29683   0.32651   0.34525   0.36410   0.37640

 Mulliken charges:
               1
     1  O   -0.405140
     2  P    0.679751
     3  O   -0.413232
     4  H    0.352336
     5  H    0.006662
     6  O   -0.577177
     7  H    0.356800
 Sum of Mulliken charges =  -0.00000

 Dipole moment (field-independent basis, Debye):
    X=             -1.4438    Y=             -5.1478    Z=              2.5712  Tot=              5.9326
 Quadrupole moment (field-independent basis, Debye-Ang):
   XX=            -23.5579   YY=            -33.5817   ZZ=            -29.6166
   XY=             -2.3224   XZ=              0.0015   YZ=              0.3805

 Normal termination of Gaussian 16 at Fri Sep 22 16:54:51 2023.
