 Gaussian 16, Revision A.03,
 Gaussian 16:  ES64L-G16RevA.03 25-Dec-2016

 -----------------------------------------
 # scrf=(cpcm,solvent=water) def2tzvp olyp
 -----------------------------------------

 -----------------------
 tmpdir/M2_conf_0_10.gjf
 -----------------------
 Symbolic Z-matrix:
 Charge =  0 Multiplicity = 1

                         Standard orientation:
 ---------------------------------------------------------------------
 Center     Atomic      Atomic             Coordinates (Angstroms)
 Number     Number       Type             X           Y           Z
 ---------------------------------------------------------------------
      1          8           0       -0.581589    1.284337   -0.132575
      2         15           0        0.208589    0.052132    0.286105
      3          8           0       -0.996814   -1.136824   -0.053331
      4          1           0       -1.174117    1.378084   -0.806172
      5          8           0        1.497967   -0.282609   -0.363336
      6          1           0        0.211848    0.062150    1.645062
      7          1           0       -1.523075   -1.141439   -0.736525
 ---------------------------------------------------------------------

 SCF Done:  E(RO-LYP) =  -568.946373778     A.U. after   12 cycles

 The electronic state is 1-A.
 Alpha  occ. eigenvalues --  -76.40567 -18.80474 -18.75961 -18.73670  -6.43005
 Alpha  occ. eigenvalues --   -4.64270  -4.63819  -4.63624  -1.01966  -0.94171
 Alpha  occ. eigenvalues --   -0.89435  -0.63170  -0.53359  -0.44655  -0.40044
 Alpha  occ. eigenvalues --   -0.38056  -0.33316  -0.30463  -0.28933  -0.26690
 Alpha  occ. eigenvalues --   -0.25656
 Alpha virt. eigenvalues --   -0.00656   0.00686   0.04223   0.05677   0.09069
 Alpha virt. eigenvalues --    0.10913   0.19107   0.20140   0.21967   0.24431
 Alpha virt. eigenvalues --    0.30684   0.32215   0.34977   0.37309   0.39419

 Mulliken charges:
               1
     1  O   -0.379543
     2  P    0.717914
     3  O   -0.508526
     4  H    0.336314
     5  O   -0.520140
     6  H    0.064467
     7  H    0.289514
 Sum of Mulliken charges =  -0.00000

 Dipole moment (field-independent basis, Debye):
    X=             -4.4812    Y=              2.1828    Z=             -0.2243  Tot=              4.9896
 Quadrupole moment (field-independent basis, Debye-Ang):
   XX=            -31.7779   YY=            -31.2187   ZZ=            -25.4114
   XY=             -0.4639   XZ=              6.5166   YZ=             -0.6303

 Normal termination of Gaussian 16 at Fri Sep 22 16:53:56 2023.
