 Gaussian 16, Revision A.03,
 Gaussian 16:  ES64L-G16RevA.03 25-Dec-2016

 -----------------------------------------
 # scrf=(cpcm,solvent=water) def2tzvp olyp
 -----------------------------------------

 -----------------------
 tmpdir/M2_conf_0_19.gjf
 -----------------------
 Symbolic Z-matrix:
 Charge =  0 Multiplicity = 1

                         Standard orientation:
 ---------------------------------------------------------------------
 Center     Atomic      Atomic             Coordinates (Angstroms)
 Number     Number       Type             X           Y           Z
 ---------------------------------------------------------------------
      1          8           0       -1.290537   -0.707265   -0.156018
      2         15           0       -0.026310    0.090203    0.307662
      3          8           0        1.247774   -0.811901   -0.146371
      4          1           0       -1.907879   -0.432230   -0.825793
      5          1           0        0.024040    0.126373    1.641720
      6          8           0        0.096196    1.463625   -0.280054
      7          1           0        1.851029   -0.602861   -0.771307
 ---------------------------------------------------------------------

 SCF Done:  E(RO-LYP) =  -568.967157070     A.U. after   12 cycles

 The electronic state is 1-A.
 Alpha  occ. eigenvalues --  -76.40136 -18.80489 -18.78232 -18.71580  -6.42572
 Alpha  occ. eigenvalues --   -4.63630  -4.63517  -4.63242  -1.00157  -0.96119
 Alpha  occ. eigenvalues --   -0.87115  -0.62522  -0.52898  -0.46209  -0.40187
 Alpha  occ. eigenvalues --   -0.36281  -0.33065  -0.31337  -0.30130  -0.24911
 Alpha  occ. eigenvalues --   -0.24430
 Alpha virt. eigenvalues --   -0.00878   0.02090   0.03862   0.05854   0.06878
 Alpha virt. eigenvalues --    0.13203   0.18515   0.21739   0.22196   0.24718
 Alpha virt. eigenvalues --    0.30852   0.33576   0.35892   0.37243   0.39506

 Mulliken charges:
               1
     1  O   -0.419523
     2  P    0.708877
     3  O   -0.448783
     4  H    0.360196
     5  H    0.064255
     6  O   -0.586106
     7  H    0.321084
 Sum of Mulliken charges =  -0.00000

 Dipole moment (field-independent basis, Debye):
    X=             -0.8603    Y=             -2.5009    Z=             -0.1453  Tot=              2.6487
 Quadrupole moment (field-independent basis, Debye-Ang):
   XX=            -22.7405   YY=            -38.5775   ZZ=            -25.3493
   XY=             -0.4456   XZ=              0.4173   YZ=              2.5358

 Normal termination of Gaussian 16 at Fri Sep 22 16:54:05 2023.
