 Gaussian 16, Revision A.03,
 Gaussian 16:  ES64L-G16RevA.03 25-Dec-2016

 -----------------------------------------
 # scrf=(cpcm,solvent=water) def2tzvp olyp
 -----------------------------------------

 -----------------------
 tmpdir/M2_conf_0_30.gjf
 -----------------------
 Symbolic Z-matrix:
 Charge =  0 Multiplicity = 1

                         Standard orientation:
 ---------------------------------------------------------------------
 Center     Atomic      Atomic             Coordinates (Angstroms)
 Number     Number       Type             X           Y           Z
 ---------------------------------------------------------------------
      1         15           0        0.091075    0.373573   -0.006216
      2          8           0       -1.216954   -0.489365    0.016433
      3          1           0        0.086838    1.205672    1.105577
      4          8           0        1.298188   -0.512306   -0.006585
      5          1           0       -0.048459    1.203892   -1.047249
      6          1           0       -2.054373    0.000210   -0.043864
 ---------------------------------------------------------------------

 SCF Done:  E(RO-LYP) =  -493.694505751     A.U. after   11 cycles

 The electronic state is 1-A.
 Alpha  occ. eigenvalues --  -76.36757 -18.80476 -18.72201  -6.39912  -4.60970
 Alpha  occ. eigenvalues --   -4.60694  -4.60611  -0.98878  -0.87950  -0.58616
 Alpha  occ. eigenvalues --   -0.50141  -0.41883  -0.37022  -0.33228  -0.30359
 Alpha  occ. eigenvalues --   -0.26095  -0.24323
 Alpha virt. eigenvalues --   -0.00819   0.00822   0.03592   0.04850   0.08539
 Alpha virt. eigenvalues --    0.16953   0.20143   0.22318   0.27285   0.28134
 Alpha virt. eigenvalues --    0.29100   0.30965   0.35099   0.39752   0.43177

 Mulliken charges:
               1
     1  P    0.580343
     2  O   -0.414029
     3  H    0.028948
     4  O   -0.584889
     5  H    0.040354
     6  H    0.349273
 Sum of Mulliken charges =  -0.00000

 Dipole moment (field-independent basis, Debye):
    X=             -4.8709    Y=              3.9337    Z=             -0.2170  Tot=              6.2648
 Quadrupole moment (field-independent basis, Debye-Ang):
   XX=            -24.1757   YY=            -24.9395   ZZ=            -23.9158
   XY=              0.5184   XZ=              0.3290   YZ=             -0.1259

 Normal termination of Gaussian 16 at Fri Sep 22 16:54:20 2023.
