 Gaussian 16, Revision A.03,
 Gaussian 16:  ES64L-G16RevA.03 25-Dec-2016

 -----------------------------------------
 # scrf=(cpcm,solvent=water) def2tzvp olyp
 -----------------------------------------

 -----------------------
 tmpdir/M2_conf_0_55.gjf
 -----------------------
 Symbolic Z-matrix:
 Charge =  0 Multiplicity = 1

                         Standard orientation:
 ---------------------------------------------------------------------
 Center     Atomic      Atomic             Coordinates (Angstroms)
 Number     Number       Type             X           Y           Z
 ---------------------------------------------------------------------
      1          1           0       -0.432481    0.943062   -0.393609
      2          6           0        0.024602    0.000475   -0.000205
      3          1           0       -0.425444   -0.813000   -0.623004
      4          1           0        1.156636    0.001608    0.011876
      5          1           0       -0.446324   -0.134521    1.005968
 ---------------------------------------------------------------------

 SCF Done:  E(RO-LYP) =  -40.5054005951     A.U. after    8 cycles

 The electronic state is 1-A.
 Alpha  occ. eigenvalues --   -9.89207  -0.61813  -0.35149  -0.33165  -0.33062
 Alpha virt. eigenvalues --    0.02243   0.09464   0.09596   0.09614   0.17850
 Alpha virt. eigenvalues --    0.17856   0.18194   0.36738   0.41090   0.41162
 Alpha virt. eigenvalues --    0.41674   0.47048   0.55896   0.55940   0.88254

 Mulliken charges:
               1
     1  H    0.123074
     2  C   -0.498342
     3  H    0.122996
     4  H    0.129343
     5  H    0.122929
 Sum of Mulliken charges =  -0.00000

 Dipole moment (field-independent basis, Debye):
    X=             -0.0936    Y=             -0.0020    Z=              0.0011  Tot=              0.0936
 Quadrupole moment (field-independent basis, Debye-Ang):
   XX=             -8.1261   YY=             -8.7072   ZZ=             -8.7306
   XY=             -0.0003   XZ=              0.0008   YZ=             -0.0002

 Normal termination of Gaussian 16 at Fri Sep 22 16:54:59 2023.
