 Gaussian 16, Revision A.03,
 Gaussian 16:  ES64L-G16RevA.03 25-Dec-2016

 -----------------------------------------
 # scrf=(cpcm,solvent=water) def2tzvp olyp
 -----------------------------------------

 -----------------------
 tmpdir/M2_conf_0_45.gjf
 -----------------------
 Symbolic Z-matrix:
 Charge =  0 Multiplicity = 1

                         Standard orientation:
 ---------------------------------------------------------------------
 Center     Atomic      Atomic             Coordinates (Angstroms)
 Number     Number       Type             X           Y           Z
 ---------------------------------------------------------------------
      1          8           0       -0.755128    0.103282    0.000054
      2          6           0        0.694714   -0.021474   -0.000312
      3          1           0        1.047605   -0.424332    0.951569
      4          1           0       -1.271215   -0.602400    0.008150
      5          1           0        1.076658    0.989726   -0.135894
      6          1           0        1.019688   -0.660404   -0.822381
 ---------------------------------------------------------------------

 SCF Done:  E(RO-LYP) =  -115.719062675     A.U. after    9 cycles

 The electronic state is 1-A.
 Alpha  occ. eigenvalues --  -18.74407  -9.93917  -0.93619  -0.63206  -0.45862
 Alpha  occ. eigenvalues --   -0.38296  -0.37737  -0.27648  -0.22697
 Alpha virt. eigenvalues --    0.01690   0.04589   0.09308   0.09966   0.11498
 Alpha virt. eigenvalues --    0.19236   0.19902   0.24937   0.34084   0.37352
 Alpha virt. eigenvalues --    0.40850   0.42466   0.45602   0.46052   0.46684

 Mulliken charges:
               1
     1  O   -0.480656
     2  C   -0.149258
     3  H    0.108181
     4  H    0.287500
     5  H    0.123496
     6  H    0.110736
 Sum of Mulliken charges =  -0.00000

 Dipole moment (field-independent basis, Debye):
    X=              0.8201    Y=             -1.5443    Z=             -0.0005  Tot=              1.7486
 Quadrupole moment (field-independent basis, Debye-Ang):
   XX=            -11.9793   YY=            -12.5035   ZZ=            -13.6505
   XY=              2.2582   XZ=             -0.0419   YZ=             -0.0132

 Normal termination of Gaussian 16 at Fri Sep 22 16:54:46 2023.
