 Gaussian 16, Revision A.03,
 Gaussian 16:  ES64L-G16RevA.03 25-Dec-2016

 -----------------------------------------
 # scrf=(cpcm,solvent=water) def2tzvp olyp
 -----------------------------------------

 ----------------------
 tmpdir/M2_conf_0_3.gjf
 ----------------------
 Symbolic Z-matrix:
 Charge =  0 Multiplicity = 1

                         Standard orientation:
 ---------------------------------------------------------------------
 Center     Atomic      Atomic             Coordinates (Angstroms)
 Number     Number       Type             X           Y           Z
 ---------------------------------------------------------------------
      1         15           0        0.087467    0.323036   -0.008940
      2          8           0       -1.280070   -0.335825   -0.098208
      3          8           0        1.325850   -0.491006   -0.000439
      4          1           0        0.057999    1.352080   -0.896119
      5          1           0        0.057747    1.088092    1.256460
      6          1           0       -1.793987   -0.671068    0.562940
 ---------------------------------------------------------------------

 SCF Done:  E(RO-LYP) =  -493.683403747     A.U. after   11 cycles

 The electronic state is 1-A.
 Alpha  occ. eigenvalues --  -76.37036 -18.80710 -18.72229  -6.40042  -4.61107
 Alpha  occ. eigenvalues --   -4.60870  -4.60713  -1.01390  -0.88648  -0.62479
 Alpha  occ. eigenvalues --   -0.48654  -0.41954  -0.37741  -0.33337  -0.31242
 Alpha  occ. eigenvalues --   -0.26326  -0.23909
 Alpha virt. eigenvalues --   -0.00952   0.02845   0.03177   0.06669   0.07226
 Alpha virt. eigenvalues --    0.16767   0.21107   0.22872   0.24207   0.27227
 Alpha virt. eigenvalues --    0.30998   0.32655   0.36851   0.38438   0.43905

 Mulliken charges:
               1
     1  P    0.565163
     2  O   -0.382533
     3  O   -0.563602
     4  H    0.053056
     5  H   -0.013271
     6  H    0.341186
 Sum of Mulliken charges =  -0.00000

 Dipole moment (field-independent basis, Debye):
    X=             -4.5259    Y=              1.6118    Z=              0.9541  Tot=              4.8982
 Quadrupole moment (field-independent basis, Debye-Ang):
   XX=            -26.5798   YY=            -23.8911   ZZ=            -23.3442
   XY=              3.8644   XZ=             -2.7039   YZ=             -1.6092

 Normal termination of Gaussian 16 at Fri Sep 22 16:53:29 2023.
