 Gaussian 16, Revision A.03,
 Gaussian 16:  ES64L-G16RevA.03 25-Dec-2016

 -----------------------------------------
 # scrf=(cpcm,solvent=water) def2tzvp olyp
 -----------------------------------------

 -----------------------
 tmpdir/M2_conf_0_12.gjf
 -----------------------
 Symbolic Z-matrix:
 Charge =  0 Multiplicity = 1

                         Standard orientation:
 ---------------------------------------------------------------------
 Center     Atomic      Atomic             Coordinates (Angstroms)
 Number     Number       Type             X           Y           Z
 ---------------------------------------------------------------------
      1         15           0        0.753141   -0.367778    0.041646
      2          8           0       -0.791966   -0.633300   -0.202808
      3          6           0       -1.778910    0.400661    0.070109
      4          8           0        1.198210    1.039844   -0.088087
      5          1           0        1.378507   -1.328179   -0.580411
      6          1           0        0.840497   -0.724283    1.474376
      7          1           0       -1.843192    0.588345    1.144140
      8          1           0       -2.726429    0.006243   -0.295159
      9          1           0       -1.522995    1.318226   -0.461121
 ---------------------------------------------------------------------

 SCF Done:  E(RO-LYP) =  -532.976176764     A.U. after   11 cycles

 The electronic state is 1-A.
 Alpha  occ. eigenvalues --  -76.36719 -18.79831 -18.72417  -9.95757  -6.39846
 Alpha  occ. eigenvalues --   -4.60885  -4.60652  -4.60547  -0.97731  -0.88576
 Alpha  occ. eigenvalues --   -0.66037  -0.54970  -0.45204  -0.42943  -0.41197
 Alpha  occ. eigenvalues --   -0.37602  -0.35101  -0.30883  -0.27111  -0.26074
 Alpha  occ. eigenvalues --   -0.24030
 Alpha virt. eigenvalues --   -0.00107   0.00131   0.03017   0.04491   0.07464
 Alpha virt. eigenvalues --    0.08343   0.09651   0.10414   0.16679   0.18345
 Alpha virt. eigenvalues --    0.20228   0.21376   0.23506   0.25446   0.28620

 Mulliken charges:
               1
     1  P    0.571026
     2  O   -0.282722
     3  C   -0.162155
     4  O   -0.564880
     5  H    0.071414
     6  H   -0.015148
     7  H    0.120566
     8  H    0.137013
     9  H    0.124886
 Sum of Mulliken charges =  -0.00000

 Dipole moment (field-independent basis, Debye):
    X=             -2.1811    Y=             -2.5700    Z=              0.2385  Tot=              3.3792
 Quadrupole moment (field-independent basis, Debye-Ang):
   XX=            -28.9209   YY=            -33.7129   ZZ=            -30.6650
   XY=             -6.9813   XZ=             -0.6323   YZ=              0.5725

 Normal termination of Gaussian 16 at Fri Sep 22 16:53:43 2023.
