 Gaussian 16, Revision A.03,
 Gaussian 16:  ES64L-G16RevA.03 25-Dec-2016

 -----------------------------------------
 # scrf=(cpcm,solvent=water) def2tzvp olyp
 -----------------------------------------

 -----------------------
 tmpdir/M2_conf_0_58.gjf
 -----------------------
 Symbolic Z-matrix:
 Charge = -1 Multiplicity = 1

                         Standard orientation:
 ---------------------------------------------------------------------
 Center     Atomic      Atomic             Coordinates (Angstroms)
 Number     Number       Type             X           Y           Z
 ---------------------------------------------------------------------
      1          1           0       -1.020233   -0.763209   -0.680944
      2          6           0       -0.567564    0.000452    0.000285
      3          8           0        0.811240    0.000526    0.000502
      4          1           0       -1.032087    0.966411   -0.321134
      5          1           0       -1.032220   -0.210126    0.996347
 ---------------------------------------------------------------------

 SCF Done:  E(RO-LYP) =  -115.211385537     A.U. after   12 cycles

 The electronic state is 1-A.
 Alpha  occ. eigenvalues --  -18.60443  -9.87835  -0.76904  -0.51772  -0.31293
 Alpha  occ. eigenvalues --   -0.31283  -0.25593  -0.10353  -0.10321
 Alpha virt. eigenvalues --    0.05097   0.11021   0.12476   0.12490   0.22638
 Alpha virt. eigenvalues --    0.22717   0.33829   0.37891   0.43007   0.43032
 Alpha virt. eigenvalues --    0.43100   0.50353   0.53888   0.53947   0.70620

 Mulliken charges:
               1
     1  H    0.003664
     2  C   -0.132819
     3  O   -0.877285
     4  H    0.003303
     5  H    0.003136
 Sum of Mulliken charges =  -1.00000

 Dipole moment (field-independent basis, Debye):
    X=             -3.0880    Y=             -0.0032    Z=             -0.0032  Tot=              3.0880
 Quadrupole moment (field-independent basis, Debye-Ang):
   XX=            -20.3814   YY=            -16.4122   ZZ=            -16.4144
   XY=             -0.0093   XZ=             -0.0075   YZ=              0.0004

 Normal termination of Gaussian 16 at Fri Sep 22 16:55:02 2023.
