 Gaussian 16, Revision A.03,
 Gaussian 16:  ES64L-G16RevA.03 25-Dec-2016

 -----------------------------------------
 # scrf=(cpcm,solvent=water) def2tzvp olyp
 -----------------------------------------

 -----------------------
 tmpdir/M2_conf_0_13.gjf
 -----------------------
 Symbolic Z-matrix:
 Charge =  1 Multiplicity = 1

                         Standard orientation:
 ---------------------------------------------------------------------
 Center     Atomic      Atomic             Coordinates (Angstroms)
 Number     Number       Type             X           Y           Z
 ---------------------------------------------------------------------
      1         12           0        2.161598    0.275205    0.111147
      2          8           0        0.471104   -0.459633   -0.496904
      3         15           0       -0.902052   -0.313152    0.144179
      4          8           0       -1.754158    0.865200   -0.141701
      5          1           0       -1.500391   -1.526156    0.012006
      6          1           0       -0.643581   -0.323570    1.600385
 ---------------------------------------------------------------------

 SCF Done:  E(RO-LYP) =  -693.152279529     A.U. after   13 cycles

 The electronic state is 1-A.
 Alpha  occ. eigenvalues --  -76.34017 -46.29728 -18.74372 -18.70624  -6.36980
 Alpha  occ. eigenvalues --   -4.57949  -4.57872  -4.57715  -3.00921  -1.79181
 Alpha  occ. eigenvalues --   -1.79161  -1.78915  -0.91760  -0.85854  -0.52154
 Alpha  occ. eigenvalues --   -0.39207  -0.38667  -0.34356  -0.27903  -0.27141
 Alpha  occ. eigenvalues --   -0.24383  -0.22351
 Alpha virt. eigenvalues --   -0.08981   0.00984   0.01914   0.03096   0.04473
 Alpha virt. eigenvalues --    0.05295   0.08246   0.09362   0.11378   0.14316
 Alpha virt. eigenvalues --    0.15216   0.15889   0.18021   0.21149   0.23289

 Mulliken charges:
               1
     1  Mg   1.659659
     2  O   -0.599755
     3  P    0.582904
     4  O   -0.606699
     5  H    0.013348
     6  H   -0.049456
 Sum of Mulliken charges =   1.00000

 Dipole moment (field-independent basis, Debye):
    X=             20.4238    Y=              0.6298    Z=              2.8513  Tot=             20.6315
 Quadrupole moment (field-independent basis, Debye-Ang):
   XX=              6.4879   YY=            -29.9634   ZZ=            -29.3661
   XY=             12.2609   XZ=              2.8444   YZ=              0.3269

 Normal termination of Gaussian 16 at Fri Sep 22 16:53:58 2023.
