 Gaussian 16, Revision A.03,
 Gaussian 16:  ES64L-G16RevA.03 25-Dec-2016

 -----------------------------------------
 # scrf=(cpcm,solvent=water) def2tzvp olyp
 -----------------------------------------

 -----------------------
 tmpdir/M2_conf_0_15.gjf
 -----------------------
 Symbolic Z-matrix:
 Charge =  0 Multiplicity = 1

                         Standard orientation:
 ---------------------------------------------------------------------
 Center     Atomic      Atomic             Coordinates (Angstroms)
 Number     Number       Type             X           Y           Z
 ---------------------------------------------------------------------
      1         15           0       -1.363586   -0.131204   -0.375848
      2          8           0        0.066832   -0.894688    0.218151
      3         15           0        1.483487   -0.233179    0.149435
      4          8           0       -1.932854    0.661982    0.739096
      5          1           0       -2.070568   -1.231525   -0.745122
      6          1           0       -0.998651    0.442821   -1.488388
      7          1           0        2.205493   -1.033893   -0.731671
      8          1           0        2.097411   -0.350419    1.329654
      9          8           0        1.486998    1.187552   -0.328283
 ---------------------------------------------------------------------

 SCF Done:  E(RO-LYP) =  -910.927590831     A.U. after   13 cycles

 The electronic state is 1-A.
 Alpha  occ. eigenvalues --  -76.39315 -76.37538 -18.81951 -18.74445 -18.72376
 Alpha  occ. eigenvalues --   -6.42517  -6.40687  -4.63750  -4.63211  -4.63106
 Alpha  occ. eigenvalues --   -4.61754  -4.61435  -4.61404  -0.99588  -0.90799
 Alpha  occ. eigenvalues --   -0.88060  -0.63427  -0.55393  -0.47007  -0.43662
 Alpha  occ. eigenvalues --   -0.42923  -0.38871  -0.36769  -0.32919  -0.32154
 Alpha  occ. eigenvalues --   -0.27833  -0.26751  -0.26070  -0.24389
 Alpha virt. eigenvalues --   -0.03978  -0.00979   0.00476   0.01862   0.03514
 Alpha virt. eigenvalues --    0.03785   0.07003   0.08488   0.15549   0.16466
 Alpha virt. eigenvalues --    0.18622   0.19414   0.20504   0.23167   0.23696

 Mulliken charges:
               1
     1  P    0.581961
     2  O   -0.319712
     3  P    0.580546
     4  O   -0.516720
     5  H    0.074424
     6  H    0.084446
     7  H    0.038347
     8  H    0.061641
     9  O   -0.584933
 Sum of Mulliken charges =  -0.00000

 Dipole moment (field-independent basis, Debye):
    X=              0.5169    Y=             -5.3452    Z=             -2.4831  Tot=              5.9164
 Quadrupole moment (field-independent basis, Debye-Ang):
   XX=            -42.3164   YY=            -47.3900   ZZ=            -40.7396
   XY=             -1.9022   XZ=              9.2687   YZ=              0.1721

 Normal termination of Gaussian 16 at Fri Sep 22 16:53:53 2023.
