 Gaussian 16, Revision A.03,
 Gaussian 16:  ES64L-G16RevA.03 25-Dec-2016

 -----------------------------------------
 # scrf=(cpcm,solvent=water) def2tzvp olyp
 -----------------------------------------

 -----------------------
 tmpdir/M2_conf_0_14.gjf
 -----------------------
 Symbolic Z-matrix:
 Charge =  0 Multiplicity = 1

                         Standard orientation:
 ---------------------------------------------------------------------
 Center     Atomic      Atomic             Coordinates (Angstroms)
 Number     Number       Type             X           Y           Z
 ---------------------------------------------------------------------
      1          8           0       -1.286513   -0.294250   -0.017693
      2         15           0        0.094668    0.381529   -0.004280
      3          1           0       -1.450800   -1.227570    0.067640
      4          1           0        0.102581    1.147327    1.158589
      5          1           0        0.183523    1.253792   -1.011664
      6          8           0        1.254597   -0.567811   -0.001103
 ---------------------------------------------------------------------

 SCF Done:  E(RO-LYP) =  -493.688512114     A.U. after   11 cycles

 The electronic state is 1-A.
 Alpha  occ. eigenvalues --  -76.36707 -18.80272 -18.71378  -6.39836  -4.60887
 Alpha  occ. eigenvalues --   -4.60596  -4.60563  -0.99595  -0.87282  -0.61363
 Alpha  occ. eigenvalues --   -0.47915  -0.42160  -0.39281  -0.32049  -0.30738
 Alpha  occ. eigenvalues --   -0.25075  -0.23656
 Alpha virt. eigenvalues --   -0.00833   0.01142   0.03813   0.05523   0.08689
 Alpha virt. eigenvalues --    0.16804   0.20482   0.23360   0.24614   0.28164
 Alpha virt. eigenvalues --    0.31036   0.32152   0.36518   0.40179   0.42934

 Mulliken charges:
               1
     1  O   -0.422999
     2  P    0.591854
     3  H    0.357121
     4  H    0.024554
     5  H    0.050835
     6  O   -0.601365
 Sum of Mulliken charges =  -0.00000

 Dipole moment (field-independent basis, Debye):
    X=             -3.5992    Y=              1.2114    Z=             -0.0102  Tot=              3.7977
 Quadrupole moment (field-independent basis, Debye-Ang):
   XX=            -29.0977   YY=            -21.1206   ZZ=            -23.8423
   XY=              5.5254   XZ=             -0.3143   YZ=             -0.4960

 Normal termination of Gaussian 16 at Fri Sep 22 16:54:09 2023.
