 Gaussian 16, Revision A.03,
 Gaussian 16:  ES64L-G16RevA.03 25-Dec-2016

 -----------------------------------------
 # scrf=(cpcm,solvent=water) def2tzvp olyp
 -----------------------------------------

 ----------------------
 tmpdir/M2_conf_0_6.gjf
 ----------------------
 Symbolic Z-matrix:
 Charge =  0 Multiplicity = 1

                         Standard orientation:
 ---------------------------------------------------------------------
 Center     Atomic      Atomic             Coordinates (Angstroms)
 Number     Number       Type             X           Y           Z
 ---------------------------------------------------------------------
      1          8           0        1.369727   -0.447233   -0.000797
      2         15           0        0.086277    0.293725   -0.008748
      3          8           0       -1.304201   -0.319836   -0.098897
      4          1           0       -0.001292    1.322853   -0.891982
      5          1           0        0.009935    1.050846    1.259477
      6          1           0       -1.827007   -0.643019    0.561279
 ---------------------------------------------------------------------

 SCF Done:  E(RO-LYP) =  -493.681969864     A.U. after   11 cycles

 The electronic state is 1-A.
 Alpha  occ. eigenvalues --  -76.37041 -18.80726 -18.72726  -6.40034  -4.61105
 Alpha  occ. eigenvalues --   -4.60857  -4.60707  -1.01346  -0.89022  -0.62567
 Alpha  occ. eigenvalues --   -0.48193  -0.41967  -0.37920  -0.33290  -0.31307
 Alpha  occ. eigenvalues --   -0.26847  -0.23988
 Alpha virt. eigenvalues --   -0.01340   0.03007   0.03590   0.06285   0.07494
 Alpha virt. eigenvalues --    0.16602   0.20649   0.23095   0.23848   0.26995
 Alpha virt. eigenvalues --    0.31177   0.32799   0.36806   0.38251   0.44189

 Mulliken charges:
               1
     1  O   -0.555975
     2  P    0.570331
     3  O   -0.382703
     4  H    0.047158
     5  H   -0.019410
     6  H    0.340599
 Sum of Mulliken charges =  -0.00000

 Dipole moment (field-independent basis, Debye):
    X=             -4.5719    Y=              1.3025    Z=              0.9447  Tot=              4.8468
 Quadrupole moment (field-independent basis, Debye-Ang):
   XX=            -26.6519   YY=            -23.9570   ZZ=            -23.4432
   XY=              3.6362   XZ=             -2.7303   YZ=             -1.5394

 Normal termination of Gaussian 16 at Fri Sep 22 16:53:29 2023.
