 Gaussian 16, Revision A.03,
 Gaussian 16:  ES64L-G16RevA.03 25-Dec-2016

 -----------------------------------------
 # scrf=(cpcm,solvent=water) def2tzvp olyp
 -----------------------------------------

 -----------------------
 tmpdir/M2_conf_0_53.gjf
 -----------------------
 Symbolic Z-matrix:
 Charge = -1 Multiplicity = 1

                         Standard orientation:
 ---------------------------------------------------------------------
 Center     Atomic      Atomic             Coordinates (Angstroms)
 Number     Number       Type             X           Y           Z
 ---------------------------------------------------------------------
      1          6           0       -0.566395    0.000025   -0.000101
      2          8           0        0.809905   -0.000051   -0.000029
      3          1           0       -1.026638    0.991275   -0.240441
      4          1           0       -1.027595   -0.704047   -0.737488
      5          1           0       -1.026632   -0.286975    0.978772
 ---------------------------------------------------------------------

 SCF Done:  E(RO-LYP) =  -115.211449647     A.U. after   12 cycles

 The electronic state is 1-A.
 Alpha  occ. eigenvalues --  -18.60432  -9.87818  -0.76998  -0.51743  -0.31307
 Alpha  occ. eigenvalues --   -0.31299  -0.25619  -0.10340  -0.10336
 Alpha virt. eigenvalues --    0.05101   0.11038   0.12491   0.12493   0.22668
 Alpha virt. eigenvalues --    0.22675   0.33844   0.38031   0.43033   0.43041
 Alpha virt. eigenvalues --    0.43066   0.50376   0.53930   0.53937   0.70724

 Mulliken charges:
               1
     1  C   -0.131671
     2  O   -0.876067
     3  H    0.002625
     4  H    0.002585
     5  H    0.002529
 Sum of Mulliken charges =  -1.00000

 Dipole moment (field-independent basis, Debye):
    X=             -3.0706    Y=              0.0003    Z=             -0.0004  Tot=              3.0706
 Quadrupole moment (field-independent basis, Debye-Ang):
   XX=            -20.3837   YY=            -16.4155   ZZ=            -16.4173
   XY=              0.0006   XZ=              0.0012   YZ=              0.0000

 Normal termination of Gaussian 16 at Fri Sep 22 16:54:58 2023.
