 Gaussian 16, Revision A.03,
 Gaussian 16:  ES64L-G16RevA.03 25-Dec-2016

 -----------------------------------------
 # scrf=(cpcm,solvent=water) def2tzvp olyp
 -----------------------------------------

 -----------------------
 tmpdir/M2_conf_0_27.gjf
 -----------------------
 Symbolic Z-matrix:
 Charge =  0 Multiplicity = 1

                         Standard orientation:
 ---------------------------------------------------------------------
 Center     Atomic      Atomic             Coordinates (Angstroms)
 Number     Number       Type             X           Y           Z
 ---------------------------------------------------------------------
      1          8           0        0.000000    0.097159    0.000000
      2          1           0        0.770405   -0.494036   -0.000000
      3          1           0       -0.770405   -0.283232    0.000000
 ---------------------------------------------------------------------

 SCF Done:  E(RO-LYP) =  -76.4295847155     A.U. after   10 cycles

 The electronic state is 1-A'.
 Alpha  occ. eigenvalues --  -18.74460  -0.94221  -0.51188  -0.31820  -0.25942
 Alpha virt. eigenvalues --    0.00647   0.08231   0.34431   0.37322   0.39615
 Alpha virt. eigenvalues --    0.40974   0.55219   0.58327   1.12363   1.19609
 Alpha virt. eigenvalues --    1.27864   1.43392   1.51620   1.67872   1.88622

 Mulliken charges:
               1
     1  O   -0.655180
     2  H    0.350412
     3  H    0.304768
 Sum of Mulliken charges =  -0.00000

 Dipole moment (field-independent basis, Debye):
    X=             -0.0663    Y=             -1.9811    Z=             -0.0000  Tot=              1.9822
 Quadrupole moment (field-independent basis, Debye-Ang):
   XX=             -3.9573   YY=             -6.4968   ZZ=             -7.4685
   XY=             -0.4003   XZ=             -0.0000   YZ=              0.0000

 Normal termination of Gaussian 16 at Fri Sep 22 16:54:05 2023.
