 Gaussian 16, Revision A.03,
 Gaussian 16:  ES64L-G16RevA.03 25-Dec-2016

 -----------------------------------------
 # scrf=(cpcm,solvent=water) def2tzvp olyp
 -----------------------------------------

 ----------------------
 tmpdir/M2_conf_0_1.gjf
 ----------------------
 Symbolic Z-matrix:
 Charge =  0 Multiplicity = 1

                         Standard orientation:
 ---------------------------------------------------------------------
 Center     Atomic      Atomic             Coordinates (Angstroms)
 Number     Number       Type             X           Y           Z
 ---------------------------------------------------------------------
      1          8           0       -1.089845   -0.001353    0.002636
      2         15           0        0.389367   -0.023670   -0.004882
      3          1           0        0.988245   -0.186258    1.204162
      4          1           0        1.043689   -0.794287   -0.828549
      5          1           0        0.846323    1.346415   -0.323471
 ---------------------------------------------------------------------

 SCF Done:  E(RO-LYP) =  -418.404041117     A.U. after   10 cycles

 The electronic state is 1-A.
 Alpha  occ. eigenvalues --  -76.34344 -18.71902  -6.38099  -4.58991  -4.58906
 Alpha  occ. eigenvalues --   -4.58810  -0.89119  -0.58548  -0.40708  -0.38112
 Alpha  occ. eigenvalues --   -0.34230  -0.24983  -0.23968
 Alpha virt. eigenvalues --   -0.02163   0.01355   0.02417   0.06188   0.14476
 Alpha virt. eigenvalues --    0.15059   0.22083   0.25087   0.26523   0.28222
 Alpha virt. eigenvalues --    0.29732   0.30595   0.38780   0.48002   0.49776

 Mulliken charges:
               1
     1  O   -0.583862
     2  P    0.419101
     3  H    0.060454
     4  H    0.073387
     5  H    0.030920
 Sum of Mulliken charges =  -0.00000

 Dipole moment (field-independent basis, Debye):
    X=              4.4230    Y=             -0.4526    Z=             -0.0513  Tot=              4.4464
 Quadrupole moment (field-independent basis, Debye-Ang):
   XX=            -22.3063   YY=            -18.7235   ZZ=            -18.5068
   XY=             -0.4871   XZ=             -0.0316   YZ=              0.1962

 Normal termination of Gaussian 16 at Fri Sep 22 16:53:28 2023.
