 Gaussian 16, Revision A.03,
 Gaussian 16:  ES64L-G16RevA.03 25-Dec-2016

 -----------------------------------------
 # scrf=(cpcm,solvent=water) def2tzvp olyp
 -----------------------------------------

 ----------------------
 tmpdir/M2_conf_0_8.gjf
 ----------------------
 Symbolic Z-matrix:
 Charge =  0 Multiplicity = 1

                         Standard orientation:
 ---------------------------------------------------------------------
 Center     Atomic      Atomic             Coordinates (Angstroms)
 Number     Number       Type             X           Y           Z
 ---------------------------------------------------------------------
      1          8           0       -1.176710   -0.910887   -0.135422
      2         15           0        0.022140    0.079707    0.179379
      3          8           0        1.327267   -0.591719   -0.225391
      4          1           0       -2.123445   -0.591090   -0.150273
      5          8           0       -0.195181    1.498931   -0.187898
      6          1           0        0.021961    0.004774    1.656479
      7          1           0        2.126376   -0.579890    0.192801
 ---------------------------------------------------------------------

 SCF Done:  E(RO-LYP) =  -568.964717968     A.U. after   11 cycles

 The electronic state is 1-A.
 Alpha  occ. eigenvalues --  -76.39938 -18.80979 -18.80437 -18.72170  -6.42292
 Alpha  occ. eigenvalues --   -4.63314  -4.63285  -4.62960  -1.02288  -0.96768
 Alpha  occ. eigenvalues --   -0.88081  -0.62910  -0.52828  -0.45618  -0.39576
 Alpha  occ. eigenvalues --   -0.37263  -0.34299  -0.33059  -0.29066  -0.25534
 Alpha  occ. eigenvalues --   -0.24889
 Alpha virt. eigenvalues --   -0.01604   0.01787   0.05105   0.06699   0.08067
 Alpha virt. eigenvalues --    0.10751   0.17813   0.20876   0.24984   0.25892
 Alpha virt. eigenvalues --    0.31278   0.34336   0.34979   0.35563   0.38094

 Mulliken charges:
               1
     1  O   -0.443264
     2  P    0.701898
     3  O   -0.374360
     4  H    0.368261
     5  O   -0.556621
     6  H   -0.041502
     7  H    0.345589
 Sum of Mulliken charges =  -0.00000

 Dipole moment (field-independent basis, Debye):
    X=              0.6842    Y=             -3.1360    Z=              1.6039  Tot=              3.5882
 Quadrupole moment (field-independent basis, Debye-Ang):
   XX=            -17.0702   YY=            -38.1318   ZZ=            -30.1942
   XY=             -0.0978   XZ=              1.9269   YZ=              0.2943

 Normal termination of Gaussian 16 at Fri Sep 22 16:53:56 2023.
