 Gaussian 16, Revision A.03,
 Gaussian 16:  ES64L-G16RevA.03 25-Dec-2016

 -----------------------------------------
 # scrf=(cpcm,solvent=water) def2tzvp olyp
 -----------------------------------------

 -----------------------
 tmpdir/M2_conf_0_48.gjf
 -----------------------
 Symbolic Z-matrix:
 Charge =  0 Multiplicity = 1

                         Standard orientation:
 ---------------------------------------------------------------------
 Center     Atomic      Atomic             Coordinates (Angstroms)
 Number     Number       Type             X           Y           Z
 ---------------------------------------------------------------------
      1          1           0        0.517311   -0.836155   -0.491642
      2          6           0        0.015316    0.001004   -0.001677
      3          1           0        0.015219   -0.149554    1.077264
      4          1           0       -1.134738    0.039640   -0.323276
      5          1           0        0.510314    0.940043   -0.252281
 ---------------------------------------------------------------------

 SCF Done:  E(RO-LYP) =  -40.5045891175     A.U. after    8 cycles

 The electronic state is 1-A.
 Alpha  occ. eigenvalues --   -9.88930  -0.61986  -0.34607  -0.34492  -0.32675
 Alpha virt. eigenvalues --    0.02287   0.08644   0.10181   0.10265   0.17694
 Alpha virt. eigenvalues --    0.17717   0.18332   0.36512   0.39333   0.42873
 Alpha virt. eigenvalues --    0.43019   0.47048   0.55842   0.56044   0.89482

 Mulliken charges:
               1
     1  H    0.126569
     2  C   -0.493284
     3  H    0.126613
     4  H    0.113226
     5  H    0.126877
 Sum of Mulliken charges =  -0.00000

 Dipole moment (field-independent basis, Debye):
    X=              0.0690    Y=             -0.0081    Z=              0.0515  Tot=              0.0865
 Quadrupole moment (field-independent basis, Debye-Ang):
   XX=             -8.4562   YY=             -8.4796   ZZ=             -8.5751
   XY=              0.0140   XZ=             -0.0949   YZ=              0.0026

 Normal termination of Gaussian 16 at Fri Sep 22 16:54:46 2023.
