 Gaussian 16, Revision A.03,
 Gaussian 16:  ES64L-G16RevA.03 25-Dec-2016

 -----------------------------------------
 # scrf=(cpcm,solvent=water) def2tzvp olyp
 -----------------------------------------

 -----------------------
 tmpdir/M2_conf_0_16.gjf
 -----------------------
 Symbolic Z-matrix:
 Charge =  0 Multiplicity = 1

                         Standard orientation:
 ---------------------------------------------------------------------
 Center     Atomic      Atomic             Coordinates (Angstroms)
 Number     Number       Type             X           Y           Z
 ---------------------------------------------------------------------
      1         15           0       -0.146127    0.414686    0.005197
      2          8           0        1.340240   -0.291007   -0.021449
      3          1           0       -0.134595    1.191964    1.097161
      4          1           0       -0.205326    1.173617   -1.092107
      5          8           0       -1.213639   -0.637486   -0.001384
      6          1           0        1.519028   -1.157916    0.099644
 ---------------------------------------------------------------------

 SCF Done:  E(RO-LYP) =  -493.680492208     A.U. after   11 cycles

 The electronic state is 1-A.
 Alpha  occ. eigenvalues --  -76.37645 -18.78145 -18.72050  -6.40710  -4.61826
 Alpha  occ. eigenvalues --   -4.61443  -4.61409  -0.96945  -0.87872  -0.61042
 Alpha  occ. eigenvalues --   -0.47977  -0.42567  -0.37423  -0.32196  -0.29401
 Alpha  occ. eigenvalues --   -0.25203  -0.24457
 Alpha virt. eigenvalues --   -0.01565   0.00485   0.03232   0.05437   0.08625
 Alpha virt. eigenvalues --    0.16801   0.20033   0.22197   0.24322   0.27253
 Alpha virt. eigenvalues --    0.29978   0.31884   0.37310   0.40314   0.43929

 Mulliken charges:
               1
     1  P    0.612526
     2  O   -0.470114
     3  H    0.058361
     4  H    0.061280
     5  O   -0.581223
     6  H    0.319171
 Sum of Mulliken charges =  -0.00000

 Dipole moment (field-independent basis, Debye):
    X=              2.5717    Y=              2.1362    Z=              0.2796  Tot=              3.3549
 Quadrupole moment (field-independent basis, Debye-Ang):
   XX=            -29.3133   YY=            -21.2612   ZZ=            -23.4992
   XY=             -5.5372   XZ=              0.4733   YZ=             -0.3293

 Normal termination of Gaussian 16 at Fri Sep 22 16:54:03 2023.
