 Gaussian 16, Revision A.03,
 Gaussian 16:  ES64L-G16RevA.03 25-Dec-2016

 -----------------------------------------
 # scrf=(cpcm,solvent=water) def2tzvp olyp
 -----------------------------------------

 -----------------------
 tmpdir/M2_conf_0_35.gjf
 -----------------------
 Symbolic Z-matrix:
 Charge =  0 Multiplicity = 1

                         Standard orientation:
 ---------------------------------------------------------------------
 Center     Atomic      Atomic             Coordinates (Angstroms)
 Number     Number       Type             X           Y           Z
 ---------------------------------------------------------------------
      1          8           0        1.291887   -0.515896   -0.006703
      2         15           0        0.089723    0.376689   -0.006197
      3          8           0       -1.209488   -0.491576    0.016416
      4          1           0        0.090221    1.208510    1.105815
      5          1           0       -0.045445    1.207896   -1.047098
      6          1           0       -2.049819   -0.006969   -0.043470
 ---------------------------------------------------------------------

 SCF Done:  E(RO-LYP) =  -493.694081619     A.U. after   11 cycles

 The electronic state is 1-A.
 Alpha  occ. eigenvalues --  -76.36708 -18.80516 -18.72097  -6.39873  -4.60929
 Alpha  occ. eigenvalues --   -4.60655  -4.60572  -0.99025  -0.87868  -0.58627
 Alpha  occ. eigenvalues --   -0.50222  -0.41913  -0.37081  -0.33182  -0.30413
 Alpha  occ. eigenvalues --   -0.25995  -0.24276
 Alpha virt. eigenvalues --   -0.00824   0.00812   0.03621   0.04823   0.08611
 Alpha virt. eigenvalues --    0.16983   0.20127   0.22409   0.27381   0.28140
 Alpha virt. eigenvalues --    0.29157   0.30938   0.35133   0.39759   0.43214

 Mulliken charges:
               1
     1  O   -0.586563
     2  P    0.578654
     3  O   -0.410433
     4  H    0.028918
     5  H    0.040348
     6  H    0.349076
 Sum of Mulliken charges =  -0.00000

 Dipole moment (field-independent basis, Debye):
    X=             -4.8987    Y=              3.9482    Z=             -0.2160  Tot=              6.2955
 Quadrupole moment (field-independent basis, Debye-Ang):
   XX=            -24.1339   YY=            -24.9396   ZZ=            -23.9084
   XY=              0.5747   XZ=              0.3264   YZ=             -0.1268

 Normal termination of Gaussian 16 at Fri Sep 22 16:54:58 2023.
