 Gaussian 16, Revision A.03,
 Gaussian 16:  ES64L-G16RevA.03 25-Dec-2016

 -----------------------------------------
 # scrf=(cpcm,solvent=water) def2tzvp olyp
 -----------------------------------------

 -----------------------
 tmpdir/M2_conf_0_47.gjf
 -----------------------
 Symbolic Z-matrix:
 Charge =  0 Multiplicity = 1

                         Standard orientation:
 ---------------------------------------------------------------------
 Center     Atomic      Atomic             Coordinates (Angstroms)
 Number     Number       Type             X           Y           Z
 ---------------------------------------------------------------------
      1          8           0       -0.754105    0.103943   -0.000218
      2          6           0        0.695642   -0.021916   -0.000274
      3          1           0        1.010649   -0.664796   -0.823137
      4          1           0       -1.270727   -0.601313    0.010042
      5          1           0        1.040715   -0.422517    0.955420
      6          1           0        1.078348    0.988580   -0.138941
 ---------------------------------------------------------------------

 SCF Done:  E(RO-LYP) =  -115.718949458     A.U. after    9 cycles

 The electronic state is 1-A.
 Alpha  occ. eigenvalues --  -18.74354  -9.93915  -0.93595  -0.63191  -0.45785
 Alpha  occ. eigenvalues --   -0.38368  -0.37768  -0.27598  -0.22661
 Alpha virt. eigenvalues --    0.01677   0.04626   0.09318   0.09944   0.11448
 Alpha virt. eigenvalues --    0.19232   0.19869   0.24965   0.34023   0.37350
 Alpha virt. eigenvalues --    0.40912   0.42422   0.45572   0.46066   0.46689

 Mulliken charges:
               1
     1  O   -0.481506
     2  C   -0.149015
     3  H    0.111053
     4  H    0.287385
     5  H    0.108459
     6  H    0.123624
 Sum of Mulliken charges =  -0.00000

 Dipole moment (field-independent basis, Debye):
    X=              0.8209    Y=             -1.5448    Z=              0.0042  Tot=              1.7494
 Quadrupole moment (field-independent basis, Debye-Ang):
   XX=            -12.0018   YY=            -12.5024   ZZ=            -13.6332
   XY=              2.2678   XZ=             -0.0479   YZ=             -0.0146

 Normal termination of Gaussian 16 at Fri Sep 22 16:54:58 2023.
