 Gaussian 16, Revision A.03,
 Gaussian 16:  ES64L-G16RevA.03 25-Dec-2016

 -----------------------------------------
 # scrf=(cpcm,solvent=water) def2tzvp olyp
 -----------------------------------------

 -----------------------
 tmpdir/M2_conf_0_21.gjf
 -----------------------
 Symbolic Z-matrix:
 Charge =  0 Multiplicity = 1

                         Standard orientation:
 ---------------------------------------------------------------------
 Center     Atomic      Atomic             Coordinates (Angstroms)
 Number     Number       Type             X           Y           Z
 ---------------------------------------------------------------------
      1          8           0       -1.314912   -0.282457   -0.017566
      2         15           0        0.104240    0.377130   -0.004321
      3          8           0        1.264438   -0.571883   -0.001156
      4          1           0       -1.497773   -1.212302    0.067850
      5          1           0        0.127743    1.142671    1.158508
      6          1           0        0.210219    1.247398   -1.011771
 ---------------------------------------------------------------------

 SCF Done:  E(RO-LYP) =  -493.689969298     A.U. after   11 cycles

 The electronic state is 1-A.
 Alpha  occ. eigenvalues --  -76.37007 -18.80195 -18.71579  -6.40077  -4.61128
 Alpha  occ. eigenvalues --   -4.60837  -4.60811  -0.98788  -0.87477  -0.61036
 Alpha  occ. eigenvalues --   -0.47833  -0.41951  -0.38908  -0.32138  -0.30572
 Alpha  occ. eigenvalues --   -0.25267  -0.23721
 Alpha virt. eigenvalues --   -0.00986   0.00940   0.03873   0.05355   0.08359
 Alpha virt. eigenvalues --    0.16703   0.20523   0.22495   0.24575   0.28119
 Alpha virt. eigenvalues --    0.30985   0.31993   0.36320   0.40030   0.42984

 Mulliken charges:
               1
     1  O   -0.438175
     2  P    0.596361
     3  O   -0.596298
     4  H    0.355912
     5  H    0.028354
     6  H    0.053847
 Sum of Mulliken charges =  -0.00000

 Dipole moment (field-independent basis, Debye):
    X=             -3.4966    Y=              1.2611    Z=             -0.0034  Tot=              3.7171
 Quadrupole moment (field-independent basis, Debye-Ang):
   XX=            -29.0944   YY=            -21.2159   ZZ=            -23.8471
   XY=              5.6431   XZ=             -0.3259   YZ=             -0.4850

 Normal termination of Gaussian 16 at Fri Sep 22 16:54:01 2023.
