 Gaussian 16, Revision A.03,
 Gaussian 16:  ES64L-G16RevA.03 25-Dec-2016

 -----------------------------------------
 # scrf=(cpcm,solvent=water) def2tzvp olyp
 -----------------------------------------

 -----------------------
 tmpdir/M2_conf_0_60.gjf
 -----------------------
 Symbolic Z-matrix:
 Charge = -1 Multiplicity = 1

                         Standard orientation:
 ---------------------------------------------------------------------
 Center     Atomic      Atomic             Coordinates (Angstroms)
 Number     Number       Type             X           Y           Z
 ---------------------------------------------------------------------
      1          8           0        0.811490   -0.000074    0.000327
      2          6           0       -0.567310    0.000003   -0.000143
      3          1           0       -1.032280   -0.055189    1.016290
      4          1           0       -1.027411    0.909924   -0.461138
      5          1           0       -1.028368   -0.854159   -0.556909
 ---------------------------------------------------------------------

 SCF Done:  E(RO-LYP) =  -115.211423676     A.U. after   12 cycles

 The electronic state is 1-A.
 Alpha  occ. eigenvalues --  -18.60460  -9.87840  -0.76911  -0.51792  -0.31297
 Alpha  occ. eigenvalues --   -0.31261  -0.25611  -0.10352  -0.10347
 Alpha virt. eigenvalues --    0.05089   0.11016   0.12483   0.12490   0.22679
 Alpha virt. eigenvalues --    0.22683   0.33853   0.37886   0.43005   0.43041
 Alpha virt. eigenvalues --    0.43077   0.50351   0.53912   0.53926   0.70659

 Mulliken charges:
               1
     1  O   -0.876902
     2  C   -0.132896
     3  H    0.002939
     4  H    0.003442
     5  H    0.003417
 Sum of Mulliken charges =  -1.00000

 Dipole moment (field-independent basis, Debye):
    X=             -3.0866    Y=              0.0003    Z=             -0.0031  Tot=              3.0866
 Quadrupole moment (field-independent basis, Debye-Ang):
   XX=            -20.3780   YY=            -16.4123   ZZ=            -16.4200
   XY=              0.0010   XZ=             -0.0029   YZ=              0.0001

 Normal termination of Gaussian 16 at Fri Sep 22 16:55:00 2023.
