 Gaussian 16, Revision A.03,
 Gaussian 16:  ES64L-G16RevA.03 25-Dec-2016

 -----------------------------------------
 # scrf=(cpcm,solvent=water) def2tzvp olyp
 -----------------------------------------

 -----------------------
 tmpdir/M2_conf_0_29.gjf
 -----------------------
 Symbolic Z-matrix:
 Charge =  0 Multiplicity = 1

                         Standard orientation:
 ---------------------------------------------------------------------
 Center     Atomic      Atomic             Coordinates (Angstroms)
 Number     Number       Type             X           Y           Z
 ---------------------------------------------------------------------
      1         15           0        0.401404   -0.004121   -0.000210
      2          8           0       -1.098639    0.003153    0.010617
      3          1           0        0.899964    1.213212   -0.445216
      4          1           0        0.855492   -0.968304   -0.809986
      5          1           0        1.012588   -0.208325    1.173419
 ---------------------------------------------------------------------

 SCF Done:  E(RO-LYP) =  -418.408318594     A.U. after   10 cycles

 The electronic state is 1-A.
 Alpha  occ. eigenvalues --  -76.34133 -18.71252  -6.37936  -4.58780  -4.58753
 Alpha  occ. eigenvalues --   -4.58673  -0.87911  -0.58781  -0.40375  -0.39739
 Alpha  occ. eigenvalues --   -0.33531  -0.23981  -0.23666
 Alpha virt. eigenvalues --   -0.02029   0.01946   0.03735   0.04356   0.14533
 Alpha virt. eigenvalues --    0.14706   0.22014   0.25697   0.27519   0.28200
 Alpha virt. eigenvalues --    0.29802   0.30224   0.38657   0.48440   0.50346

 Mulliken charges:
               1
     1  P    0.431919
     2  O   -0.612721
     3  H    0.056348
     4  H    0.061378
     5  H    0.063076
 Sum of Mulliken charges =  -0.00000

 Dipole moment (field-independent basis, Debye):
    X=              4.7439    Y=             -0.0765    Z=              0.0036  Tot=              4.7445
 Quadrupole moment (field-independent basis, Debye-Ang):
   XX=            -22.4072   YY=            -18.4265   ZZ=            -18.4657
   XY=             -0.0380   XZ=              0.1603   YZ=              0.0262

 Normal termination of Gaussian 16 at Fri Sep 22 16:54:22 2023.
