 Gaussian 16, Revision A.03,
 Gaussian 16:  ES64L-G16RevA.03 25-Dec-2016

 -----------------------------------------
 # scrf=(cpcm,solvent=water) def2tzvp olyp
 -----------------------------------------

 ----------------------
 tmpdir/M2_conf_0_0.gjf
 ----------------------
 Symbolic Z-matrix:
 Charge =  1 Multiplicity = 1

                         Standard orientation:
 ---------------------------------------------------------------------
 Center     Atomic      Atomic             Coordinates (Angstroms)
 Number     Number       Type             X           Y           Z
 ---------------------------------------------------------------------
      1         12           0        0.031010   -0.855840    0.000000
      2          8           0        0.031010    1.082360   -0.000000
      3          1           0       -0.620200    1.611210   -0.000000
 ---------------------------------------------------------------------

 SCF Done:  E(RO-LYP) =  -275.856578434     A.U. after   10 cycles

 The electronic state is 1-A'.
 Alpha  occ. eigenvalues --  -46.27291 -18.67935  -2.98617  -1.76921  -1.76890
 Alpha  occ. eigenvalues --   -1.76507  -0.85401  -0.37743  -0.22643  -0.21160
 Alpha virt. eigenvalues --   -0.08294   0.02181   0.02581   0.03042   0.10387
 Alpha virt. eigenvalues --    0.11691   0.14604   0.14656   0.16239   0.16244
 Alpha virt. eigenvalues --    0.21154   0.27888   0.27932   0.35524   0.46149

 Mulliken charges:
               1
     1  Mg   1.583235
     2  O   -0.841669
     3  H    0.258434
 Sum of Mulliken charges =   1.00000

 Dipole moment (field-independent basis, Debye):
    X=             -0.8920    Y=            -10.3895    Z=              0.0000  Tot=             10.4278
 Quadrupole moment (field-independent basis, Debye-Ang):
   XX=             -9.8901   YY=             -3.6742   ZZ=            -11.2943
   XY=             -2.8184   XZ=              0.0000   YZ=             -0.0000

 Normal termination of Gaussian 16 at Fri Sep 22 16:53:21 2023.
