 Gaussian 16, Revision A.03,
 Gaussian 16:  ES64L-G16RevA.03 25-Dec-2016

 -----------------------------------------
 # scrf=(cpcm,solvent=water) def2tzvp olyp
 -----------------------------------------

 -----------------------
 tmpdir/M2_conf_0_25.gjf
 -----------------------
 Symbolic Z-matrix:
 Charge =  0 Multiplicity = 1

                         Standard orientation:
 ---------------------------------------------------------------------
 Center     Atomic      Atomic             Coordinates (Angstroms)
 Number     Number       Type             X           Y           Z
 ---------------------------------------------------------------------
      1          8           0        1.315248   -0.305438   -0.055677
      2         15           0       -0.129615    0.402726    0.012018
      3          1           0        1.540369   -1.092421    0.308250
      4          8           0       -1.226496   -0.615756   -0.025923
      5          1           0       -0.197815    1.116906    1.142011
      6          1           0       -0.108340    1.304170   -0.977732
 ---------------------------------------------------------------------

 SCF Done:  E(RO-LYP) =  -493.683950368     A.U. after   11 cycles

 The electronic state is 1-A.
 Alpha  occ. eigenvalues --  -76.37222 -18.78925 -18.71888  -6.40331  -4.61425
 Alpha  occ. eigenvalues --   -4.61090  -4.61018  -0.98161  -0.87810  -0.61410
 Alpha  occ. eigenvalues --   -0.48630  -0.42068  -0.37676  -0.32588  -0.30171
 Alpha  occ. eigenvalues --   -0.25238  -0.24295
 Alpha virt. eigenvalues --   -0.00928   0.01011   0.03485   0.05730   0.08336
 Alpha virt. eigenvalues --    0.16589   0.20534   0.22500   0.24017   0.27265
 Alpha virt. eigenvalues --    0.30165   0.32354   0.37388   0.40456   0.43264

 Mulliken charges:
               1
     1  O   -0.444873
     2  P    0.601722
     3  H    0.323500
     4  O   -0.583643
     5  H    0.041520
     6  H    0.061773
 Sum of Mulliken charges =  -0.00000

 Dipole moment (field-independent basis, Debye):
    X=              3.0235    Y=              2.0288    Z=              0.8055  Tot=              3.7291
 Quadrupole moment (field-independent basis, Debye-Ang):
   XX=            -28.8456   YY=            -21.6635   ZZ=            -23.4138
   XY=             -5.3327   XZ=              1.2007   YZ=             -1.2178

 Normal termination of Gaussian 16 at Fri Sep 22 16:54:17 2023.
