 Gaussian 16, Revision A.03,
 Gaussian 16:  ES64L-G16RevA.03 25-Dec-2016

 -----------------------------------------
 # scrf=(cpcm,solvent=water) def2tzvp olyp
 -----------------------------------------

 -----------------------
 tmpdir/M2_conf_0_50.gjf
 -----------------------
 Symbolic Z-matrix:
 Charge =  0 Multiplicity = 1

                         Standard orientation:
 ---------------------------------------------------------------------
 Center     Atomic      Atomic             Coordinates (Angstroms)
 Number     Number       Type             X           Y           Z
 ---------------------------------------------------------------------
      1          1           0        0.004712   -0.117335    1.081460
      2          6           0        0.015478    0.000790   -0.001463
      3          1           0        0.511866    0.932558   -0.275374
      4          1           0       -1.131766    0.029371   -0.333988
      5          1           0        0.522321   -0.849331   -0.463319
 ---------------------------------------------------------------------

 SCF Done:  E(RO-LYP) =  -40.5045849003     A.U. after    8 cycles

 The electronic state is 1-A.
 Alpha  occ. eigenvalues --   -9.88930  -0.61986  -0.34615  -0.34498  -0.32663
 Alpha virt. eigenvalues --    0.02288   0.08642   0.10179   0.10266   0.17692
 Alpha virt. eigenvalues --    0.17719   0.18332   0.36509   0.39329   0.42875
 Alpha virt. eigenvalues --    0.43026   0.47034   0.55848   0.56049   0.89484

 Mulliken charges:
               1
     1  H    0.126658
     2  C   -0.493324
     3  H    0.126874
     4  H    0.113186
     5  H    0.126606
 Sum of Mulliken charges =  -0.00000

 Dipole moment (field-independent basis, Debye):
    X=              0.0681    Y=             -0.0058    Z=              0.0519  Tot=              0.0859
 Quadrupole moment (field-independent basis, Debye-Ang):
   XX=             -8.4552   YY=             -8.4813   ZZ=             -8.5746
   XY=              0.0108   XZ=             -0.0980   YZ=              0.0018

 Normal termination of Gaussian 16 at Fri Sep 22 16:54:52 2023.
