 Gaussian 16, Revision A.03,
 Gaussian 16:  ES64L-G16RevA.03 25-Dec-2016

 -----------------------------------------
 # scrf=(cpcm,solvent=water) def2tzvp olyp
 -----------------------------------------

 -----------------------
 tmpdir/M2_conf_0_33.gjf
 -----------------------
 Symbolic Z-matrix:
 Charge =  0 Multiplicity = 1

                         Standard orientation:
 ---------------------------------------------------------------------
 Center     Atomic      Atomic             Coordinates (Angstroms)
 Number     Number       Type             X           Y           Z
 ---------------------------------------------------------------------
      1          8           0        1.221522   -0.859684   -0.097278
      2         15           0       -0.028189    0.098326    0.289216
      3          8           0       -1.336546   -0.524063   -0.296595
      4          1           0        1.699184   -0.832652   -0.854625
      5          8           0        0.171585    1.481050   -0.249357
      6          1           0       -0.144298   -0.020959    1.617727
      7          1           0       -1.584544   -1.399700    0.044495
 ---------------------------------------------------------------------

 SCF Done:  E(RO-LYP) =  -568.973972785     A.U. after   11 cycles

 The electronic state is 1-A.
 Alpha  occ. eigenvalues --  -76.39738 -18.80717 -18.78685 -18.72164  -6.42269
 Alpha  occ. eigenvalues --   -4.63383  -4.63181  -4.62917  -1.00401  -0.96326
 Alpha  occ. eigenvalues --   -0.87621  -0.60773  -0.53609  -0.46380  -0.38397
 Alpha  occ. eigenvalues --   -0.38111  -0.32566  -0.32039  -0.30506  -0.25709
 Alpha  occ. eigenvalues --   -0.24846
 Alpha virt. eigenvalues --    0.00222   0.01383   0.03755   0.05577   0.07157
 Alpha virt. eigenvalues --    0.12735   0.19224   0.21096   0.22369   0.25582
 Alpha virt. eigenvalues --    0.28574   0.32873   0.36276   0.36385   0.39133

 Mulliken charges:
               1
     1  O   -0.445689
     2  P    0.696701
     3  O   -0.397110
     4  H    0.322996
     5  O   -0.574481
     6  H    0.046344
     7  H    0.351239
 Sum of Mulliken charges =  -0.00000

 Dipole moment (field-independent basis, Debye):
    X=             -0.4674    Y=             -5.1615    Z=              1.3525  Tot=              5.3562
 Quadrupole moment (field-independent basis, Debye-Ang):
   XX=            -26.7351   YY=            -33.3647   ZZ=            -26.9167
   XY=              2.1665   XZ=             -4.1917   YZ=              1.9089

 Normal termination of Gaussian 16 at Fri Sep 22 16:54:32 2023.
