 Gaussian 16, Revision A.03,
 Gaussian 16:  ES64L-G16RevA.03 25-Dec-2016

 -----------------------------------------
 # scrf=(cpcm,solvent=water) def2tzvp olyp
 -----------------------------------------

 -----------------------
 tmpdir/M2_conf_0_40.gjf
 -----------------------
 Symbolic Z-matrix:
 Charge =  0 Multiplicity = 1

                         Standard orientation:
 ---------------------------------------------------------------------
 Center     Atomic      Atomic             Coordinates (Angstroms)
 Number     Number       Type             X           Y           Z
 ---------------------------------------------------------------------
      1          8           0        0.000000    0.097776    0.000000
      2          1           0        0.770435   -0.494692   -0.000000
      3          1           0       -0.770435   -0.287515    0.000000
 ---------------------------------------------------------------------

 SCF Done:  E(RO-LYP) =  -76.4303284229     A.U. after   10 cycles

 The electronic state is 1-A'.
 Alpha  occ. eigenvalues --  -18.74500  -0.94168  -0.51071  -0.31868  -0.25932
 Alpha virt. eigenvalues --    0.00629   0.08219   0.34388   0.37318   0.39616
 Alpha virt. eigenvalues --    0.40933   0.55185   0.58279   1.12381   1.19360
 Alpha virt. eigenvalues --    1.27736   1.43462   1.51807   1.67943   1.88726

 Mulliken charges:
               1
     1  O   -0.656192
     2  H    0.350179
     3  H    0.306013
 Sum of Mulliken charges =  -0.00000

 Dipole moment (field-independent basis, Debye):
    X=             -0.0658    Y=             -1.9889    Z=             -0.0000  Tot=              1.9900
 Quadrupole moment (field-independent basis, Debye-Ang):
   XX=             -3.9648   YY=             -6.4912   ZZ=             -7.4718
   XY=             -0.3922   XZ=             -0.0000   YZ=              0.0000

 Normal termination of Gaussian 16 at Fri Sep 22 16:54:34 2023.
