 Gaussian 16, Revision A.03,
 Gaussian 16:  ES64L-G16RevA.03 25-Dec-2016

 -----------------------------------------
 # scrf=(cpcm,solvent=water) def2tzvp olyp
 -----------------------------------------

 -----------------------
 tmpdir/M2_conf_0_32.gjf
 -----------------------
 Symbolic Z-matrix:
 Charge =  0 Multiplicity = 1

                         Standard orientation:
 ---------------------------------------------------------------------
 Center     Atomic      Atomic             Coordinates (Angstroms)
 Number     Number       Type             X           Y           Z
 ---------------------------------------------------------------------
      1          8           0        1.329231   -0.299874   -0.055796
      2         15           0       -0.132423    0.398618    0.012144
      3          8           0       -1.235208   -0.613462   -0.026155
      4          1           0        1.561893   -1.084941    0.307517
      5          1           0       -0.208277    1.111179    1.142669
      6          1           0       -0.119451    1.301178   -0.976728
 ---------------------------------------------------------------------

 SCF Done:  E(RO-LYP) =  -493.684004027     A.U. after   11 cycles

 The electronic state is 1-A.
 Alpha  occ. eigenvalues --  -76.37321 -18.78936 -18.71982  -6.40414  -4.61507
 Alpha  occ. eigenvalues --   -4.61172  -4.61105  -0.97915  -0.87907  -0.61301
 Alpha  occ. eigenvalues --   -0.48559  -0.42021  -0.37600  -0.32607  -0.30113
 Alpha  occ. eigenvalues --   -0.25362  -0.24312
 Alpha virt. eigenvalues --   -0.00965   0.00930   0.03509   0.05700   0.08176
 Alpha virt. eigenvalues --    0.16534   0.20484   0.22152   0.24026   0.27317
 Alpha virt. eigenvalues --    0.30198   0.32181   0.37237   0.40446   0.43287

 Mulliken charges:
               1
     1  O   -0.449389
     2  P    0.602734
     3  O   -0.581757
     4  H    0.323526
     5  H    0.042375
     6  H    0.062509
 Sum of Mulliken charges =  -0.00000

 Dipole moment (field-independent basis, Debye):
    X=              3.0042    Y=              2.0145    Z=              0.8067  Tot=              3.7059
 Quadrupole moment (field-independent basis, Debye-Ang):
   XX=            -28.8557   YY=            -21.7076   ZZ=            -23.4231
   XY=             -5.3716   XZ=              1.2127   YZ=             -1.2115

 Normal termination of Gaussian 16 at Fri Sep 22 16:54:42 2023.
