 Gaussian 16, Revision A.03,
 Gaussian 16:  ES64L-G16RevA.03 25-Dec-2016

 -----------------------------------------
 # scrf=(cpcm,solvent=water) def2tzvp olyp
 -----------------------------------------

 -----------------------
 tmpdir/M2_conf_0_24.gjf
 -----------------------
 Symbolic Z-matrix:
 Charge =  0 Multiplicity = 1

                         Standard orientation:
 ---------------------------------------------------------------------
 Center     Atomic      Atomic             Coordinates (Angstroms)
 Number     Number       Type             X           Y           Z
 ---------------------------------------------------------------------
      1          8           0        1.212310   -0.486703    0.019868
      2         15           0       -0.087447    0.374371   -0.004620
      3          8           0       -1.294224   -0.514635   -0.012495
      4          1           0        2.044982   -0.012201   -0.142887
      5          1           0       -0.025124    1.265829   -1.003669
      6          1           0       -0.052844    1.141520    1.156871
 ---------------------------------------------------------------------

 SCF Done:  E(RO-LYP) =  -493.693568989     A.U. after   11 cycles

 The electronic state is 1-A.
 Alpha  occ. eigenvalues --  -76.36734 -18.80682 -18.71975  -6.39891  -4.60941
 Alpha  occ. eigenvalues --   -4.60669  -4.60600  -0.99221  -0.87741  -0.58679
 Alpha  occ. eigenvalues --   -0.50320  -0.41834  -0.37205  -0.33282  -0.30449
 Alpha  occ. eigenvalues --   -0.25860  -0.24114
 Alpha virt. eigenvalues --   -0.00830   0.00808   0.03600   0.04703   0.08755
 Alpha virt. eigenvalues --    0.16915   0.20019   0.22407   0.27348   0.28204
 Alpha virt. eigenvalues --    0.29839   0.30531   0.35046   0.39596   0.43315

 Mulliken charges:
               1
     1  O   -0.406271
     2  P    0.577216
     3  O   -0.589373
     4  H    0.350286
     5  H    0.045107
     6  H    0.023036
 Sum of Mulliken charges =  -0.00000

 Dipole moment (field-independent basis, Debye):
    X=              4.9598    Y=              3.9106    Z=             -0.4870  Tot=              6.3348
 Quadrupole moment (field-independent basis, Debye-Ang):
   XX=            -24.2000   YY=            -24.9395   ZZ=            -23.8819
   XY=             -0.6463   XZ=             -0.7889   YZ=             -0.2840

 Normal termination of Gaussian 16 at Fri Sep 22 16:54:07 2023.
