 Gaussian 16, Revision A.03,
 Gaussian 16:  ES64L-G16RevA.03 25-Dec-2016

 -----------------------------------------
 # scrf=(cpcm,solvent=water) def2tzvp olyp
 -----------------------------------------

 -----------------------
 tmpdir/M2_conf_0_59.gjf
 -----------------------
 Symbolic Z-matrix:
 Charge =  0 Multiplicity = 1

                         Standard orientation:
 ---------------------------------------------------------------------
 Center     Atomic      Atomic             Coordinates (Angstroms)
 Number     Number       Type             X           Y           Z
 ---------------------------------------------------------------------
      1          1           0       -0.437117    0.959880   -0.343946
      2          6           0        0.024767    0.000425   -0.000041
      3          1           0       -0.429027   -0.779773   -0.661663
      4          1           0       -0.439312   -0.185620    1.001046
      5          1           0        1.156854    0.002963    0.004808
 ---------------------------------------------------------------------

 SCF Done:  E(RO-LYP) =  -40.5053700890     A.U. after    8 cycles

 The electronic state is 1-A.
 Alpha  occ. eigenvalues --   -9.89206  -0.61814  -0.35158  -0.33129  -0.33087
 Alpha virt. eigenvalues --    0.02242   0.09463   0.09602   0.09608   0.17852
 Alpha virt. eigenvalues --    0.17854   0.18195   0.36739   0.41108   0.41137
 Alpha virt. eigenvalues --    0.41674   0.47061   0.55909   0.55927   0.88244

 Mulliken charges:
               1
     1  H    0.123051
     2  C   -0.498381
     3  H    0.122964
     4  H    0.122972
     5  H    0.129394
 Sum of Mulliken charges =  -0.00000

 Dipole moment (field-independent basis, Debye):
    X=             -0.0940    Y=             -0.0016    Z=              0.0004  Tot=              0.0940
 Quadrupole moment (field-independent basis, Debye-Ang):
   XX=             -8.1234   YY=             -8.7153   ZZ=             -8.7253
   XY=             -0.0002   XZ=              0.0002   YZ=             -0.0004

 Normal termination of Gaussian 16 at Fri Sep 22 16:55:05 2023.
