 Gaussian 16, Revision A.03,
 Gaussian 16:  ES64L-G16RevA.03 25-Dec-2016

 -----------------------------------------
 # scrf=(cpcm,solvent=water) def2tzvp olyp
 -----------------------------------------

 -----------------------
 tmpdir/M2_conf_0_36.gjf
 -----------------------
 Symbolic Z-matrix:
 Charge =  0 Multiplicity = 1

                         Standard orientation:
 ---------------------------------------------------------------------
 Center     Atomic      Atomic             Coordinates (Angstroms)
 Number     Number       Type             X           Y           Z
 ---------------------------------------------------------------------
      1          8           0       -1.285234   -0.541095   -0.024400
      2         15           0       -0.096623    0.368435    0.018822
      3          8           0        1.303742   -0.314427   -0.109988
      4          1           0       -0.044482    1.059390    1.222290
      5          1           0       -0.157105    1.259670   -0.977989
      6          1           0        1.502873   -1.001410    0.548474
 ---------------------------------------------------------------------

 SCF Done:  E(RO-LYP) =  -493.694876012     A.U. after   11 cycles

 The electronic state is 1-A.
 Alpha  occ. eigenvalues --  -76.36673 -18.80681 -18.71658  -6.39827  -4.60872
 Alpha  occ. eigenvalues --   -4.60607  -4.60537  -0.99095  -0.87574  -0.59810
 Alpha  occ. eigenvalues --   -0.47866  -0.42326  -0.38315  -0.33585  -0.30439
 Alpha  occ. eigenvalues --   -0.25409  -0.23904
 Alpha virt. eigenvalues --   -0.01016   0.01404   0.03854   0.05579   0.07863
 Alpha virt. eigenvalues --    0.16736   0.21499   0.22140   0.23307   0.26726
 Alpha virt. eigenvalues --    0.30489   0.33984   0.36285   0.38096   0.42452

 Mulliken charges:
               1
     1  O   -0.587407
     2  P    0.573520
     3  O   -0.423237
     4  H    0.024468
     5  H    0.055888
     6  H    0.356769
 Sum of Mulliken charges =  -0.00000

 Dipole moment (field-independent basis, Debye):
    X=              3.6139    Y=              1.7084    Z=              1.3092  Tot=              4.2063
 Quadrupole moment (field-independent basis, Debye-Ang):
   XX=            -29.1479   YY=            -22.4016   ZZ=            -22.9917
   XY=             -4.6923   XZ=              2.1453   YZ=             -1.7936

 Normal termination of Gaussian 16 at Fri Sep 22 16:54:32 2023.
