 Gaussian 16, Revision A.03,
 Gaussian 16:  ES64L-G16RevA.03 25-Dec-2016

 -----------------------------------------
 # scrf=(cpcm,solvent=water) def2tzvp olyp
 -----------------------------------------

 -----------------------
 tmpdir/M2_conf_0_22.gjf
 -----------------------
 Symbolic Z-matrix:
 Charge =  0 Multiplicity = 1

                         Standard orientation:
 ---------------------------------------------------------------------
 Center     Atomic      Atomic             Coordinates (Angstroms)
 Number     Number       Type             X           Y           Z
 ---------------------------------------------------------------------
      1          8           0       -0.864687   -1.180888   -0.140761
      2         15           0        0.008774    0.118896    0.296108
      3          8           0        1.419260   -0.160668   -0.307030
      4          1           0       -1.674155   -1.174424   -0.518756
      5          1           0        0.049735    0.067410    1.634894
      6          8           0       -0.610501    1.364349   -0.262492
      7          1           0        1.940230   -0.858775    0.124502
 ---------------------------------------------------------------------

 SCF Done:  E(RO-LYP) =  -568.972306892     A.U. after   12 cycles

 The electronic state is 1-A.
 Alpha  occ. eigenvalues --  -76.39800 -18.81294 -18.78049 -18.72215  -6.42322
 Alpha  occ. eigenvalues --   -4.63415  -4.63238  -4.62983  -1.00707  -0.96046
 Alpha  occ. eigenvalues --   -0.87602  -0.60724  -0.53193  -0.47461  -0.38701
 Alpha  occ. eigenvalues --   -0.36787  -0.32951  -0.32827  -0.29528  -0.25736
 Alpha  occ. eigenvalues --   -0.24924
 Alpha virt. eigenvalues --   -0.00006   0.01748   0.03670   0.04494   0.07013
 Alpha virt. eigenvalues --    0.13984   0.19171   0.20891   0.22703   0.24367
 Alpha virt. eigenvalues --    0.30211   0.32584   0.36071   0.37008   0.39125

 Mulliken charges:
               1
     1  O   -0.451238
     2  P    0.695431
     3  O   -0.388455
     4  H    0.319658
     5  H    0.044840
     6  O   -0.575846
     7  H    0.355610
 Sum of Mulliken charges =  -0.00000

 Dipole moment (field-independent basis, Debye):
    X=              1.5049    Y=             -4.2711    Z=              2.4082  Tot=              5.1290
 Quadrupole moment (field-independent basis, Debye-Ang):
   XX=            -23.3102   YY=            -34.8954   ZZ=            -28.1930
   XY=              0.7122   XZ=              2.8575   YZ=              1.6095

 Normal termination of Gaussian 16 at Fri Sep 22 16:54:19 2023.
