 Gaussian 16, Revision A.03,
 Gaussian 16:  ES64L-G16RevA.03 25-Dec-2016

 -----------------------------------------
 # scrf=(cpcm,solvent=water) def2tzvp olyp
 -----------------------------------------

 -----------------------
 tmpdir/M2_conf_0_46.gjf
 -----------------------
 Symbolic Z-matrix:
 Charge =  0 Multiplicity = 1

                         Standard orientation:
 ---------------------------------------------------------------------
 Center     Atomic      Atomic             Coordinates (Angstroms)
 Number     Number       Type             X           Y           Z
 ---------------------------------------------------------------------
      1          8           0       -0.754600    0.103407   -0.000016
      2          6           0        0.695220   -0.021612   -0.000254
      3          1           0        1.075794    0.990575   -0.132259
      4          1           0       -1.270818   -0.602202    0.005319
      5          1           0        1.040110   -0.428191    0.952978
      6          1           0        1.020394   -0.657765   -0.824386
 ---------------------------------------------------------------------

 SCF Done:  E(RO-LYP) =  -115.719021707     A.U. after    9 cycles

 The electronic state is 1-A.
 Alpha  occ. eigenvalues --  -18.74380  -9.93915  -0.93606  -0.63198  -0.45825
 Alpha  occ. eigenvalues --   -0.38326  -0.37748  -0.27630  -0.22679
 Alpha virt. eigenvalues --    0.01684   0.04610   0.09305   0.09954   0.11483
 Alpha virt. eigenvalues --    0.19224   0.19886   0.24954   0.34064   0.37361
 Alpha virt. eigenvalues --    0.40881   0.42448   0.45588   0.46078   0.46649

 Mulliken charges:
               1
     1  O   -0.481065
     2  C   -0.149045
     3  H    0.123545
     4  H    0.287400
     5  H    0.108366
     6  H    0.110799
 Sum of Mulliken charges =  -0.00000

 Dipole moment (field-independent basis, Debye):
    X=              0.8204    Y=             -1.5446    Z=             -0.0057  Tot=              1.7490
 Quadrupole moment (field-independent basis, Debye-Ang):
   XX=            -11.9929   YY=            -12.5009   ZZ=            -13.6417
   XY=              2.2595   XZ=             -0.0405   YZ=             -0.0103

 Normal termination of Gaussian 16 at Fri Sep 22 16:54:52 2023.
