 Gaussian 16, Revision A.03,
 Gaussian 16:  ES64L-G16RevA.03 25-Dec-2016

 -----------------------------------------
 # scrf=(cpcm,solvent=water) def2tzvp olyp
 -----------------------------------------

 -----------------------
 tmpdir/M2_conf_0_56.gjf
 -----------------------
 Symbolic Z-matrix:
 Charge = -1 Multiplicity = 1

                         Standard orientation:
 ---------------------------------------------------------------------
 Center     Atomic      Atomic             Coordinates (Angstroms)
 Number     Number       Type             X           Y           Z
 ---------------------------------------------------------------------
      1          1           0       -1.024183    0.980337   -0.286674
      2          6           0       -0.567563   -0.000222   -0.000034
      3          8           0        0.811234   -0.000370    0.000074
      4          1           0       -1.030576   -0.736261   -0.704329
      5          1           0       -1.029736   -0.239783    0.990614
 ---------------------------------------------------------------------

 SCF Done:  E(RO-LYP) =  -115.211391704     A.U. after   12 cycles

 The electronic state is 1-A.
 Alpha  occ. eigenvalues --  -18.60443  -9.87835  -0.76904  -0.51772  -0.31293
 Alpha  occ. eigenvalues --   -0.31284  -0.25593  -0.10345  -0.10329
 Alpha virt. eigenvalues --    0.05097   0.11022   0.12478   0.12487   0.22660
 Alpha virt. eigenvalues --    0.22694   0.33828   0.37892   0.43028   0.43031
 Alpha virt. eigenvalues --    0.43078   0.50354   0.53902   0.53931   0.70663

 Mulliken charges:
               1
     1  H    0.003564
     2  C   -0.132840
     3  O   -0.877286
     4  H    0.003325
     5  H    0.003237
 Sum of Mulliken charges =  -1.00000

 Dipole moment (field-independent basis, Debye):
    X=             -3.0879    Y=              0.0021    Z=             -0.0009  Tot=              3.0879
 Quadrupole moment (field-independent basis, Debye-Ang):
   XX=            -20.3816   YY=            -16.4121   ZZ=            -16.4143
   XY=              0.0058   XZ=             -0.0004   YZ=             -0.0001

 Normal termination of Gaussian 16 at Fri Sep 22 16:55:04 2023.
