 Gaussian 16, Revision A.03,
 Gaussian 16:  ES64L-G16RevA.03 25-Dec-2016

 -----------------------------------------
 # scrf=(cpcm,solvent=water) def2tzvp olyp
 -----------------------------------------

 ----------------------
 tmpdir/M2_conf_0_4.gjf
 ----------------------
 Symbolic Z-matrix:
 Charge =  0 Multiplicity = 1

                         Standard orientation:
 ---------------------------------------------------------------------
 Center     Atomic      Atomic             Coordinates (Angstroms)
 Number     Number       Type             X           Y           Z
 ---------------------------------------------------------------------
      1         15           0        0.253124    0.419725   -0.017285
      2          8           0       -1.488738   -0.308776    0.094951
      3          8           0        1.205533   -0.715569    0.001321
      4          1           0        0.241743    1.205011    1.091808
      5          1           0        0.207825    1.239656   -1.030239
      6          1           0       -1.980790   -0.545778   -0.572460
 ---------------------------------------------------------------------

 SCF Done:  E(RO-LYP) =  -493.647399896     A.U. after   11 cycles

 The electronic state is 1-A.
 Alpha  occ. eigenvalues --  -76.38886 -18.75601 -18.74564  -6.42004  -4.63203
 Alpha  occ. eigenvalues --   -4.62719  -4.62626  -0.92816  -0.90071  -0.59860
 Alpha  occ. eigenvalues --   -0.46299  -0.41834  -0.36693  -0.31692  -0.27850
 Alpha  occ. eigenvalues --   -0.26625  -0.25528
 Alpha virt. eigenvalues --   -0.04944  -0.00516   0.01767   0.05625   0.07377
 Alpha virt. eigenvalues --    0.16007   0.16735   0.21421   0.23197   0.24942
 Alpha virt. eigenvalues --    0.29372   0.31496   0.37608   0.40616   0.43348

 Mulliken charges:
               1
     1  P    0.601033
     2  O   -0.550631
     3  O   -0.506517
     4  H    0.080814
     5  H    0.083986
     6  H    0.291315
 Sum of Mulliken charges =  -0.00000

 Dipole moment (field-independent basis, Debye):
    X=             -1.2916    Y=              3.8884    Z=             -1.5867  Tot=              4.3938
 Quadrupole moment (field-independent basis, Debye-Ang):
   XX=            -27.4354   YY=            -23.8286   ZZ=            -22.5165
   XY=              3.9039   XZ=              3.0812   YZ=              0.7935

 Normal termination of Gaussian 16 at Fri Sep 22 16:53:39 2023.
