 Gaussian 16, Revision A.03,
 Gaussian 16:  ES64L-G16RevA.03 25-Dec-2016

 -----------------------------------------
 # scrf=(cpcm,solvent=water) def2tzvp olyp
 -----------------------------------------

 -----------------------
 tmpdir/M2_conf_0_17.gjf
 -----------------------
 Symbolic Z-matrix:
 Charge =  0 Multiplicity = 1

                         Standard orientation:
 ---------------------------------------------------------------------
 Center     Atomic      Atomic             Coordinates (Angstroms)
 Number     Number       Type             X           Y           Z
 ---------------------------------------------------------------------
      1         15           0       -0.090824    0.368592   -0.004446
      2          8           0        1.230656   -0.479689    0.019600
      3          1           0       -0.041705    1.261068   -1.003314
      4          1           0       -0.066910    1.135919    1.157201
      5          8           0       -1.303826   -0.511897   -0.012585
      6          1           0        2.056338    0.006814   -0.143319
 ---------------------------------------------------------------------

 SCF Done:  E(RO-LYP) =  -493.694251073     A.U. after   11 cycles

 The electronic state is 1-A.
 Alpha  occ. eigenvalues --  -76.36857 -18.80696 -18.72084  -6.39987  -4.61036
 Alpha  occ. eigenvalues --   -4.60765  -4.60700  -0.98918  -0.87849  -0.58645
 Alpha  occ. eigenvalues --   -0.50178  -0.41746  -0.37114  -0.33345  -0.30422
 Alpha  occ. eigenvalues --   -0.25982  -0.24114
 Alpha virt. eigenvalues --   -0.00856   0.00782   0.03497   0.04810   0.08592
 Alpha virt. eigenvalues --    0.16844   0.20011   0.22096   0.27254   0.28044
 Alpha virt. eigenvalues --    0.29826   0.30631   0.34928   0.39529   0.43288

 Mulliken charges:
               1
     1  P    0.580368
     2  O   -0.412865
     3  H    0.045554
     4  H    0.023737
     5  O   -0.587562
     6  H    0.350768
 Sum of Mulliken charges =  -0.00000

 Dipole moment (field-independent basis, Debye):
    X=              4.9126    Y=              3.9105    Z=             -0.4847  Tot=              6.2977
 Quadrupole moment (field-independent basis, Debye-Ang):
   XX=            -24.2728   YY=            -24.9440   ZZ=            -23.8948
   XY=             -0.5620   XZ=             -0.7942   YZ=             -0.2878

 Normal termination of Gaussian 16 at Fri Sep 22 16:54:14 2023.
