 Gaussian 16, Revision A.03,
 Gaussian 16:  ES64L-G16RevA.03 25-Dec-2016

 -----------------------------------------
 # scrf=(cpcm,solvent=water) def2tzvp olyp
 -----------------------------------------

 -----------------------
 tmpdir/M2_conf_0_28.gjf
 -----------------------
 Symbolic Z-matrix:
 Charge =  0 Multiplicity = 1

                         Standard orientation:
 ---------------------------------------------------------------------
 Center     Atomic      Atomic             Coordinates (Angstroms)
 Number     Number       Type             X           Y           Z
 ---------------------------------------------------------------------
      1         15           0       -0.085396    0.367030   -0.004231
      2          8           0        1.220716   -0.484392    0.019606
      3          1           0        2.037732    0.015884   -0.145255
      4          1           0       -0.029837    1.259460   -1.002799
      5          1           0       -0.056315    1.133787    1.157671
      6          8           0       -1.304546   -0.504931   -0.012876
 ---------------------------------------------------------------------

 SCF Done:  E(RO-LYP) =  -493.693562078     A.U. after   11 cycles

 The electronic state is 1-A.
 Alpha  occ. eigenvalues --  -76.36731 -18.80821 -18.72000  -6.39890  -4.60935
 Alpha  occ. eigenvalues --   -4.60668  -4.60604  -0.99378  -0.87786  -0.58591
 Alpha  occ. eigenvalues --   -0.50338  -0.41852  -0.37375  -0.33341  -0.30537
 Alpha  occ. eigenvalues --   -0.25909  -0.24065
 Alpha virt. eigenvalues --   -0.00821   0.00838   0.03593   0.04860   0.08684
 Alpha virt. eigenvalues --    0.16856   0.20020   0.22317   0.27328   0.28082
 Alpha virt. eigenvalues --    0.29863   0.30695   0.34851   0.39521   0.43230

 Mulliken charges:
               1
     1  P    0.576512
     2  O   -0.404049
     3  H    0.350853
     4  H    0.044452
     5  H    0.021985
     6  O   -0.589754
 Sum of Mulliken charges =   0.00000

 Dipole moment (field-independent basis, Debye):
    X=              4.9685    Y=              3.8778    Z=             -0.4882  Tot=              6.3215
 Quadrupole moment (field-independent basis, Debye-Ang):
   XX=            -24.3637   YY=            -24.9327   ZZ=            -23.8930
   XY=             -0.5101   XZ=             -0.7968   YZ=             -0.2963

 Normal termination of Gaussian 16 at Fri Sep 22 16:54:16 2023.
