 Gaussian 16, Revision A.03,
 Gaussian 16:  ES64L-G16RevA.03 25-Dec-2016

 -----------------------------------------
 # scrf=(cpcm,solvent=water) def2tzvp olyp
 -----------------------------------------

 -----------------------
 tmpdir/M2_conf_0_34.gjf
 -----------------------
 Symbolic Z-matrix:
 Charge =  0 Multiplicity = 1

                         Standard orientation:
 ---------------------------------------------------------------------
 Center     Atomic      Atomic             Coordinates (Angstroms)
 Number     Number       Type             X           Y           Z
 ---------------------------------------------------------------------
      1          8           0       -1.106280   -0.963485   -0.167217
      2         15           0        0.020368    0.111037    0.285559
      3          8           0        1.383785   -0.545211   -0.107322
      4          1           0       -1.978365   -0.800633   -0.291357
      5          8           0       -0.264955    1.461477   -0.294795
      6          1           0        0.032179    0.173137    1.622563
      7          1           0        1.540267   -0.660315   -1.059915
 ---------------------------------------------------------------------

 SCF Done:  E(RO-LYP) =  -568.974107428     A.U. after   11 cycles

 The electronic state is 1-A.
 Alpha  occ. eigenvalues --  -76.39741 -18.81341 -18.78719 -18.71833  -6.42254
 Alpha  occ. eigenvalues --   -4.63337  -4.63165  -4.62924  -1.00725  -0.96457
 Alpha  occ. eigenvalues --   -0.87391  -0.61486  -0.53284  -0.45355  -0.40498
 Alpha  occ. eigenvalues --   -0.36384  -0.34277  -0.32418  -0.29909  -0.25249
 Alpha  occ. eigenvalues --   -0.24666
 Alpha virt. eigenvalues --   -0.00180   0.01675   0.04633   0.06161   0.06986
 Alpha virt. eigenvalues --    0.11415   0.19582   0.20869   0.22789   0.24081
 Alpha virt. eigenvalues --    0.29713   0.33304   0.35633   0.36927   0.38478

 Mulliken charges:
               1
     1  O   -0.439559
     2  P    0.693192
     3  O   -0.408822
     4  H    0.322872
     5  O   -0.575047
     6  H    0.046947
     7  H    0.360416
 Sum of Mulliken charges =  -0.00000

 Dipole moment (field-independent basis, Debye):
    X=             -0.3052    Y=             -3.2695    Z=              0.1793  Tot=              3.2886
 Quadrupole moment (field-independent basis, Debye-Ang):
   XX=            -23.9476   YY=            -37.5729   ZZ=            -25.8801
   XY=              1.1978   XZ=             -2.6654   YZ=              3.0511

 Normal termination of Gaussian 16 at Fri Sep 22 16:54:48 2023.
