 Gaussian 16, Revision A.03,
 Gaussian 16:  ES64L-G16RevA.03 25-Dec-2016

 -----------------------------------------
 # scrf=(cpcm,solvent=water) def2tzvp olyp
 -----------------------------------------

 ----------------------
 tmpdir/M2_conf_0_7.gjf
 ----------------------
 Symbolic Z-matrix:
 Charge =  0 Multiplicity = 1

                         Standard orientation:
 ---------------------------------------------------------------------
 Center     Atomic      Atomic             Coordinates (Angstroms)
 Number     Number       Type             X           Y           Z
 ---------------------------------------------------------------------
      1          8           0        1.093327   -0.747626    0.000429
      2         15           0        0.213935    0.445127   -0.017794
      3          8           0       -1.327356   -0.325035    0.096624
      4          1           0        0.254808    1.231610    1.089754
      5          1           0        0.217303    1.264653   -1.032082
      6          1           0       -1.808895   -0.591875   -0.567188
 ---------------------------------------------------------------------

 SCF Done:  E(RO-LYP) =  -493.659477472     A.U. after   12 cycles

 The electronic state is 1-A.
 Alpha  occ. eigenvalues --  -76.37853 -18.76688 -18.72534  -6.40993  -4.62155
 Alpha  occ. eigenvalues --   -4.61746  -4.61616  -0.95548  -0.88720  -0.60188
 Alpha  occ. eigenvalues --   -0.48832  -0.41728  -0.35754  -0.32217  -0.29446
 Alpha  occ. eigenvalues --   -0.25443  -0.24526
 Alpha virt. eigenvalues --   -0.03312   0.00570   0.02558   0.05722   0.08472
 Alpha virt. eigenvalues --    0.16532   0.19250   0.22099   0.23335   0.24970
 Alpha virt. eigenvalues --    0.29505   0.34966   0.38347   0.40178   0.42576

 Mulliken charges:
               1
     1  O   -0.536479
     2  P    0.582770
     3  O   -0.479867
     4  H    0.068674
     5  H    0.071982
     6  H    0.292920
 Sum of Mulliken charges =  -0.00000

 Dipole moment (field-independent basis, Debye):
    X=             -2.1013    Y=              3.9280    Z=             -1.5887  Tot=              4.7295
 Quadrupole moment (field-independent basis, Debye-Ang):
   XX=            -26.5793   YY=            -23.8441   ZZ=            -22.5333
   XY=              4.1738   XZ=              2.8228   YZ=              0.8248

 Normal termination of Gaussian 16 at Fri Sep 22 16:53:40 2023.
