 Gaussian 16, Revision A.03,
 Gaussian 16:  ES64L-G16RevA.03 25-Dec-2016

 -----------------------------------------
 # scrf=(cpcm,solvent=water) def2tzvp olyp
 -----------------------------------------

 ----------------------
 tmpdir/M2_conf_0_2.gjf
 ----------------------
 Symbolic Z-matrix:
 Charge =  0 Multiplicity = 1

                         Standard orientation:
 ---------------------------------------------------------------------
 Center     Atomic      Atomic             Coordinates (Angstroms)
 Number     Number       Type             X           Y           Z
 ---------------------------------------------------------------------
      1         15           0       -0.117540    0.375788   -0.008282
      2          8           0        1.318774   -0.290733   -0.063726
      3          8           0       -1.267653   -0.558741   -0.022937
      4          1           0       -0.067505    1.389463   -0.827043
      5          1           0       -0.058373    0.976061    1.342127
      6          1           0        1.480004   -1.206550    0.302445
 ---------------------------------------------------------------------

 SCF Done:  E(RO-LYP) =  -493.686054953     A.U. after   11 cycles

 The electronic state is 1-A.
 Alpha  occ. eigenvalues --  -76.37173 -18.80057 -18.72477  -6.40239  -4.61300
 Alpha  occ. eigenvalues --   -4.61043  -4.60931  -0.97414  -0.88553  -0.59798
 Alpha  occ. eigenvalues --   -0.46864  -0.41563  -0.38255  -0.33254  -0.29566
 Alpha  occ. eigenvalues --   -0.26182  -0.24245
 Alpha virt. eigenvalues --   -0.01500   0.00655   0.02805   0.04927   0.08764
 Alpha virt. eigenvalues --    0.16599   0.20769   0.22486   0.23996   0.27009
 Alpha virt. eigenvalues --    0.30921   0.31745   0.36101   0.38928   0.42606

 Mulliken charges:
               1
     1  P    0.589315
     2  O   -0.455866
     3  O   -0.561361
     4  H    0.073537
     5  H   -0.008955
     6  H    0.363331
 Sum of Mulliken charges =  -0.00000

 Dipole moment (field-independent basis, Debye):
    X=              3.1154    Y=              1.2145    Z=              0.2188  Tot=              3.3509
 Quadrupole moment (field-independent basis, Debye-Ang):
   XX=            -29.2713   YY=            -21.1948   ZZ=            -24.0081
   XY=             -5.2483   XZ=              1.1628   YZ=             -1.8516

 Normal termination of Gaussian 16 at Fri Sep 22 16:53:39 2023.
