 Gaussian 16, Revision A.03,
 Gaussian 16:  ES64L-G16RevA.03 25-Dec-2016

 -----------------------------------------
 # scrf=(cpcm,solvent=water) def2tzvp olyp
 -----------------------------------------

 -----------------------
 tmpdir/M2_conf_0_51.gjf
 -----------------------
 Symbolic Z-matrix:
 Charge =  0 Multiplicity = 1

                         Standard orientation:
 ---------------------------------------------------------------------
 Center     Atomic      Atomic             Coordinates (Angstroms)
 Number     Number       Type             X           Y           Z
 ---------------------------------------------------------------------
      1          1           0       -0.434377    0.999040   -0.208478
      2          6           0        0.024980   -0.000056   -0.000130
      3          1           0       -0.437474   -0.679753   -0.759276
      4          1           0        1.157078   -0.001373   -0.000808
      5          1           0       -0.435107   -0.317580    0.969342
 ---------------------------------------------------------------------

 SCF Done:  E(RO-LYP) =  -40.5053253808     A.U. after    8 cycles

 The electronic state is 1-A.
 Alpha  occ. eigenvalues --   -9.89209  -0.61814  -0.35170  -0.33105  -0.33096
 Alpha virt. eigenvalues --    0.02241   0.09462   0.09602   0.09603   0.17852
 Alpha virt. eigenvalues --    0.17854   0.18197   0.36739   0.41113   0.41118
 Alpha virt. eigenvalues --    0.41673   0.47070   0.55916   0.55921   0.88232

 Mulliken charges:
               1
     1  H    0.122978
     2  C   -0.498446
     3  H    0.123015
     4  H    0.129467
     5  H    0.122986
 Sum of Mulliken charges =   0.00000

 Dipole moment (field-independent basis, Debye):
    X=             -0.0945    Y=              0.0000    Z=              0.0005  Tot=              0.0945
 Quadrupole moment (field-independent basis, Debye-Ang):
   XX=             -8.1203   YY=             -8.7211   ZZ=             -8.7232
   XY=              0.0002   XZ=              0.0001   YZ=              0.0003

 Normal termination of Gaussian 16 at Fri Sep 22 16:54:48 2023.
