 Gaussian 16, Revision A.03,
 Gaussian 16:  ES64L-G16RevA.03 25-Dec-2016

 -----------------------------------------
 # scrf=(cpcm,solvent=water) def2tzvp olyp
 -----------------------------------------

 -----------------------
 tmpdir/M2_conf_0_41.gjf
 -----------------------
 Symbolic Z-matrix:
 Charge =  0 Multiplicity = 1

                         Standard orientation:
 ---------------------------------------------------------------------
 Center     Atomic      Atomic             Coordinates (Angstroms)
 Number     Number       Type             X           Y           Z
 ---------------------------------------------------------------------
      1         15           0       -0.095888    0.365818    0.019070
      2          8           0        1.306072   -0.313617   -0.110479
      3          1           0        1.500444   -1.000365    0.549643
      4          1           0       -0.038969    1.054713    1.223508
      5          8           0       -1.290003   -0.536439   -0.024867
      6          1           0       -0.151696    1.258831   -0.976422
 ---------------------------------------------------------------------

 SCF Done:  E(RO-LYP) =  -493.695058450     A.U. after   11 cycles

 The electronic state is 1-A.
 Alpha  occ. eigenvalues --  -76.36662 -18.80713 -18.71706  -6.39818  -4.60862
 Alpha  occ. eigenvalues --   -4.60599  -4.60529  -0.99133  -0.87613  -0.59786
 Alpha  occ. eigenvalues --   -0.47831  -0.42322  -0.38361  -0.33623  -0.30451
 Alpha  occ. eigenvalues --   -0.25469  -0.23921
 Alpha virt. eigenvalues --   -0.01015   0.01463   0.03864   0.05594   0.07833
 Alpha virt. eigenvalues --    0.16724   0.21551   0.22030   0.23327   0.26724
 Alpha virt. eigenvalues --    0.30501   0.33971   0.36196   0.38057   0.42372

 Mulliken charges:
               1
     1  P    0.573178
     2  O   -0.422340
     3  H    0.356564
     4  H    0.024005
     5  O   -0.586651
     6  H    0.055245
 Sum of Mulliken charges =  -0.00000

 Dipole moment (field-independent basis, Debye):
    X=              3.6159    Y=              1.6763    Z=              1.3124  Tot=              4.1961
 Quadrupole moment (field-independent basis, Debye-Ang):
   XX=            -29.1939   YY=            -22.4051   ZZ=            -22.9959
   XY=             -4.6616   XZ=              2.1408   YZ=             -1.7944

 Normal termination of Gaussian 16 at Fri Sep 22 16:54:45 2023.
