 Gaussian 16, Revision A.03,
 Gaussian 16:  ES64L-G16RevA.03 25-Dec-2016

 -----------------------------------------
 # scrf=(cpcm,solvent=water) def2tzvp olyp
 -----------------------------------------

 -----------------------
 tmpdir/M2_conf_0_57.gjf
 -----------------------
 Symbolic Z-matrix:
 Charge =  0 Multiplicity = 1

                         Standard orientation:
 ---------------------------------------------------------------------
 Center     Atomic      Atomic             Coordinates (Angstroms)
 Number     Number       Type             X           Y           Z
 ---------------------------------------------------------------------
      1          1           0        0.434046   -0.671858   -0.768002
      2          6           0       -0.025024    0.000154   -0.000008
      3          1           0        0.437035   -0.329820    0.964356
      4          1           0        0.436181    1.000299   -0.197866
      5          1           0       -1.157121    0.000456    0.001559
 ---------------------------------------------------------------------

 SCF Done:  E(RO-LYP) =  -40.5053204002     A.U. after    8 cycles

 The electronic state is 1-A.
 Alpha  occ. eigenvalues --   -9.89207  -0.61816  -0.35173  -0.33108  -0.33092
 Alpha virt. eigenvalues --    0.02241   0.09462   0.09602   0.09605   0.17853
 Alpha virt. eigenvalues --    0.17853   0.18197   0.36740   0.41111   0.41123
 Alpha virt. eigenvalues --    0.41673   0.47079   0.55917   0.55921   0.88228

 Mulliken charges:
               1
     1  H    0.122985
     2  C   -0.498450
     3  H    0.122978
     4  H    0.123010
     5  H    0.129478
 Sum of Mulliken charges =  -0.00000

 Dipole moment (field-independent basis, Debye):
    X=              0.0947    Y=             -0.0005    Z=             -0.0001  Tot=              0.0947
 Quadrupole moment (field-independent basis, Debye-Ang):
   XX=             -8.1194   YY=             -8.7207   ZZ=             -8.7242
   XY=              0.0001   XZ=             -0.0002   YZ=              0.0000

 Normal termination of Gaussian 16 at Fri Sep 22 16:54:57 2023.
