 Gaussian 16, Revision A.03,
 Gaussian 16:  ES64L-G16RevA.03 25-Dec-2016

 -----------------------------------------
 # scrf=(cpcm,solvent=water) def2tzvp olyp
 -----------------------------------------

 -----------------------
 tmpdir/M2_conf_0_31.gjf
 -----------------------
 Symbolic Z-matrix:
 Charge =  0 Multiplicity = 1

                         Standard orientation:
 ---------------------------------------------------------------------
 Center     Atomic      Atomic             Coordinates (Angstroms)
 Number     Number       Type             X           Y           Z
 ---------------------------------------------------------------------
      1         15           0       -0.097479    0.366072    0.018975
      2          8           0        1.308623   -0.312486   -0.110145
      3          1           0       -0.041968    1.055818    1.222997
      4          8           0       -1.290045   -0.538241   -0.024625
      5          1           0       -0.154611    1.258362   -0.977081
      6          1           0        1.510130   -0.999448    0.547621
 ---------------------------------------------------------------------

 SCF Done:  E(RO-LYP) =  -493.695212573     A.U. after   11 cycles

 The electronic state is 1-A.
 Alpha  occ. eigenvalues --  -76.36701 -18.80675 -18.71724  -6.39848  -4.60894
 Alpha  occ. eigenvalues --   -4.60629  -4.60560  -0.98997  -0.87628  -0.59784
 Alpha  occ. eigenvalues --   -0.47810  -0.42299  -0.38292  -0.33594  -0.30428
 Alpha  occ. eigenvalues --   -0.25479  -0.23932
 Alpha virt. eigenvalues --   -0.01027   0.01432   0.03847   0.05573   0.07811
 Alpha virt. eigenvalues --    0.16716   0.21535   0.21986   0.23288   0.26729
 Alpha virt. eigenvalues --    0.30494   0.33928   0.36228   0.38073   0.42466

 Mulliken charges:
               1
     1  P    0.574258
     2  O   -0.424818
     3  H    0.024492
     4  O   -0.586189
     5  H    0.055727
     6  H    0.356531
 Sum of Mulliken charges =  -0.00000

 Dipole moment (field-independent basis, Debye):
    X=              3.6074    Y=              1.6881    Z=              1.3100  Tot=              4.1928
 Quadrupole moment (field-independent basis, Debye-Ang):
   XX=            -29.1615   YY=            -22.4099   ZZ=            -23.0007
   XY=             -4.6906   XZ=              2.1514   YZ=             -1.7883

 Normal termination of Gaussian 16 at Fri Sep 22 16:54:31 2023.
