 Gaussian 16, Revision A.03,
 Gaussian 16:  ES64L-G16RevA.03 25-Dec-2016

 -----------------------------------------
 # scrf=(cpcm,solvent=water) def2tzvp olyp
 -----------------------------------------

 -----------------------
 tmpdir/M2_conf_0_42.gjf
 -----------------------
 Symbolic Z-matrix:
 Charge =  0 Multiplicity = 1

                         Standard orientation:
 ---------------------------------------------------------------------
 Center     Atomic      Atomic             Coordinates (Angstroms)
 Number     Number       Type             X           Y           Z
 ---------------------------------------------------------------------
      1          6           0        0.015446    0.000669   -0.001672
      2          1           0        0.519196   -0.866483   -0.434320
      3          1           0       -1.132870    0.019342   -0.331180
      4          1           0        0.008330   -0.078284    1.084835
      5          1           0        0.512668    0.921408   -0.309302
 ---------------------------------------------------------------------

 SCF Done:  E(RO-LYP) =  -40.5045844601     A.U. after    8 cycles

 The electronic state is 1-A.
 Alpha  occ. eigenvalues --   -9.88930  -0.61986  -0.34603  -0.34506  -0.32667
 Alpha virt. eigenvalues --    0.02287   0.08643   0.10180   0.10265   0.17694
 Alpha virt. eigenvalues --    0.17716   0.18332   0.36510   0.39330   0.42883
 Alpha virt. eigenvalues --    0.43015   0.47040   0.55848   0.56044   0.89482

 Mulliken charges:
               1
     1  C   -0.493333
     2  H    0.126622
     3  H    0.113207
     4  H    0.126635
     5  H    0.126869
 Sum of Mulliken charges =  -0.00000

 Dipole moment (field-independent basis, Debye):
    X=              0.0684    Y=             -0.0039    Z=              0.0524  Tot=              0.0863
 Quadrupole moment (field-independent basis, Debye-Ang):
   XX=             -8.4554   YY=             -8.4802   ZZ=             -8.5755
   XY=              0.0078   XZ=             -0.0973   YZ=              0.0007

 Normal termination of Gaussian 16 at Fri Sep 22 16:54:32 2023.
