 Gaussian 16, Revision A.03,
 Gaussian 16:  ES64L-G16RevA.03 25-Dec-2016

 -----------------------------------------
 # scrf=(cpcm,solvent=water) def2tzvp olyp
 -----------------------------------------

 ----------------------
 tmpdir/M2_conf_0_5.gjf
 ----------------------
 Symbolic Z-matrix:
 Charge =  0 Multiplicity = 1

                         Standard orientation:
 ---------------------------------------------------------------------
 Center     Atomic      Atomic             Coordinates (Angstroms)
 Number     Number       Type             X           Y           Z
 ---------------------------------------------------------------------
      1          8           0       -1.315023   -0.517310   -0.024075
      2         15           0       -0.113943    0.350701   -0.007170
      3          8           0        1.341267   -0.279088   -0.065043
      4          1           0       -0.008180    1.364211   -0.820820
      5          1           0       -0.018188    0.939410    1.346229
      6          1           0        1.525552   -1.192949    0.295088
 ---------------------------------------------------------------------

 SCF Done:  E(RO-LYP) =  -493.686701896     A.U. after   11 cycles

 The electronic state is 1-A.
 Alpha  occ. eigenvalues --  -76.37123 -18.80212 -18.72908  -6.40184  -4.61242
 Alpha  occ. eigenvalues --   -4.60988  -4.60881  -0.97424  -0.88925  -0.59829
 Alpha  occ. eigenvalues --   -0.46371  -0.41607  -0.38415  -0.33471  -0.29640
 Alpha  occ. eigenvalues --   -0.26731  -0.24256
 Alpha virt. eigenvalues --   -0.01423   0.00789   0.02927   0.05202   0.08370
 Alpha virt. eigenvalues --    0.16451   0.20618   0.21994   0.23897   0.27094
 Alpha virt. eigenvalues --    0.31172   0.31952   0.35638   0.38762   0.42409

 Mulliken charges:
               1
     1  O   -0.554849
     2  P    0.590359
     3  O   -0.452187
     4  H    0.068342
     5  H   -0.013843
     6  H    0.362178
 Sum of Mulliken charges =  -0.00000

 Dipole moment (field-independent basis, Debye):
    X=              3.2459    Y=              0.9048    Z=              0.2087  Tot=              3.3761
 Quadrupole moment (field-independent basis, Debye-Ang):
   XX=            -29.3102   YY=            -21.2748   ZZ=            -24.1010
   XY=             -5.1754   XZ=              1.1577   YZ=             -1.7845

 Normal termination of Gaussian 16 at Fri Sep 22 16:53:51 2023.
