 Gaussian 16, Revision A.03,
 Gaussian 16:  ES64L-G16RevA.03 25-Dec-2016

 -----------------------------------------
 # scrf=(cpcm,solvent=water) def2tzvp olyp
 -----------------------------------------

 -----------------------
 tmpdir/M2_conf_0_39.gjf
 -----------------------
 Symbolic Z-matrix:
 Charge =  0 Multiplicity = 1

                         Standard orientation:
 ---------------------------------------------------------------------
 Center     Atomic      Atomic             Coordinates (Angstroms)
 Number     Number       Type             X           Y           Z
 ---------------------------------------------------------------------
      1         15           0        0.089030    0.373011   -0.006214
      2          8           0       -1.213071   -0.490910    0.016459
      3          1           0       -2.048591    0.001880   -0.043942
      4          1           0        0.082782    1.204966    1.105676
      5          8           0        1.298456   -0.509709   -0.006617
      6          1           0       -0.052729    1.202941   -1.047262
 ---------------------------------------------------------------------

 SCF Done:  E(RO-LYP) =  -493.694239347     A.U. after   11 cycles

 The electronic state is 1-A.
 Alpha  occ. eigenvalues --  -76.36709 -18.80518 -18.72168  -6.39874  -4.60930
 Alpha  occ. eigenvalues --   -4.60656  -4.60573  -0.99046  -0.87925  -0.58608
 Alpha  occ. eigenvalues --   -0.50202  -0.41922  -0.37106  -0.33221  -0.30405
 Alpha  occ. eigenvalues --   -0.26067  -0.24302
 Alpha virt. eigenvalues --   -0.00807   0.00847   0.03636   0.04859   0.08574
 Alpha virt. eigenvalues --    0.16959   0.20144   0.22400   0.27327   0.28151
 Alpha virt. eigenvalues --    0.29103   0.31003   0.35087   0.39754   0.43151

 Mulliken charges:
               1
     1  P    0.579003
     2  O   -0.410807
     3  H    0.349378
     4  H    0.028302
     5  O   -0.585698
     6  H    0.039822
 Sum of Mulliken charges =   0.00000

 Dipole moment (field-independent basis, Debye):
    X=             -4.8959    Y=              3.9179    Z=             -0.2172  Tot=              6.2744
 Quadrupole moment (field-independent basis, Debye-Ang):
   XX=            -24.1960   YY=            -24.9377   ZZ=            -23.9157
   XY=              0.5070   XZ=              0.3285   YZ=             -0.1266

 Normal termination of Gaussian 16 at Fri Sep 22 16:54:32 2023.
