 Gaussian 16, Revision A.03,
 Gaussian 16:  ES64L-G16RevA.03 25-Dec-2016

 -----------------------------------------
 # scrf=(cpcm,solvent=water) def2tzvp olyp
 -----------------------------------------

 -----------------------
 tmpdir/M2_conf_0_11.gjf
 -----------------------
 Symbolic Z-matrix:
 Charge =  0 Multiplicity = 1

                         Standard orientation:
 ---------------------------------------------------------------------
 Center     Atomic      Atomic             Coordinates (Angstroms)
 Number     Number       Type             X           Y           Z
 ---------------------------------------------------------------------
      1          8           0       -0.753464    0.103556   -0.000023
      2          6           0        0.693929   -0.021676   -0.000228
      3          1           0       -1.269886   -0.601906    0.005225
      4          1           0        1.038658   -0.428613    0.952908
      5          1           0        1.076405    0.989820   -0.132062
      6          1           0        1.018958   -0.657693   -0.824520
 ---------------------------------------------------------------------

 SCF Done:  E(RO-LYP) =  -115.719112455     A.U. after    9 cycles

 The electronic state is 1-A.
 Alpha  occ. eigenvalues --  -18.74383  -9.93893  -0.93664  -0.63202  -0.45858
 Alpha  occ. eigenvalues --   -0.38344  -0.37767  -0.27618  -0.22673
 Alpha virt. eigenvalues --    0.01693   0.04633   0.09318   0.09958   0.11508
 Alpha virt. eigenvalues --    0.19233   0.19883   0.25050   0.34069   0.37340
 Alpha virt. eigenvalues --    0.40876   0.42449   0.45596   0.46111   0.46671

 Mulliken charges:
               1
     1  O   -0.480561
     2  C   -0.148669
     3  H    0.287457
     4  H    0.108010
     5  H    0.123304
     6  H    0.110459
 Sum of Mulliken charges =  -0.00000

 Dipole moment (field-independent basis, Debye):
    X=              0.8102    Y=             -1.5440    Z=             -0.0061  Tot=              1.7437
 Quadrupole moment (field-independent basis, Debye-Ang):
   XX=            -11.9975   YY=            -12.5036   ZZ=            -13.6415
   XY=              2.2607   XZ=             -0.0408   YZ=             -0.0102

 Normal termination of Gaussian 16 at Fri Sep 22 16:54:02 2023.
