 Gaussian 16, Revision A.03,
 Gaussian 16:  ES64L-G16RevA.03 25-Dec-2016

 -----------------------------------------
 # scrf=(cpcm,solvent=water) def2tzvp olyp
 -----------------------------------------

 -----------------------
 tmpdir/M2_conf_0_43.gjf
 -----------------------
 Symbolic Z-matrix:
 Charge =  0 Multiplicity = 1

                         Standard orientation:
 ---------------------------------------------------------------------
 Center     Atomic      Atomic             Coordinates (Angstroms)
 Number     Number       Type             X           Y           Z
 ---------------------------------------------------------------------
      1          6           0        0.015451    0.000678   -0.001726
      2          1           0        0.007482   -0.080847    1.085091
      3          1           0       -1.132660    0.020247   -0.331901
      4          1           0        0.519430   -0.865526   -0.436001
      5          1           0        0.513042    0.922060   -0.306832
 ---------------------------------------------------------------------

 SCF Done:  E(RO-LYP) =  -40.5045854244     A.U. after    8 cycles

 The electronic state is 1-A.
 Alpha  occ. eigenvalues --   -9.88936  -0.61983  -0.34600  -0.34506  -0.32665
 Alpha virt. eigenvalues --    0.02286   0.08641   0.10180   0.10259   0.17693
 Alpha virt. eigenvalues --    0.17719   0.18331   0.36509   0.39328   0.42881
 Alpha virt. eigenvalues --    0.43004   0.47027   0.55848   0.56044   0.89482

 Mulliken charges:
               1
     1  C   -0.493357
     2  H    0.126600
     3  H    0.113231
     4  H    0.126640
     5  H    0.126887
 Sum of Mulliken charges =  -0.00000

 Dipole moment (field-independent basis, Debye):
    X=              0.0683    Y=             -0.0040    Z=              0.0521  Tot=              0.0860
 Quadrupole moment (field-independent basis, Debye-Ang):
   XX=             -8.4555   YY=             -8.4806   ZZ=             -8.5760
   XY=              0.0081   XZ=             -0.0975   YZ=              0.0009

 Normal termination of Gaussian 16 at Fri Sep 22 16:54:35 2023.
