 Gaussian 16, Revision A.03,
 Gaussian 16:  ES64L-G16RevA.03 25-Dec-2016

 -----------------------------------------
 # scrf=(cpcm,solvent=water) def2tzvp olyp
 -----------------------------------------

 -----------------------
 tmpdir/M2_conf_0_52.gjf
 -----------------------
 Symbolic Z-matrix:
 Charge =  0 Multiplicity = 1

                         Standard orientation:
 ---------------------------------------------------------------------
 Center     Atomic      Atomic             Coordinates (Angstroms)
 Number     Number       Type             X           Y           Z
 ---------------------------------------------------------------------
      1          6           0       -0.024818    0.000047    0.000258
      2          1           0        0.428086   -0.078874    1.016509
      3          1           0        0.438370    0.919938   -0.437251
      4          1           0       -1.156893   -0.000090   -0.007353
      5          1           0        0.439348   -0.841257   -0.573451
 ---------------------------------------------------------------------

 SCF Done:  E(RO-LYP) =  -40.5054183639     A.U. after    8 cycles

 The electronic state is 1-A.
 Alpha  occ. eigenvalues --   -9.89167  -0.61842  -0.35172  -0.33139  -0.33098
 Alpha virt. eigenvalues --    0.02252   0.09465   0.09604   0.09655   0.17836
 Alpha virt. eigenvalues --    0.17856   0.18198   0.36749   0.41118   0.41213
 Alpha virt. eigenvalues --    0.41676   0.47159   0.55917   0.55922   0.88232

 Mulliken charges:
               1
     1  C   -0.498302
     2  H    0.123305
     3  H    0.122832
     4  H    0.129354
     5  H    0.122811
 Sum of Mulliken charges =   0.00000

 Dipole moment (field-independent basis, Debye):
    X=              0.0955    Y=             -0.0005    Z=              0.0034  Tot=              0.0956
 Quadrupole moment (field-independent basis, Debye-Ang):
   XX=             -8.1179   YY=             -8.7189   ZZ=             -8.7202
   XY=             -0.0001   XZ=              0.0043   YZ=             -0.0010

 Normal termination of Gaussian 16 at Fri Sep 22 16:54:52 2023.
