 Gaussian 16, Revision A.03,
 Gaussian 16:  ES64L-G16RevA.03 25-Dec-2016

 -----------------------------------------
 # scrf=(cpcm,solvent=water) def2tzvp olyp
 -----------------------------------------

 -----------------------
 tmpdir/M2_conf_0_26.gjf
 -----------------------
 Symbolic Z-matrix:
 Charge =  0 Multiplicity = 1

                         Standard orientation:
 ---------------------------------------------------------------------
 Center     Atomic      Atomic             Coordinates (Angstroms)
 Number     Number       Type             X           Y           Z
 ---------------------------------------------------------------------
      1         15           0       -1.451369   -0.239065   -0.119746
      2          8           0       -0.014773   -0.999606   -0.088199
      3         15           0        1.407656   -0.264366    0.166847
      4          1           0       -1.861113   -0.337739   -1.392164
      5          1           0       -2.255184   -0.952470    0.673032
      6          8           0       -1.299055    1.165798    0.380119
      7          8           0        1.418599    1.104169   -0.440525
      8          1           0        1.613367   -0.188175    1.487248
      9          1           0        2.320461   -1.133030   -0.285783
 ---------------------------------------------------------------------

 SCF Done:  E(RO-LYP) =  -910.923692433     A.U. after   13 cycles

 The electronic state is 1-A.
 Alpha  occ. eigenvalues --  -76.38368 -76.38076 -18.82008 -18.72366 -18.72160
 Alpha  occ. eigenvalues --   -6.41529  -6.41226  -4.62684  -4.62372  -4.62233
 Alpha  occ. eigenvalues --   -4.62193  -4.61954  -4.61875  -1.00037  -0.88640
 Alpha  occ. eigenvalues --   -0.87912  -0.64075  -0.55049  -0.46629  -0.44261
 Alpha  occ. eigenvalues --   -0.43367  -0.39745  -0.35171  -0.32964  -0.31697
 Alpha  occ. eigenvalues --   -0.27042  -0.25571  -0.24644  -0.23577
 Alpha virt. eigenvalues --   -0.03535  -0.00217   0.00688   0.02041   0.03083
 Alpha virt. eigenvalues --    0.04047   0.07376   0.08978   0.14431   0.17676
 Alpha virt. eigenvalues --    0.19194   0.19433   0.20480   0.23430   0.24086

 Mulliken charges:
               1
     1  P    0.586593
     2  O   -0.323566
     3  P    0.578707
     4  H    0.065962
     5  H    0.068988
     6  O   -0.549086
     7  O   -0.551580
     8  H    0.053187
     9  H    0.070796
 Sum of Mulliken charges =  -0.00000

 Dipole moment (field-independent basis, Debye):
    X=             -0.6978    Y=             -7.2282    Z=              0.4082  Tot=              7.2733
 Quadrupole moment (field-independent basis, Debye-Ang):
   XX=            -35.3687   YY=            -49.6840   ZZ=            -40.6311
   XY=             -0.3313   XZ=              5.1669   YZ=             -0.0260

 Normal termination of Gaussian 16 at Fri Sep 22 16:54:53 2023.
