 Gaussian 16, Revision A.03,
 Gaussian 16:  ES64L-G16RevA.03 25-Dec-2016

 -----------------------------------------
 # scrf=(cpcm,solvent=water) def2tzvp olyp
 -----------------------------------------

 -----------------------
 tmpdir/M2_conf_0_54.gjf
 -----------------------
 Symbolic Z-matrix:
 Charge =  0 Multiplicity = 1

                         Standard orientation:
 ---------------------------------------------------------------------
 Center     Atomic      Atomic             Coordinates (Angstroms)
 Number     Number       Type             X           Y           Z
 ---------------------------------------------------------------------
      1          6           0        0.025022   -0.000141    0.000138
      2          1           0       -0.437396    0.998118   -0.210267
      3          1           0       -0.432707   -0.681176   -0.760682
      4          1           0       -0.437152   -0.318393    0.968272
      5          1           0        1.157121    0.002298    0.001848
 ---------------------------------------------------------------------

 SCF Done:  E(RO-LYP) =  -40.5053017612     A.U. after    8 cycles

 The electronic state is 1-A.
 Alpha  occ. eigenvalues --   -9.89218  -0.61809  -0.35170  -0.33106  -0.33087
 Alpha virt. eigenvalues --    0.02238   0.09461   0.09589   0.09605   0.17852
 Alpha virt. eigenvalues --    0.17858   0.18197   0.36737   0.41088   0.41121
 Alpha virt. eigenvalues --    0.41673   0.47052   0.55916   0.55921   0.88231

 Mulliken charges:
               1
     1  C   -0.498478
     2  H    0.122882
     3  H    0.123040
     4  H    0.123060
     5  H    0.129495
 Sum of Mulliken charges =  -0.00000

 Dipole moment (field-independent basis, Debye):
    X=             -0.0943    Y=             -0.0007    Z=             -0.0003  Tot=              0.0943
 Quadrupole moment (field-independent basis, Debye-Ang):
   XX=             -8.1207   YY=             -8.7232   ZZ=             -8.7223
   XY=              0.0014   XZ=             -0.0002   YZ=              0.0006

 Normal termination of Gaussian 16 at Fri Sep 22 16:54:56 2023.
