 Gaussian 16, Revision A.03,
 Gaussian 16:  ES64L-G16RevA.03 25-Dec-2016

 -----------------------------------------
 # scrf=(cpcm,solvent=water) def2tzvp olyp
 -----------------------------------------

 -----------------------
 tmpdir/M2_conf_0_38.gjf
 -----------------------
 Symbolic Z-matrix:
 Charge =  0 Multiplicity = 1

                         Standard orientation:
 ---------------------------------------------------------------------
 Center     Atomic      Atomic             Coordinates (Angstroms)
 Number     Number       Type             X           Y           Z
 ---------------------------------------------------------------------
      1          8           0       -0.000000    0.097366    0.000000
      2          1           0        0.771414   -0.493663   -0.000000
      3          1           0       -0.771414   -0.285264    0.000000
 ---------------------------------------------------------------------

 SCF Done:  E(RO-LYP) =  -76.4301172738     A.U. after   10 cycles

 The electronic state is 1-A'.
 Alpha  occ. eigenvalues --  -18.74486  -0.94161  -0.51127  -0.31820  -0.25930
 Alpha virt. eigenvalues --    0.00630   0.08216   0.34402   0.37314   0.39617
 Alpha virt. eigenvalues --    0.40914   0.55185   0.58285   1.12340   1.19550
 Alpha virt. eigenvalues --    1.27820   1.43464   1.51678   1.67808   1.88650

 Mulliken charges:
               1
     1  O   -0.656478
     2  H    0.350475
     3  H    0.306003
 Sum of Mulliken charges =  -0.00000

 Dipole moment (field-independent basis, Debye):
    X=             -0.0655    Y=             -1.9831    Z=             -0.0000  Tot=              1.9841
 Quadrupole moment (field-independent basis, Debye-Ang):
   XX=             -3.9548   YY=             -6.4978   ZZ=             -7.4716
   XY=             -0.3959   XZ=             -0.0000   YZ=              0.0000

 Normal termination of Gaussian 16 at Fri Sep 22 16:54:54 2023.
