 Gaussian 16, Revision A.03,
 Gaussian 16:  ES64L-G16RevA.03 25-Dec-2016

 -----------------------------------------
 # scrf=(cpcm,solvent=water) def2tzvp olyp
 -----------------------------------------

 -----------------------
 tmpdir/M2_conf_0_44.gjf
 -----------------------
 Symbolic Z-matrix:
 Charge =  0 Multiplicity = 1

                         Standard orientation:
 ---------------------------------------------------------------------
 Center     Atomic      Atomic             Coordinates (Angstroms)
 Number     Number       Type             X           Y           Z
 ---------------------------------------------------------------------
      1          6           0        0.015515    0.000827   -0.001749
      2          1           0        0.507407    0.914638   -0.332757
      3          1           0       -1.133237    0.005619   -0.330203
      4          1           0        0.522860   -0.874618   -0.412966
      5          1           0        0.009878   -0.050598    1.086419
 ---------------------------------------------------------------------

 SCF Done:  E(RO-LYP) =  -40.5045815124     A.U. after    8 cycles

 The electronic state is 1-A.
 Alpha  occ. eigenvalues --   -9.88915  -0.61997  -0.34615  -0.34510  -0.32665
 Alpha virt. eigenvalues --    0.02291   0.08645   0.10190   0.10273   0.17689
 Alpha virt. eigenvalues --    0.17716   0.18331   0.36513   0.39331   0.42896
 Alpha virt. eigenvalues --    0.43045   0.47070   0.55849   0.56044   0.89486

 Mulliken charges:
               1
     1  C   -0.493283
     2  H    0.126951
     3  H    0.113160
     4  H    0.126580
     5  H    0.126593
 Sum of Mulliken charges =  -0.00000

 Dipole moment (field-independent basis, Debye):
    X=              0.0689    Y=             -0.0015    Z=              0.0522  Tot=              0.0864
 Quadrupole moment (field-independent basis, Debye-Ang):
   XX=             -8.4547   YY=             -8.4796   ZZ=             -8.5741
   XY=              0.0054   XZ=             -0.0977   YZ=             -0.0018

 Normal termination of Gaussian 16 at Fri Sep 22 16:54:39 2023.
