 Gaussian 16, Revision A.03,
 Gaussian 16:  ES64L-G16RevA.03 25-Dec-2016

 -----------------------------------------
 # scrf=(cpcm,solvent=water) def2tzvp olyp
 -----------------------------------------

 -----------------------
 tmpdir/M2_conf_0_49.gjf
 -----------------------
 Symbolic Z-matrix:
 Charge =  0 Multiplicity = 1

                         Standard orientation:
 ---------------------------------------------------------------------
 Center     Atomic      Atomic             Coordinates (Angstroms)
 Number     Number       Type             X           Y           Z
 ---------------------------------------------------------------------
      1          1           0        0.521937   -0.877217   -0.409790
      2          6           0        0.015704    0.000488   -0.002037
      3          1           0        0.501313    0.916039   -0.342000
      4          1           0       -1.135314    0.000582   -0.322504
      5          1           0        0.017839   -0.042333    1.086517
 ---------------------------------------------------------------------

 SCF Done:  E(RO-LYP) =  -40.5045907269     A.U. after    8 cycles

 The electronic state is 1-A.
 Alpha  occ. eigenvalues --   -9.88930  -0.61986  -0.34579  -0.34535  -0.32663
 Alpha virt. eigenvalues --    0.02287   0.08643   0.10184   0.10261   0.17700
 Alpha virt. eigenvalues --    0.17711   0.18327   0.36517   0.39333   0.42909
 Alpha virt. eigenvalues --    0.42992   0.47049   0.55843   0.56030   0.89468

 Mulliken charges:
               1
     1  H    0.126698
     2  C   -0.493334
     3  H    0.126891
     4  H    0.113144
     5  H    0.126601
 Sum of Mulliken charges =   0.00000

 Dipole moment (field-independent basis, Debye):
    X=              0.0679    Y=             -0.0008    Z=              0.0529  Tot=              0.0861
 Quadrupole moment (field-independent basis, Debye-Ang):
   XX=             -8.4620   YY=             -8.4727   ZZ=             -8.5766
   XY=              0.0021   XZ=             -0.0955   YZ=             -0.0010

 Normal termination of Gaussian 16 at Fri Sep 22 16:54:49 2023.
