 Gaussian 16, Revision A.03,
 Gaussian 16:  ES64L-G16RevA.03 25-Dec-2016

 -----------------------------------------
 # scrf=(cpcm,solvent=water) def2tzvp olyp
 -----------------------------------------

 -----------------------
 tmpdir/M2_conf_0_23.gjf
 -----------------------
 Symbolic Z-matrix:
 Charge =  0 Multiplicity = 1

                         Standard orientation:
 ---------------------------------------------------------------------
 Center     Atomic      Atomic             Coordinates (Angstroms)
 Number     Number       Type             X           Y           Z
 ---------------------------------------------------------------------
      1          8           0        1.313582   -0.301039   -0.021561
      2         15           0       -0.141773    0.423149    0.005235
      3          8           0       -1.194449   -0.643872   -0.001277
      4          1           0        1.476397   -1.171070    0.099674
      5          1           0       -0.115331    1.200521    1.096865
      6          1           0       -0.187533    1.182605   -1.092348
 ---------------------------------------------------------------------

 SCF Done:  E(RO-LYP) =  -493.680129159     A.U. after   11 cycles

 The electronic state is 1-A.
 Alpha  occ. eigenvalues --  -76.37482 -18.78088 -18.71876  -6.40572  -4.61692
 Alpha  occ. eigenvalues --   -4.61305  -4.61265  -0.97355  -0.87683  -0.61221
 Alpha  occ. eigenvalues --   -0.48108  -0.42635  -0.37546  -0.32147  -0.29504
 Alpha  occ. eigenvalues --   -0.24941  -0.24434
 Alpha virt. eigenvalues --   -0.01595   0.00645   0.03171   0.05525   0.08894
 Alpha virt. eigenvalues --    0.16944   0.20169   0.22901   0.24243   0.27201
 Alpha virt. eigenvalues --    0.29910   0.31998   0.37663   0.40205   0.43976

 Mulliken charges:
               1
     1  O   -0.462948
     2  P    0.611011
     3  O   -0.584432
     4  H    0.319021
     5  H    0.057227
     6  H    0.060121
 Sum of Mulliken charges =  -0.00000

 Dipole moment (field-independent basis, Debye):
    X=              2.5867    Y=              2.1819    Z=              0.2780  Tot=              3.3954
 Quadrupole moment (field-independent basis, Debye-Ang):
   XX=            -29.2816   YY=            -21.1785   ZZ=            -23.4847
   XY=             -5.4516   XZ=              0.4627   YZ=             -0.3326

 Normal termination of Gaussian 16 at Fri Sep 22 16:54:29 2023.
