 Gaussian 16, Revision A.03,
 Gaussian 16:  ES64L-G16RevA.03 25-Dec-2016

 -----------------------------------------
 # scrf=(cpcm,solvent=water) def2tzvp olyp
 -----------------------------------------

 -----------------------
 tmpdir/M2_conf_0_20.gjf
 -----------------------
 Symbolic Z-matrix:
 Charge =  0 Multiplicity = 1

                         Standard orientation:
 ---------------------------------------------------------------------
 Center     Atomic      Atomic             Coordinates (Angstroms)
 Number     Number       Type             X           Y           Z
 ---------------------------------------------------------------------
      1          8           0        1.207033   -0.845282   -0.132052
      2         15           0       -0.006231    0.069079    0.243660
      3          8           0       -1.369524   -0.522285   -0.228710
      4          1           0        2.020415   -0.555180   -0.531560
      5          1           0       -0.065691    0.024417    1.634069
      6          8           0        0.115207    1.489565   -0.219131
      7          1           0       -1.482983   -1.481407   -0.118272
 ---------------------------------------------------------------------

 SCF Done:  E(RO-LYP) =  -568.979353250     A.U. after   12 cycles

 The electronic state is 1-A.
 Alpha  occ. eigenvalues --  -76.39410 -18.81126 -18.80377 -18.71568  -6.41901
 Alpha  occ. eigenvalues --   -4.62971  -4.62827  -4.62577  -1.01066  -0.97160
 Alpha  occ. eigenvalues --   -0.87078  -0.60647  -0.53944  -0.45369  -0.39463
 Alpha  occ. eigenvalues --   -0.38392  -0.33529  -0.32066  -0.30109  -0.25168
 Alpha  occ. eigenvalues --   -0.24701
 Alpha virt. eigenvalues --   -0.00625   0.01483   0.04483   0.06176   0.08238
 Alpha virt. eigenvalues --    0.10741   0.19434   0.21039   0.22955   0.26457
 Alpha virt. eigenvalues --    0.30439   0.32331   0.35277   0.36209   0.38962

 Mulliken charges:
               1
     1  O   -0.429089
     2  P    0.694020
     3  O   -0.394075
     4  H    0.358417
     5  H    0.010728
     6  O   -0.591948
     7  H    0.351947
 Sum of Mulliken charges =  -0.00000

 Dipole moment (field-independent basis, Debye):
    X=              1.0574    Y=             -5.3287    Z=              0.9686  Tot=              5.5183
 Quadrupole moment (field-independent basis, Debye-Ang):
   XX=            -24.0842   YY=            -33.5786   ZZ=            -28.8602
   XY=              2.6696   XZ=             -2.4066   YZ=              1.4704

 Normal termination of Gaussian 16 at Fri Sep 22 16:54:22 2023.
