 Gaussian 16, Revision A.03,
 Gaussian 16:  ES64L-G16RevA.03 25-Dec-2016

 -----------------------------------------
 # scrf=(cpcm,solvent=water) def2tzvp olyp
 -----------------------------------------

 --------------------
 tmpdir/M2_ref_18.gjf
 --------------------
 Symbolic Z-matrix:
 Charge =  0 Multiplicity = 1

                         Standard orientation:
 ---------------------------------------------------------------------
 Center     Atomic      Atomic             Coordinates (Angstroms)
 Number     Number       Type             X           Y           Z
 ---------------------------------------------------------------------
      1         15           0       -0.402630    0.002793   -0.010163
      2          8           0        1.096201   -0.006255    0.001368
      3          1           0       -0.960755   -0.922420   -0.803340
      4          1           0       -0.890576   -0.281448    1.262621
      5          1           0       -0.878826    1.212017   -0.317784
 ---------------------------------------------------------------------

 SCF Done:  E(RO-LYP) =  -418.407593767     A.U. after   10 cycles

 The electronic state is 1-A.
 Alpha  occ. eigenvalues --  -76.34141 -18.71093  -6.37945  -4.58787  -4.58752
 Alpha  occ. eigenvalues --   -4.58694  -0.87860  -0.58713  -0.40846  -0.39440
 Alpha  occ. eigenvalues --   -0.33405  -0.23872  -0.23564
 Alpha virt. eigenvalues --   -0.02029   0.02057   0.02944   0.04907   0.14441
 Alpha virt. eigenvalues --    0.14722   0.21883   0.26391   0.27627   0.27946
 Alpha virt. eigenvalues --    0.29728   0.30232   0.38577   0.48486   0.50108

 Mulliken charges:
               1
     1  P    0.433158
     2  O   -0.614461
     3  H    0.065442
     4  H    0.051613
     5  H    0.064248
 Sum of Mulliken charges =  -0.00000

 Dipole moment (field-independent basis, Debye):
    X=             -4.7731    Y=              0.0471    Z=             -0.1763  Tot=              4.7766
 Quadrupole moment (field-independent basis, Debye-Ang):
   XX=            -22.4281   YY=            -18.3249   ZZ=            -18.5268
   XY=              0.0430   XZ=              0.1751   YZ=              0.0453

 Normal termination of Gaussian 16 at Fri Sep 22 16:51:58 2023.
