 Gaussian 16, Revision A.03,
 Gaussian 16:  ES64L-G16RevA.03 25-Dec-2016

 -----------------------------------------
 # scrf=(cpcm,solvent=water) def2tzvp olyp
 -----------------------------------------

 --------------------
 tmpdir/M2_ref_52.gjf
 --------------------
 Symbolic Z-matrix:
 Charge =  0 Multiplicity = 1

                         Standard orientation:
 ---------------------------------------------------------------------
 Center     Atomic      Atomic             Coordinates (Angstroms)
 Number     Number       Type             X           Y           Z
 ---------------------------------------------------------------------
      1          6           0        0.024964   -0.000053   -0.000130
      2          1           0       -0.437721   -0.724265   -0.716762
      3          1           0       -0.434141    0.984503   -0.268447
      4          1           0        1.157092   -0.001679   -0.000847
      5          1           0       -0.435012   -0.258240    0.986838
 ---------------------------------------------------------------------

 SCF Done:  E(RO-LYP) =  -40.5053309461     A.U. after    8 cycles

 The electronic state is 1-A.
 Alpha  occ. eigenvalues --   -9.89206  -0.61816  -0.35169  -0.33106  -0.33098
 Alpha virt. eigenvalues --    0.02241   0.09462   0.09603   0.09605   0.17852
 Alpha virt. eigenvalues --    0.17853   0.18197   0.36739   0.41115   0.41123
 Alpha virt. eigenvalues --    0.41672   0.47076   0.55916   0.55921   0.88231

 Mulliken charges:
               1
     1  C   -0.498441
     2  H    0.123007
     3  H    0.123001
     4  H    0.129458
     5  H    0.122975
 Sum of Mulliken charges =  -0.00000

 Dipole moment (field-independent basis, Debye):
    X=             -0.0945    Y=              0.0002    Z=              0.0004  Tot=              0.0945
 Quadrupole moment (field-independent basis, Debye-Ang):
   XX=             -8.1202   YY=             -8.7211   ZZ=             -8.7228
   XY=             -0.0001   XZ=              0.0002   YZ=              0.0001

 Normal termination of Gaussian 16 at Fri Sep 22 16:53:08 2023.
