 Gaussian 16, Revision A.03,
 Gaussian 16:  ES64L-G16RevA.03 25-Dec-2016

 -----------------------------------------
 # scrf=(cpcm,solvent=water) def2tzvp olyp
 -----------------------------------------

 --------------------
 tmpdir/M2_ref_20.gjf
 --------------------
 Symbolic Z-matrix:
 Charge =  0 Multiplicity = 1

                         Standard orientation:
 ---------------------------------------------------------------------
 Center     Atomic      Atomic             Coordinates (Angstroms)
 Number     Number       Type             X           Y           Z
 ---------------------------------------------------------------------
      1          8           0        1.074207   -0.987961   -0.127936
      2         15           0       -0.001072    0.085001    0.248691
      3          8           0       -1.408763   -0.383390   -0.231484
      4          1           0        1.914884   -0.813840   -0.538215
      5          1           0       -0.051086    0.062543    1.640040
      6          8           0        0.305258    1.471585   -0.231161
      7          1           0       -1.613331   -1.325592   -0.107538
 ---------------------------------------------------------------------

 SCF Done:  E(RO-LYP) =  -568.980880816     A.U. after   12 cycles

 The electronic state is 1-A.
 Alpha  occ. eigenvalues --  -76.39409 -18.81065 -18.80186 -18.71776  -6.41901
 Alpha  occ. eigenvalues --   -4.62985  -4.62811  -4.62581  -1.01079  -0.96964
 Alpha  occ. eigenvalues --   -0.87238  -0.60597  -0.53878  -0.45441  -0.39461
 Alpha  occ. eigenvalues --   -0.38206  -0.33639  -0.31834  -0.30199  -0.25395
 Alpha  occ. eigenvalues --   -0.24806
 Alpha virt. eigenvalues --   -0.00415   0.01463   0.04616   0.05965   0.07917
 Alpha virt. eigenvalues --    0.11327   0.19469   0.21062   0.22880   0.26168
 Alpha virt. eigenvalues --    0.30209   0.32503   0.35401   0.36223   0.38802

 Mulliken charges:
               1
     1  O   -0.431077
     2  P    0.694299
     3  O   -0.396991
     4  H    0.357117
     5  H    0.012158
     6  O   -0.588822
     7  H    0.353316
 Sum of Mulliken charges =  -0.00000

 Dipole moment (field-independent basis, Debye):
    X=              0.4035    Y=             -5.3428    Z=              1.0520  Tot=              5.4603
 Quadrupole moment (field-independent basis, Debye-Ang):
   XX=            -23.8957   YY=            -33.9150   ZZ=            -28.8200
   XY=              1.2798   XZ=             -2.2596   YZ=              1.8084

 Normal termination of Gaussian 16 at Fri Sep 22 16:52:37 2023.
