 Gaussian 16, Revision A.03,
 Gaussian 16:  ES64L-G16RevA.03 25-Dec-2016

 -----------------------------------------
 # scrf=(cpcm,solvent=water) def2tzvp olyp
 -----------------------------------------

 --------------------
 tmpdir/M2_ref_27.gjf
 --------------------
 Symbolic Z-matrix:
 Charge =  0 Multiplicity = 1

                         Standard orientation:
 ---------------------------------------------------------------------
 Center     Atomic      Atomic             Coordinates (Angstroms)
 Number     Number       Type             X           Y           Z
 ---------------------------------------------------------------------
      1          8           0        0.000000    0.097217   -0.000000
      2          1           0        0.770733   -0.495174    0.000000
      3          1           0       -0.770733   -0.282560   -0.000000
 ---------------------------------------------------------------------

 SCF Done:  E(RO-LYP) =  -76.4295657316     A.U. after   10 cycles

 The electronic state is 1-A'.
 Alpha  occ. eigenvalues --  -18.74467  -0.94203  -0.51167  -0.31816  -0.25937
 Alpha virt. eigenvalues --    0.00636   0.08223   0.34391   0.37321   0.39616
 Alpha virt. eigenvalues --    0.40970   0.55201   0.58326   1.12350   1.19604
 Alpha virt. eigenvalues --    1.27860   1.43405   1.51640   1.67834   1.88663

 Mulliken charges:
               1
     1  O   -0.655388
     2  H    0.350597
     3  H    0.304791
 Sum of Mulliken charges =  -0.00000

 Dipole moment (field-independent basis, Debye):
    X=             -0.0668    Y=             -1.9815    Z=              0.0000  Tot=              1.9827
 Quadrupole moment (field-independent basis, Debye-Ang):
   XX=             -3.9565   YY=             -6.4963   ZZ=             -7.4696
   XY=             -0.4038   XZ=              0.0000   YZ=              0.0000

 Normal termination of Gaussian 16 at Fri Sep 22 16:52:15 2023.
