 Gaussian 16, Revision A.03,
 Gaussian 16:  ES64L-G16RevA.03 25-Dec-2016

 -----------------------------------------
 # scrf=(cpcm,solvent=water) def2tzvp olyp
 -----------------------------------------

 -------------------
 tmpdir/M2_ref_6.gjf
 -------------------
 Symbolic Z-matrix:
 Charge =  0 Multiplicity = 1

                         Standard orientation:
 ---------------------------------------------------------------------
 Center     Atomic      Atomic             Coordinates (Angstroms)
 Number     Number       Type             X           Y           Z
 ---------------------------------------------------------------------
      1          8           0        1.325947   -0.491718   -0.000434
      2         15           0        0.088139    0.323209   -0.008955
      3          8           0       -1.281532   -0.335581   -0.098158
      4          1           0        0.059198    1.352121   -0.896260
      5          1           0        0.059071    1.088537    1.256279
      6          1           0       -1.795672   -0.670402    0.563045
 ---------------------------------------------------------------------

 SCF Done:  E(RO-LYP) =  -493.683585520     A.U. after   11 cycles

 The electronic state is 1-A.
 Alpha  occ. eigenvalues --  -76.37058 -18.80695 -18.72243  -6.40060  -4.61125
 Alpha  occ. eigenvalues --   -4.60887  -4.60731  -1.01327  -0.88660  -0.62446
 Alpha  occ. eigenvalues --   -0.48650  -0.41928  -0.37715  -0.33336  -0.31237
 Alpha  occ. eigenvalues --   -0.26336  -0.23918
 Alpha virt. eigenvalues --   -0.00962   0.02829   0.03164   0.06654   0.07219
 Alpha virt. eigenvalues --    0.16765   0.21104   0.22847   0.24196   0.27222
 Alpha virt. eigenvalues --    0.30985   0.32632   0.36850   0.38439   0.43898

 Mulliken charges:
               1
     1  O   -0.563269
     2  P    0.565585
     3  O   -0.383864
     4  H    0.053357
     5  H   -0.012887
     6  H    0.341078
 Sum of Mulliken charges =  -0.00000

 Dipole moment (field-independent basis, Debye):
    X=             -4.5140    Y=              1.6206    Z=              0.9552  Tot=              4.8903
 Quadrupole moment (field-independent basis, Debye-Ang):
   XX=            -26.5832   YY=            -23.8924   ZZ=            -23.3424
   XY=              3.8646   XZ=             -2.7073   YZ=             -1.6078

 Normal termination of Gaussian 16 at Fri Sep 22 16:51:41 2023.
