 Gaussian 16, Revision A.03,
 Gaussian 16:  ES64L-G16RevA.03 25-Dec-2016

 -----------------------------------------
 # scrf=(cpcm,solvent=water) def2tzvp olyp
 -----------------------------------------

 --------------------
 tmpdir/M2_ref_23.gjf
 --------------------
 Symbolic Z-matrix:
 Charge =  0 Multiplicity = 1

                         Standard orientation:
 ---------------------------------------------------------------------
 Center     Atomic      Atomic             Coordinates (Angstroms)
 Number     Number       Type             X           Y           Z
 ---------------------------------------------------------------------
      1          8           0        1.324365   -0.297063   -0.021532
      2         15           0       -0.137560    0.413745    0.005229
      3          8           0       -1.214768   -0.628508   -0.001368
      4          1           0        1.495116   -1.165671    0.099279
      5          1           0       -0.118598    1.190599    1.097378
      6          1           0       -0.189892    1.173478   -1.091896
 ---------------------------------------------------------------------

 SCF Done:  E(RO-LYP) =  -493.681384932     A.U. after   11 cycles

 The electronic state is 1-A.
 Alpha  occ. eigenvalues --  -76.37450 -18.78311 -18.71904  -6.40538  -4.61648
 Alpha  occ. eigenvalues --   -4.61273  -4.61239  -0.97484  -0.87753  -0.61246
 Alpha  occ. eigenvalues --   -0.48085  -0.42607  -0.37650  -0.32167  -0.29645
 Alpha  occ. eigenvalues --   -0.25125  -0.24360
 Alpha virt. eigenvalues --   -0.01313   0.00576   0.03324   0.05512   0.08773
 Alpha virt. eigenvalues --    0.16856   0.20214   0.22523   0.24322   0.27400
 Alpha virt. eigenvalues --    0.30019   0.32085   0.37356   0.40342   0.43825

 Mulliken charges:
               1
     1  O   -0.460086
     2  P    0.610891
     3  O   -0.584915
     4  H    0.319973
     5  H    0.055519
     6  H    0.058618
 Sum of Mulliken charges =  -0.00000

 Dipole moment (field-independent basis, Debye):
    X=              2.7049    Y=              2.0618    Z=              0.2780  Tot=              3.4124
 Quadrupole moment (field-independent basis, Debye-Ang):
   XX=            -29.3038   YY=            -21.2240   ZZ=            -23.5050
   XY=             -5.4672   XZ=              0.4661   YZ=             -0.3316

 Normal termination of Gaussian 16 at Fri Sep 22 16:52:44 2023.
