 Gaussian 16, Revision A.03,
 Gaussian 16:  ES64L-G16RevA.03 25-Dec-2016

 -----------------------------------------
 # scrf=(cpcm,solvent=water) def2tzvp olyp
 -----------------------------------------

 --------------------
 tmpdir/M2_ref_38.gjf
 --------------------
 Symbolic Z-matrix:
 Charge =  0 Multiplicity = 1

                         Standard orientation:
 ---------------------------------------------------------------------
 Center     Atomic      Atomic             Coordinates (Angstroms)
 Number     Number       Type             X           Y           Z
 ---------------------------------------------------------------------
      1          8           0        0.000000    0.097375    0.000000
      2          1           0        0.771446   -0.493778    0.000000
      3          1           0       -0.771446   -0.285223   -0.000000
 ---------------------------------------------------------------------

 SCF Done:  E(RO-LYP) =  -76.4301195029     A.U. after   10 cycles

 The electronic state is 1-A'.
 Alpha  occ. eigenvalues --  -18.74487  -0.94158  -0.51124  -0.31820  -0.25930
 Alpha virt. eigenvalues --    0.00628   0.08215   0.34398   0.37314   0.39617
 Alpha virt. eigenvalues --    0.40913   0.55183   0.58284   1.12339   1.19548
 Alpha virt. eigenvalues --    1.27819   1.43466   1.51681   1.67804   1.88655

 Mulliken charges:
               1
     1  O   -0.656503
     2  H    0.350491
     3  H    0.306012
 Sum of Mulliken charges =   0.00000

 Dipole moment (field-independent basis, Debye):
    X=             -0.0656    Y=             -1.9831    Z=             -0.0000  Tot=              1.9842
 Quadrupole moment (field-independent basis, Debye-Ang):
   XX=             -3.9547   YY=             -6.4978   ZZ=             -7.4718
   XY=             -0.3962   XZ=              0.0000   YZ=             -0.0000

 Normal termination of Gaussian 16 at Fri Sep 22 16:53:04 2023.
