 Gaussian 16, Revision A.03,
 Gaussian 16:  ES64L-G16RevA.03 25-Dec-2016

 -----------------------------------------
 # scrf=(cpcm,solvent=water) def2tzvp olyp
 -----------------------------------------

 --------------------
 tmpdir/M2_ref_34.gjf
 --------------------
 Symbolic Z-matrix:
 Charge =  0 Multiplicity = 1

                         Standard orientation:
 ---------------------------------------------------------------------
 Center     Atomic      Atomic             Coordinates (Angstroms)
 Number     Number       Type             X           Y           Z
 ---------------------------------------------------------------------
      1          8           0       -1.082205   -0.987213   -0.166214
      2         15           0        0.018588    0.113963    0.286267
      3          8           0        1.392060   -0.520278   -0.107537
      4          1           0       -1.957681   -0.844846   -0.291872
      5          8           0       -0.296976    1.456439   -0.296889
      6          1           0        0.027065    0.178639    1.623136
      7          1           0        1.548774   -0.634819   -1.060150
 ---------------------------------------------------------------------

 SCF Done:  E(RO-LYP) =  -568.974176613     A.U. after   11 cycles

 The electronic state is 1-A.
 Alpha  occ. eigenvalues --  -76.39738 -18.81324 -18.78689 -18.71860  -6.42251
 Alpha  occ. eigenvalues --   -4.63336  -4.63160  -4.62923  -1.00726  -0.96422
 Alpha  occ. eigenvalues --   -0.87412  -0.61478  -0.53250  -0.45382  -0.40499
 Alpha  occ. eigenvalues --   -0.36373  -0.34236  -0.32420  -0.29903  -0.25271
 Alpha  occ. eigenvalues --   -0.24686
 Alpha virt. eigenvalues --   -0.00174   0.01676   0.04643   0.06150   0.06930
 Alpha virt. eigenvalues --    0.11499   0.19603   0.20863   0.22790   0.24021
 Alpha virt. eigenvalues --    0.29727   0.33364   0.35609   0.36918   0.38471

 Mulliken charges:
               1
     1  O   -0.439761
     2  P    0.693053
     3  O   -0.409122
     4  H    0.322578
     5  O   -0.574554
     6  H    0.047302
     7  H    0.360504
 Sum of Mulliken charges =  -0.00000

 Dipole moment (field-independent basis, Debye):
    X=             -0.2350    Y=             -3.2657    Z=              0.1887  Tot=              3.2796
 Quadrupole moment (field-independent basis, Debye-Ang):
   XX=            -24.0378   YY=            -37.5030   ZZ=            -25.8721
   XY=              1.4914   XZ=             -2.7152   YZ=              3.0293

 Normal termination of Gaussian 16 at Fri Sep 22 16:53:05 2023.
