 Gaussian 16, Revision A.03,
 Gaussian 16:  ES64L-G16RevA.03 25-Dec-2016

 -----------------------------------------
 # scrf=(cpcm,solvent=water) def2tzvp olyp
 -----------------------------------------

 --------------------
 tmpdir/M2_ref_13.gjf
 --------------------
 Symbolic Z-matrix:
 Charge =  1 Multiplicity = 1

                         Standard orientation:
 ---------------------------------------------------------------------
 Center     Atomic      Atomic             Coordinates (Angstroms)
 Number     Number       Type             X           Y           Z
 ---------------------------------------------------------------------
      1         12           0        2.170896    0.271366    0.111300
      2          8           0        0.472176   -0.447258   -0.493096
      3         15           0       -0.905953   -0.314769    0.140282
      4          8           0       -1.760285    0.864512   -0.134969
      5          1           0       -1.498817   -1.527920   -0.013287
      6          1           0       -0.657768   -0.344975    1.597979
 ---------------------------------------------------------------------

 SCF Done:  E(RO-LYP) =  -693.152420891     A.U. after   13 cycles

 The electronic state is 1-A.
 Alpha  occ. eigenvalues --  -76.34007 -46.29726 -18.74348 -18.70612  -6.36968
 Alpha  occ. eigenvalues --   -4.57938  -4.57861  -4.57704  -3.00917  -1.79176
 Alpha  occ. eigenvalues --   -1.79158  -1.78911  -0.91730  -0.85838  -0.52151
 Alpha  occ. eigenvalues --   -0.39194  -0.38657  -0.34346  -0.27864  -0.27118
 Alpha  occ. eigenvalues --   -0.24374  -0.22335
 Alpha virt. eigenvalues --   -0.08979   0.00994   0.01926   0.03087   0.04467
 Alpha virt. eigenvalues --    0.05298   0.08240   0.09390   0.11372   0.14327
 Alpha virt. eigenvalues --    0.15208   0.15872   0.17983   0.21136   0.23235

 Mulliken charges:
               1
     1  Mg   1.660923
     2  O   -0.599375
     3  P    0.582357
     4  O   -0.606873
     5  H    0.013077
     6  H   -0.050109
 Sum of Mulliken charges =   1.00000

 Dipole moment (field-independent basis, Debye):
    X=             20.5220    Y=              0.5634    Z=              2.8128  Tot=             20.7215
 Quadrupole moment (field-independent basis, Debye-Ang):
   XX=              6.7902   YY=            -29.9597   ZZ=            -29.3467
   XY=             12.1892   XZ=              2.9023   YZ=              0.3398

 Normal termination of Gaussian 16 at Fri Sep 22 16:52:08 2023.
