 Gaussian 16, Revision A.03,
 Gaussian 16:  ES64L-G16RevA.03 25-Dec-2016

 -----------------------------------------
 # scrf=(cpcm,solvent=water) def2tzvp olyp
 -----------------------------------------

 --------------------
 tmpdir/M2_ref_26.gjf
 --------------------
 Symbolic Z-matrix:
 Charge =  0 Multiplicity = 1

                         Standard orientation:
 ---------------------------------------------------------------------
 Center     Atomic      Atomic             Coordinates (Angstroms)
 Number     Number       Type             X           Y           Z
 ---------------------------------------------------------------------
      1         15           0       -1.463683   -0.243594   -0.122000
      2          8           0       -0.013525   -0.977729   -0.086234
      3         15           0        1.421323   -0.266459    0.167494
      4          1           0       -1.868106   -0.350282   -1.395464
      5          1           0       -2.256465   -0.971253    0.668965
      6          8           0       -1.338398    1.163964    0.377795
      7          8           0        1.453139    1.103580   -0.435727
      8          1           0        1.631552   -0.197741    1.487553
      9          1           0        2.318677   -1.148451   -0.290136
 ---------------------------------------------------------------------

 SCF Done:  E(RO-LYP) =  -910.924970937     A.U. after   13 cycles

 The electronic state is 1-A.
 Alpha  occ. eigenvalues --  -76.38413 -76.38135 -18.81957 -18.72405 -18.72236
 Alpha  occ. eigenvalues --   -6.41564  -6.41276  -4.62722  -4.62424  -4.62268
 Alpha  occ. eigenvalues --   -4.62228  -4.62004  -4.61924  -0.99926  -0.88732
 Alpha  occ. eigenvalues --   -0.87902  -0.64190  -0.55067  -0.46694  -0.44295
 Alpha  occ. eigenvalues --   -0.43268  -0.39696  -0.35221  -0.32923  -0.31718
 Alpha  occ. eigenvalues --   -0.26941  -0.25591  -0.24687  -0.23803
 Alpha virt. eigenvalues --   -0.03570  -0.00212   0.00590   0.02038   0.03026
 Alpha virt. eigenvalues --    0.04074   0.07330   0.08998   0.14367   0.17599
 Alpha virt. eigenvalues --    0.19210   0.19369   0.20511   0.23459   0.23950

 Mulliken charges:
               1
     1  P    0.587514
     2  O   -0.322249
     3  P    0.580488
     4  H    0.066417
     5  H    0.069229
     6  O   -0.552114
     7  O   -0.554220
     8  H    0.053844
     9  H    0.071091
 Sum of Mulliken charges =  -0.00000

 Dipole moment (field-independent basis, Debye):
    X=             -0.6734    Y=             -7.3070    Z=              0.3939  Tot=              7.3486
 Quadrupole moment (field-independent basis, Debye-Ang):
   XX=            -35.6468   YY=            -49.5964   ZZ=            -40.5887
   XY=             -0.2905   XZ=              5.2580   YZ=             -0.0246

 Normal termination of Gaussian 16 at Fri Sep 22 16:53:08 2023.
