 Gaussian 16, Revision A.03,
 Gaussian 16:  ES64L-G16RevA.03 25-Dec-2016

 -----------------------------------------
 # scrf=(cpcm,solvent=water) def2tzvp olyp
 -----------------------------------------

 -------------------
 tmpdir/M2_ref_1.gjf
 -------------------
 Symbolic Z-matrix:
 Charge =  0 Multiplicity = 1

                         Standard orientation:
 ---------------------------------------------------------------------
 Center     Atomic      Atomic             Coordinates (Angstroms)
 Number     Number       Type             X           Y           Z
 ---------------------------------------------------------------------
      1          8           0       -1.091645   -0.001348    0.002629
      2         15           0        0.390176   -0.023673   -0.004882
      3          1           0        0.988980   -0.186432    1.204147
      4          1           0        1.044436   -0.794139   -0.828665
      5          1           0        0.847101    1.346446   -0.323287
 ---------------------------------------------------------------------

 SCF Done:  E(RO-LYP) =  -418.404154276     A.U. after   10 cycles

 The electronic state is 1-A.
 Alpha  occ. eigenvalues --  -76.34382 -18.71915  -6.38128  -4.59021  -4.58936
 Alpha  occ. eigenvalues --   -4.58839  -0.89025  -0.58577  -0.40707  -0.38103
 Alpha  occ. eigenvalues --   -0.34218  -0.24947  -0.23942
 Alpha virt. eigenvalues --   -0.02186   0.01336   0.02401   0.06164   0.14474
 Alpha virt. eigenvalues --    0.15057   0.22081   0.25058   0.26480   0.28221
 Alpha virt. eigenvalues --    0.29706   0.30549   0.38768   0.48004   0.49780

 Mulliken charges:
               1
     1  O   -0.585521
     2  P    0.419213
     3  H    0.060945
     4  H    0.073821
     5  H    0.031542
 Sum of Mulliken charges =  -0.00000

 Dipole moment (field-independent basis, Debye):
    X=              4.4399    Y=             -0.4505    Z=             -0.0512  Tot=              4.4630
 Quadrupole moment (field-independent basis, Debye-Ang):
   XX=            -22.3124   YY=            -18.7233   ZZ=            -18.5083
   XY=             -0.4863   XZ=             -0.0316   YZ=              0.1955

 Normal termination of Gaussian 16 at Fri Sep 22 16:51:40 2023.
