 Gaussian 16, Revision A.03,
 Gaussian 16:  ES64L-G16RevA.03 25-Dec-2016

 -----------------------------------------
 # scrf=(cpcm,solvent=water) def2tzvp olyp
 -----------------------------------------

 --------------------
 tmpdir/M2_ref_10.gjf
 --------------------
 Symbolic Z-matrix:
 Charge =  0 Multiplicity = 1

                         Standard orientation:
 ---------------------------------------------------------------------
 Center     Atomic      Atomic             Coordinates (Angstroms)
 Number     Number       Type             X           Y           Z
 ---------------------------------------------------------------------
      1          8           0        1.391306   -0.413932   -0.136675
      2         15           0       -0.054592   -0.180361    0.278997
      3          8           0       -0.347283    1.488333   -0.055358
      4          1           0        1.850122   -0.054924   -0.825322
      5          8           0       -1.158693   -0.951897   -0.339097
      6          1           0       -0.044267   -0.140327    1.637341
      7          1           0       -0.069610    1.920625   -0.747944
 ---------------------------------------------------------------------

 SCF Done:  E(RO-LYP) =  -568.949077768     A.U. after   12 cycles

 The electronic state is 1-A.
 Alpha  occ. eigenvalues --  -76.40426 -18.81185 -18.76133 -18.73103  -6.42871
 Alpha  occ. eigenvalues --   -4.64111  -4.63714  -4.63481  -1.02232  -0.94480
 Alpha  occ. eigenvalues --   -0.88964  -0.63306  -0.53643  -0.44219  -0.40036
 Alpha  occ. eigenvalues --   -0.38211  -0.33566  -0.30532  -0.29351  -0.26405
 Alpha  occ. eigenvalues --   -0.25156
 Alpha virt. eigenvalues --   -0.00539   0.01114   0.04637   0.05568   0.09055
 Alpha virt. eigenvalues --    0.09981   0.19200   0.20402   0.21868   0.24845
 Alpha virt. eigenvalues --    0.31014   0.31994   0.35002   0.36588   0.39139

 Mulliken charges:
               1
     1  O   -0.372635
     2  P    0.711681
     3  O   -0.501443
     4  H    0.340659
     5  O   -0.527274
     6  H    0.058881
     7  H    0.290131
 Sum of Mulliken charges =  -0.00000

 Dipole moment (field-independent basis, Debye):
    X=              4.8511    Y=              2.1557    Z=             -0.4641  Tot=              5.3288
 Quadrupole moment (field-independent basis, Debye-Ang):
   XX=            -30.8910   YY=            -31.7953   ZZ=            -25.3765
   XY=             -0.6298   XZ=             -4.4062   YZ=             -4.4476

 Normal termination of Gaussian 16 at Fri Sep 22 16:52:07 2023.
