 Gaussian 16, Revision A.03,
 Gaussian 16:  ES64L-G16RevA.03 25-Dec-2016

 -----------------------------------------
 # scrf=(cpcm,solvent=water) def2tzvp olyp
 -----------------------------------------

 --------------------
 tmpdir/M2_ref_12.gjf
 --------------------
 Symbolic Z-matrix:
 Charge =  0 Multiplicity = 1

                         Standard orientation:
 ---------------------------------------------------------------------
 Center     Atomic      Atomic             Coordinates (Angstroms)
 Number     Number       Type             X           Y           Z
 ---------------------------------------------------------------------
      1         15           0        0.754210   -0.367865    0.041275
      2          8           0       -0.791683   -0.629893   -0.202146
      3          6           0       -1.783931    0.399215    0.069752
      4          8           0        1.202041    1.039007   -0.087192
      5          1           0        1.376944   -1.328792   -0.582516
      6          1           0        0.841964   -0.726242    1.473495
      7          1           0       -1.850800    0.585969    1.143751
      8          1           0       -2.729043    0.000536   -0.297092
      9          1           0       -1.531489    1.318306   -0.460579
 ---------------------------------------------------------------------

 SCF Done:  E(RO-LYP) =  -532.976174262     A.U. after   11 cycles

 The electronic state is 1-A.
 Alpha  occ. eigenvalues --  -76.36725 -18.79813 -18.72411  -9.95769  -6.39848
 Alpha  occ. eigenvalues --   -4.60889  -4.60655  -4.60550  -0.97703  -0.88570
 Alpha  occ. eigenvalues --   -0.66060  -0.54968  -0.45204  -0.42929  -0.41189
 Alpha  occ. eigenvalues --   -0.37615  -0.35105  -0.30860  -0.27105  -0.26058
 Alpha  occ. eigenvalues --   -0.24026
 Alpha virt. eigenvalues --   -0.00113   0.00127   0.03010   0.04478   0.07475
 Alpha virt. eigenvalues --    0.08352   0.09644   0.10402   0.16652   0.18339
 Alpha virt. eigenvalues --    0.20225   0.21390   0.23487   0.25418   0.28613

 Mulliken charges:
               1
     1  P    0.570843
     2  O   -0.282513
     3  C   -0.162154
     4  O   -0.565068
     5  H    0.071461
     6  H   -0.015195
     7  H    0.120695
     8  H    0.137172
     9  H    0.124760
 Sum of Mulliken charges =  -0.00000

 Dipole moment (field-independent basis, Debye):
    X=             -2.2000    Y=             -2.5752    Z=              0.2342  Tot=              3.3950
 Quadrupole moment (field-independent basis, Debye-Ang):
   XX=            -28.9149   YY=            -33.7035   ZZ=            -30.6623
   XY=             -6.9873   XZ=             -0.6358   YZ=              0.5739

 Normal termination of Gaussian 16 at Fri Sep 22 16:51:53 2023.
