 Gaussian 16, Revision A.03,
 Gaussian 16:  ES64L-G16RevA.03 25-Dec-2016

 -----------------------------------------
 # scrf=(cpcm,solvent=water) def2tzvp olyp
 -----------------------------------------

 --------------------
 tmpdir/M2_ref_25.gjf
 --------------------
 Symbolic Z-matrix:
 Charge =  0 Multiplicity = 1

                         Standard orientation:
 ---------------------------------------------------------------------
 Center     Atomic      Atomic             Coordinates (Angstroms)
 Number     Number       Type             X           Y           Z
 ---------------------------------------------------------------------
      1          8           0        1.324051   -0.302290   -0.055585
      2         15           0       -0.134250    0.403306    0.011998
      3          1           0        1.553094   -1.088020    0.308672
      4          8           0       -1.226020   -0.620654   -0.025947
      5          1           0       -0.206367    1.117517    1.141676
      6          1           0       -0.117229    1.304460   -0.978058
 ---------------------------------------------------------------------

 SCF Done:  E(RO-LYP) =  -493.683640138     A.U. after   11 cycles

 The electronic state is 1-A.
 Alpha  occ. eigenvalues --  -76.37333 -18.78836 -18.71970  -6.40427  -4.61525
 Alpha  occ. eigenvalues --   -4.61185  -4.61114  -0.97852  -0.87878  -0.61286
 Alpha  occ. eigenvalues --   -0.48575  -0.42030  -0.37553  -0.32584  -0.30062
 Alpha  occ. eigenvalues --   -0.25285  -0.24350
 Alpha virt. eigenvalues --   -0.01064   0.00954   0.03434   0.05693   0.08248
 Alpha virt. eigenvalues --    0.16564   0.20459   0.22304   0.24013   0.27229
 Alpha virt. eigenvalues --    0.30118   0.32227   0.37358   0.40446   0.43267

 Mulliken charges:
               1
     1  O   -0.450654
     2  P    0.602803
     3  H    0.323086
     4  O   -0.581586
     5  H    0.043200
     6  H    0.063151
 Sum of Mulliken charges =  -0.00000

 Dipole moment (field-independent basis, Debye):
    X=              2.9512    Y=              2.0710    Z=              0.8079  Tot=              3.6948
 Quadrupole moment (field-independent basis, Debye-Ang):
   XX=            -28.8496   YY=            -21.6845   ZZ=            -23.4107
   XY=             -5.3654   XZ=              1.2116   YZ=             -1.2153

 Normal termination of Gaussian 16 at Fri Sep 22 16:52:32 2023.
