 Gaussian 16, Revision A.03,
 Gaussian 16:  ES64L-G16RevA.03 25-Dec-2016

 -----------------------------------------
 # scrf=(cpcm,solvent=water) def2tzvp olyp
 -----------------------------------------

 --------------------
 tmpdir/M2_ref_22.gjf
 --------------------
 Symbolic Z-matrix:
 Charge =  0 Multiplicity = 1

                         Standard orientation:
 ---------------------------------------------------------------------
 Center     Atomic      Atomic             Coordinates (Angstroms)
 Number     Number       Type             X           Y           Z
 ---------------------------------------------------------------------
      1          8           0       -1.035711   -1.048423   -0.144911
      2         15           0        0.023299    0.104969    0.292551
      3          8           0        1.395169   -0.333552   -0.305133
      4          1           0       -1.838259   -0.919781   -0.515853
      5          1           0        0.066469    0.037907    1.630568
      6          8           0       -0.409768    1.432308   -0.252734
      7          1           0        1.824777   -1.095320    0.119251
 ---------------------------------------------------------------------

 SCF Done:  E(RO-LYP) =  -568.972475048     A.U. after   12 cycles

 The electronic state is 1-A.
 Alpha  occ. eigenvalues --  -76.39806 -18.81362 -18.78211 -18.72081  -6.42324
 Alpha  occ. eigenvalues --   -4.63409  -4.63251  -4.62982  -1.00705  -0.96206
 Alpha  occ. eigenvalues --   -0.87505  -0.60753  -0.53289  -0.47419  -0.38701
 Alpha  occ. eigenvalues --   -0.36911  -0.32913  -0.32832  -0.29679  -0.25635
 Alpha  occ. eigenvalues --   -0.24839
 Alpha virt. eigenvalues --   -0.00043   0.01735   0.03636   0.04768   0.07089
 Alpha virt. eigenvalues --    0.13608   0.19162   0.20812   0.22785   0.24511
 Alpha virt. eigenvalues --    0.30242   0.32552   0.35919   0.36919   0.39276

 Mulliken charges:
               1
     1  O   -0.449981
     2  P    0.696270
     3  O   -0.387831
     4  H    0.320713
     5  H    0.043699
     6  O   -0.578295
     7  H    0.355425
 Sum of Mulliken charges =  -0.00000

 Dipole moment (field-independent basis, Debye):
    X=              0.8952    Y=             -4.5066    Z=              2.3526  Tot=              5.1620
 Quadrupole moment (field-independent basis, Debye-Ang):
   XX=            -23.1420   YY=            -34.9736   ZZ=            -28.2302
   XY=             -0.9812   XZ=              3.0435   YZ=              1.1439

 Normal termination of Gaussian 16 at Fri Sep 22 16:52:34 2023.
