 Gaussian 16, Revision A.03,
 Gaussian 16:  ES64L-G16RevA.03 25-Dec-2016

 -----------------------------------------
 # scrf=(cpcm,solvent=water) def2tzvp olyp
 -----------------------------------------

 --------------------
 tmpdir/M2_ref_53.gjf
 --------------------
 Symbolic Z-matrix:
 Charge = -1 Multiplicity = 1

                         Standard orientation:
 ---------------------------------------------------------------------
 Center     Atomic      Atomic             Coordinates (Angstroms)
 Number     Number       Type             X           Y           Z
 ---------------------------------------------------------------------
      1          6           0       -0.567573    0.000016   -0.000097
      2          8           0        0.811240   -0.000047   -0.000025
      3          1           0       -1.027862    0.983821   -0.269138
      4          1           0       -1.028760   -0.725137   -0.716742
      5          1           0       -1.027865   -0.258399    0.986664
 ---------------------------------------------------------------------

 SCF Done:  E(RO-LYP) =  -115.211392711     A.U. after   12 cycles

 The electronic state is 1-A.
 Alpha  occ. eigenvalues --  -18.60443  -9.87835  -0.76903  -0.51772  -0.31293
 Alpha  occ. eigenvalues --   -0.31285  -0.25592  -0.10338  -0.10335
 Alpha virt. eigenvalues --    0.05097   0.11022   0.12481   0.12484   0.22674
 Alpha virt. eigenvalues --    0.22681   0.33828   0.37892   0.43034   0.43041
 Alpha virt. eigenvalues --    0.43064   0.50355   0.53913   0.53919   0.70693

 Mulliken charges:
               1
     1  C   -0.132855
     2  O   -0.877305
     3  H    0.003440
     4  H    0.003395
     5  H    0.003325
 Sum of Mulliken charges =  -1.00000

 Dipole moment (field-independent basis, Debye):
    X=             -3.0880    Y=              0.0002    Z=             -0.0004  Tot=              3.0880
 Quadrupole moment (field-independent basis, Debye-Ang):
   XX=            -20.3816   YY=            -16.4122   ZZ=            -16.4139
   XY=              0.0006   XZ=              0.0012   YZ=              0.0000

 Normal termination of Gaussian 16 at Fri Sep 22 16:53:13 2023.
