 Gaussian 16, Revision A.03,
 Gaussian 16:  ES64L-G16RevA.03 25-Dec-2016

 -----------------------------------------
 # scrf=(cpcm,solvent=water) def2tzvp olyp
 -----------------------------------------

 --------------------
 tmpdir/M2_ref_48.gjf
 --------------------
 Symbolic Z-matrix:
 Charge =  0 Multiplicity = 1

                         Standard orientation:
 ---------------------------------------------------------------------
 Center     Atomic      Atomic             Coordinates (Angstroms)
 Number     Number       Type             X           Y           Z
 ---------------------------------------------------------------------
      1          1           0        0.518657   -0.867361   -0.433130
      2          6           0        0.015452    0.000653   -0.001670
      3          1           0        0.007908   -0.076958    1.084918
      4          1           0       -1.132793    0.019743   -0.331517
      5          1           0        0.513517    0.920661   -0.310250
 ---------------------------------------------------------------------

 SCF Done:  E(RO-LYP) =  -40.5045809519     A.U. after    8 cycles

 The electronic state is 1-A.
 Alpha  occ. eigenvalues --   -9.88930  -0.61986  -0.34603  -0.34506  -0.32666
 Alpha virt. eigenvalues --    0.02287   0.08642   0.10180   0.10265   0.17694
 Alpha virt. eigenvalues --    0.17716   0.18332   0.36510   0.39329   0.42884
 Alpha virt. eigenvalues --    0.43014   0.47040   0.55848   0.56044   0.89482

 Mulliken charges:
               1
     1  H    0.126626
     2  C   -0.493334
     3  H    0.126638
     4  H    0.113203
     5  H    0.126866
 Sum of Mulliken charges =   0.00000

 Dipole moment (field-independent basis, Debye):
    X=              0.0684    Y=             -0.0040    Z=              0.0525  Tot=              0.0863
 Quadrupole moment (field-independent basis, Debye-Ang):
   XX=             -8.4553   YY=             -8.4803   ZZ=             -8.5756
   XY=              0.0078   XZ=             -0.0974   YZ=              0.0007

 Normal termination of Gaussian 16 at Fri Sep 22 16:52:58 2023.
