 Gaussian 16, Revision A.03,
 Gaussian 16:  ES64L-G16RevA.03 25-Dec-2016

 -----------------------------------------
 # scrf=(cpcm,solvent=water) def2tzvp olyp
 -----------------------------------------

 --------------------
 tmpdir/M2_ref_33.gjf
 --------------------
 Symbolic Z-matrix:
 Charge =  0 Multiplicity = 1

                         Standard orientation:
 ---------------------------------------------------------------------
 Center     Atomic      Atomic             Coordinates (Angstroms)
 Number     Number       Type             X           Y           Z
 ---------------------------------------------------------------------
      1          8           0        1.208784   -0.874964   -0.096768
      2         15           0       -0.027481    0.100389    0.289762
      3          8           0       -1.340632   -0.511014   -0.296822
      4          1           0        1.685995   -0.855379   -0.854661
      5          8           0        0.190240    1.479586   -0.250895
      6          1           0       -0.143718   -0.015657    1.618521
      7          1           0       -1.597192   -1.383668    0.045586
 ---------------------------------------------------------------------

 SCF Done:  E(RO-LYP) =  -568.973989268     A.U. after   11 cycles

 The electronic state is 1-A.
 Alpha  occ. eigenvalues --  -76.39742 -18.80711 -18.78658 -18.72188  -6.42273
 Alpha  occ. eigenvalues --   -4.63388  -4.63183  -4.62921  -1.00403  -0.96302
 Alpha  occ. eigenvalues --   -0.87639  -0.60769  -0.53601  -0.46388  -0.38394
 Alpha  occ. eigenvalues --   -0.38105  -0.32572  -0.32053  -0.30468  -0.25725
 Alpha  occ. eigenvalues --   -0.24863
 Alpha virt. eigenvalues --    0.00227   0.01381   0.03752   0.05549   0.07141
 Alpha virt. eigenvalues --    0.12802   0.19219   0.21095   0.22362   0.25569
 Alpha virt. eigenvalues --    0.28542   0.32883   0.36286   0.36419   0.39115

 Mulliken charges:
               1
     1  O   -0.446080
     2  P    0.696640
     3  O   -0.397233
     4  H    0.322917
     5  O   -0.574085
     6  H    0.046536
     7  H    0.351305
 Sum of Mulliken charges =  -0.00000

 Dipole moment (field-independent basis, Debye):
    X=             -0.5334    Y=             -5.1448    Z=              1.3631  Tot=              5.3489
 Quadrupole moment (field-independent basis, Debye-Ang):
   XX=            -26.7131   YY=            -33.4008   ZZ=            -26.9122
   XY=              2.0712   XZ=             -4.1664   YZ=              1.9688

 Normal termination of Gaussian 16 at Fri Sep 22 16:52:47 2023.
