 Gaussian 16, Revision A.03,
 Gaussian 16:  ES64L-G16RevA.03 25-Dec-2016

 -----------------------------------------
 # scrf=(cpcm,solvent=water) def2tzvp olyp
 -----------------------------------------

 -------------------
 tmpdir/M2_ref_5.gjf
 -------------------
 Symbolic Z-matrix:
 Charge =  0 Multiplicity = 1

                         Standard orientation:
 ---------------------------------------------------------------------
 Center     Atomic      Atomic             Coordinates (Angstroms)
 Number     Number       Type             X           Y           Z
 ---------------------------------------------------------------------
      1          8           0       -1.267659   -0.559723   -0.022946
      2         15           0       -0.118465    0.375950   -0.008288
      3          8           0        1.320595   -0.290181   -0.063702
      4          1           0       -0.069297    1.389534   -0.827144
      5          1           0       -0.059848    0.976298    1.342096
      6          1           0        1.482630   -1.205859    0.302549
 ---------------------------------------------------------------------

 SCF Done:  E(RO-LYP) =  -493.686092224     A.U. after   11 cycles

 The electronic state is 1-A.
 Alpha  occ. eigenvalues --  -76.37197 -18.80041 -18.72492  -6.40259  -4.61320
 Alpha  occ. eigenvalues --   -4.61062  -4.60951  -0.97341  -0.88564  -0.59777
 Alpha  occ. eigenvalues --   -0.46852  -0.41546  -0.38226  -0.33256  -0.29548
 Alpha  occ. eigenvalues --   -0.26191  -0.24256
 Alpha virt. eigenvalues --   -0.01513   0.00640   0.02796   0.04908   0.08748
 Alpha virt. eigenvalues --    0.16594   0.20772   0.22435   0.23993   0.27003
 Alpha virt. eigenvalues --    0.30909   0.31715   0.36097   0.38918   0.42618

 Mulliken charges:
               1
     1  O   -0.560976
     2  P    0.589588
     3  O   -0.457114
     4  H    0.073794
     5  H   -0.008445
     6  H    0.363153
 Sum of Mulliken charges =  -0.00000

 Dipole moment (field-independent basis, Debye):
    X=              3.1014    Y=              1.2243    Z=              0.2207  Tot=              3.3416
 Quadrupole moment (field-independent basis, Debye-Ang):
   XX=            -29.2742   YY=            -21.1987   ZZ=            -24.0057
   XY=             -5.2550   XZ=              1.1655   YZ=             -1.8499

 Normal termination of Gaussian 16 at Fri Sep 22 16:52:05 2023.
