 Gaussian 16, Revision A.03,
 Gaussian 16:  ES64L-G16RevA.03 25-Dec-2016

 -----------------------------------------
 # scrf=(cpcm,solvent=water) def2tzvp olyp
 -----------------------------------------

 --------------------
 tmpdir/M2_ref_19.gjf
 --------------------
 Symbolic Z-matrix:
 Charge =  0 Multiplicity = 1

                         Standard orientation:
 ---------------------------------------------------------------------
 Center     Atomic      Atomic             Coordinates (Angstroms)
 Number     Number       Type             X           Y           Z
 ---------------------------------------------------------------------
      1          8           0       -1.274498   -0.726913   -0.154621
      2         15           0       -0.025825    0.094727    0.309106
      3          8           0        1.251300   -0.802817   -0.145378
      4          1           0       -1.894417   -0.465844   -0.827620
      5          1           0        0.019655    0.138125    1.643147
      6          8           0        0.074550    1.467264   -0.284845
      7          1           0        1.851321   -0.593457   -0.773369
 ---------------------------------------------------------------------

 SCF Done:  E(RO-LYP) =  -568.967374330     A.U. after   12 cycles

 The electronic state is 1-A.
 Alpha  occ. eigenvalues --  -76.40129 -18.80407 -18.78231 -18.71633  -6.42567
 Alpha  occ. eigenvalues --   -4.63627  -4.63508  -4.63237  -1.00139  -0.96072
 Alpha  occ. eigenvalues --   -0.87156  -0.62511  -0.52817  -0.46257  -0.40184
 Alpha  occ. eigenvalues --   -0.36246  -0.33050  -0.31365  -0.30057  -0.24935
 Alpha  occ. eigenvalues --   -0.24497
 Alpha virt. eigenvalues --   -0.00811   0.02056   0.03866   0.05850   0.06774
 Alpha virt. eigenvalues --    0.13352   0.18561   0.21666   0.22175   0.24684
 Alpha virt. eigenvalues --    0.30861   0.33593   0.35975   0.37209   0.39415

 Mulliken charges:
               1
     1  O   -0.419899
     2  P    0.707793
     3  O   -0.448399
     4  H    0.359840
     5  H    0.064540
     6  O   -0.585105
     7  H    0.321230
 Sum of Mulliken charges =   0.00000

 Dipole moment (field-independent basis, Debye):
    X=             -0.7984    Y=             -2.5045    Z=             -0.1334  Tot=              2.6321
 Quadrupole moment (field-independent basis, Debye-Ang):
   XX=            -22.7822   YY=            -38.5825   ZZ=            -25.3254
   XY=             -0.2512   XZ=              0.3777   YZ=              2.6248

 Normal termination of Gaussian 16 at Fri Sep 22 16:52:17 2023.
