 Gaussian 16, Revision A.03,
 Gaussian 16:  ES64L-G16RevA.03 25-Dec-2016

 -----------------------------------------
 # scrf=(cpcm,solvent=water) def2tzvp olyp
 -----------------------------------------

 --------------------
 tmpdir/M2_ref_37.gjf
 --------------------
 Symbolic Z-matrix:
 Charge =  0 Multiplicity = 1

                         Standard orientation:
 ---------------------------------------------------------------------
 Center     Atomic      Atomic             Coordinates (Angstroms)
 Number     Number       Type             X           Y           Z
 ---------------------------------------------------------------------
      1          8           0        1.342514   -0.533159   -0.201845
      2         15           0       -0.013639    0.098445    0.250025
      3          8           0       -1.116764   -0.901013   -0.227433
      4          1           0        1.474330   -1.469881    0.021245
      5          1           0       -0.078631    0.052279    1.636441
      6          8           0       -0.120436    1.507966   -0.243678
      7          1           0       -2.033628   -0.649428   -0.024412
 ---------------------------------------------------------------------

 SCF Done:  E(RO-LYP) =  -568.984598056     A.U. after   12 cycles

 The electronic state is 1-A.
 Alpha  occ. eigenvalues --  -76.39166 -18.80975 -18.80666 -18.72047  -6.41738
 Alpha  occ. eigenvalues --   -4.62822  -4.62651  -4.62404  -1.01299  -0.96900
 Alpha  occ. eigenvalues --   -0.87496  -0.59539  -0.52675  -0.47263  -0.39743
 Alpha  occ. eigenvalues --   -0.36241  -0.34890  -0.32498  -0.30129  -0.25680
 Alpha  occ. eigenvalues --   -0.25061
 Alpha virt. eigenvalues --   -0.00336   0.01368   0.05021   0.05531   0.07010
 Alpha virt. eigenvalues --    0.12232   0.20117   0.20944   0.22461   0.25483
 Alpha virt. eigenvalues --    0.29625   0.32649   0.34512   0.36451   0.37636

 Mulliken charges:
               1
     1  O   -0.404364
     2  P    0.679810
     3  O   -0.413588
     4  H    0.352441
     5  H    0.006295
     6  O   -0.577622
     7  H    0.357028
 Sum of Mulliken charges =  -0.00000

 Dipole moment (field-independent basis, Debye):
    X=             -1.2913    Y=             -5.1900    Z=              2.5592  Tot=              5.9290
 Quadrupole moment (field-independent basis, Debye-Ang):
   XX=            -23.4260   YY=            -33.6970   ZZ=            -29.6236
   XY=             -2.1116   XZ=             -0.0265   YZ=              0.3755

 Normal termination of Gaussian 16 at Fri Sep 22 16:53:02 2023.
