 Gaussian 16, Revision A.03,
 Gaussian 16:  ES64L-G16RevA.03 25-Dec-2016

 -----------------------------------------
 # scrf=(cpcm,solvent=water) def2tzvp olyp
 -----------------------------------------

 --------------------
 tmpdir/M2_ref_29.gjf
 --------------------
 Symbolic Z-matrix:
 Charge =  0 Multiplicity = 1

                         Standard orientation:
 ---------------------------------------------------------------------
 Center     Atomic      Atomic             Coordinates (Angstroms)
 Number     Number       Type             X           Y           Z
 ---------------------------------------------------------------------
      1         15           0        0.400545   -0.004130   -0.000221
      2          8           0       -1.096694    0.003190    0.010638
      3          1           0        0.899250    1.212974   -0.445707
      4          1           0        0.854449   -0.968705   -0.809566
      5          1           0        1.011680   -0.207829    1.173491
 ---------------------------------------------------------------------

 SCF Done:  E(RO-LYP) =  -418.408270028     A.U. after   10 cycles

 The electronic state is 1-A.
 Alpha  occ. eigenvalues --  -76.34093 -18.71238  -6.37903  -4.58746  -4.58720
 Alpha  occ. eigenvalues --   -4.58640  -0.88009  -0.58749  -0.40378  -0.39741
 Alpha  occ. eigenvalues --   -0.33542  -0.24015  -0.23699
 Alpha virt. eigenvalues --   -0.02007   0.01965   0.03757   0.04379   0.14535
 Alpha virt. eigenvalues --    0.14709   0.22011   0.25747   0.27556   0.28233
 Alpha virt. eigenvalues --    0.29827   0.30258   0.38663   0.48443   0.50345

 Mulliken charges:
               1
     1  P    0.431864
     2  O   -0.611060
     3  H    0.055783
     4  H    0.060853
     5  H    0.062560
 Sum of Mulliken charges =  -0.00000

 Dipole moment (field-independent basis, Debye):
    X=              4.7261    Y=             -0.0769    Z=              0.0041  Tot=              4.7267
 Quadrupole moment (field-independent basis, Debye-Ang):
   XX=            -22.3999   YY=            -18.4258   ZZ=            -18.4640
   XY=             -0.0379   XZ=              0.1602   YZ=              0.0263

 Normal termination of Gaussian 16 at Fri Sep 22 16:52:32 2023.
