 Gaussian 16, Revision A.03,
 Gaussian 16:  ES64L-G16RevA.03 25-Dec-2016

 -----------------------------------------
 # scrf=(cpcm,solvent=water) def2tzvp olyp
 -----------------------------------------

 -------------------
 tmpdir/M2_ref_4.gjf
 -------------------
 Symbolic Z-matrix:
 Charge =  0 Multiplicity = 1

                         Standard orientation:
 ---------------------------------------------------------------------
 Center     Atomic      Atomic             Coordinates (Angstroms)
 Number     Number       Type             X           Y           Z
 ---------------------------------------------------------------------
      1         15           0       -0.186793    0.415605    0.018258
      2          8           0        1.357287   -0.348896   -0.097311
      3          8           0       -1.209765   -0.656540   -0.001302
      4          1           0       -0.131288    1.205328   -1.086307
      5          1           0       -0.083817    1.224866    1.035502
      6          1           0        1.836824   -0.620781    0.565846
 ---------------------------------------------------------------------

 SCF Done:  E(RO-LYP) =  -493.668199233     A.U. after   11 cycles

 The electronic state is 1-A.
 Alpha  occ. eigenvalues --  -76.37794 -18.76981 -18.73235  -6.40924  -4.62080
 Alpha  occ. eigenvalues --   -4.61675  -4.61559  -0.95645  -0.89350  -0.60318
 Alpha  occ. eigenvalues --   -0.48481  -0.41614  -0.36246  -0.32349  -0.29312
 Alpha  occ. eigenvalues --   -0.25834  -0.25737
 Alpha virt. eigenvalues --   -0.02275   0.00439   0.02780   0.05718   0.08287
 Alpha virt. eigenvalues --    0.16450   0.19680   0.21596   0.23366   0.25475
 Alpha virt. eigenvalues --    0.29718   0.33601   0.37898   0.39690   0.43453

 Mulliken charges:
               1
     1  P    0.591689
     2  O   -0.484008
     3  O   -0.534292
     4  H    0.063849
     5  H    0.067474
     6  H    0.295288
 Sum of Mulliken charges =  -0.00000

 Dipole moment (field-independent basis, Debye):
    X=              2.4675    Y=              3.4530    Z=              1.6017  Tot=              4.5362
 Quadrupole moment (field-independent basis, Debye-Ang):
   XX=            -27.1555   YY=            -23.6641   ZZ=            -22.5840
   XY=             -3.8355   XZ=              2.8671   YZ=             -0.8928

 Normal termination of Gaussian 16 at Fri Sep 22 16:51:53 2023.
