 Gaussian 16, Revision A.03,
 Gaussian 16:  ES64L-G16RevA.03 25-Dec-2016

 -----------------------------------------
 # scrf=(cpcm,solvent=water) def2tzvp olyp
 -----------------------------------------

 -------------------
 tmpdir/M2_ref_9.gjf
 -------------------
 Symbolic Z-matrix:
 Charge =  0 Multiplicity = 1

                         Standard orientation:
 ---------------------------------------------------------------------
 Center     Atomic      Atomic             Coordinates (Angstroms)
 Number     Number       Type             X           Y           Z
 ---------------------------------------------------------------------
      1          8           0        1.134761   -0.948081   -0.111982
      2         15           0        0.069404    0.141274    0.330752
      3          8           0       -1.369080   -0.604305   -0.266640
      4          1           0        1.543029   -0.933454   -1.024104
      5          8           0        0.183061    1.464729   -0.326437
      6          1           0       -0.017000    0.042699    1.628100
      7          1           0       -2.157015   -0.527098    0.075194
 ---------------------------------------------------------------------

 SCF Done:  E(RO-LYP) =  -568.953430807     A.U. after   12 cycles

 The electronic state is 1-A.
 Alpha  occ. eigenvalues --  -76.40452 -18.80955 -18.76408 -18.73223  -6.42972
 Alpha  occ. eigenvalues --   -4.64076  -4.63923  -4.63586  -0.98831  -0.94223
 Alpha  occ. eigenvalues --   -0.88861  -0.60961  -0.50832  -0.46977  -0.39633
 Alpha  occ. eigenvalues --   -0.34552  -0.33208  -0.31967  -0.29100  -0.26679
 Alpha  occ. eigenvalues --   -0.24894
 Alpha virt. eigenvalues --   -0.01021   0.00741   0.02842   0.04806   0.06502
 Alpha virt. eigenvalues --    0.12340   0.19609   0.19968   0.22171   0.23128
 Alpha virt. eigenvalues --    0.29471   0.33849   0.35168   0.37858   0.38424

 Mulliken charges:
               1
     1  O   -0.436325
     2  P    0.708124
     3  O   -0.477801
     4  H    0.369941
     5  O   -0.527410
     6  H    0.071070
     7  H    0.292401
 Sum of Mulliken charges =  -0.00000

 Dipole moment (field-independent basis, Debye):
    X=             -0.0875    Y=             -2.5640    Z=              1.8413  Tot=              3.1579
 Quadrupole moment (field-independent basis, Debye-Ang):
   XX=            -23.5164   YY=            -37.0912   ZZ=            -25.7999
   XY=             -1.4883   XZ=             -4.6671   YZ=              2.8530

 Normal termination of Gaussian 16 at Fri Sep 22 16:51:49 2023.
