 Gaussian 16, Revision A.03,
 Gaussian 16:  ES64L-G16RevA.03 25-Dec-2016

 -----------------------------------------
 # scrf=(cpcm,solvent=water) def2tzvp olyp
 -----------------------------------------

 --------------------
 tmpdir/M2_ref_30.gjf
 --------------------
 Symbolic Z-matrix:
 Charge =  0 Multiplicity = 1

                         Standard orientation:
 ---------------------------------------------------------------------
 Center     Atomic      Atomic             Coordinates (Angstroms)
 Number     Number       Type             X           Y           Z
 ---------------------------------------------------------------------
      1         15           0        0.089319    0.373143   -0.006238
      2          8           0       -1.213177   -0.490136    0.016464
      3          1           0        0.083432    1.205280    1.105526
      4          8           0        1.298243   -0.510258   -0.006581
      5          1           0       -0.052119    1.203037   -1.047319
      6          1           0       -2.051630   -0.002317   -0.043706
 ---------------------------------------------------------------------

 SCF Done:  E(RO-LYP) =  -493.694243729     A.U. after   11 cycles

 The electronic state is 1-A.
 Alpha  occ. eigenvalues --  -76.36711 -18.80503 -18.72170  -6.39874  -4.60931
 Alpha  occ. eigenvalues --   -4.60657  -4.60573  -0.99020  -0.87925  -0.58640
 Alpha  occ. eigenvalues --   -0.50197  -0.41915  -0.37077  -0.33206  -0.30399
 Alpha  occ. eigenvalues --   -0.26070  -0.24302
 Alpha virt. eigenvalues --   -0.00803   0.00848   0.03637   0.04852   0.08576
 Alpha virt. eigenvalues --    0.16961   0.20138   0.22396   0.27320   0.28151
 Alpha virt. eigenvalues --    0.29114   0.31005   0.35122   0.39769   0.43153

 Mulliken charges:
               1
     1  P    0.579503
     2  O   -0.411441
     3  H    0.028243
     4  O   -0.585573
     5  H    0.039718
     6  H    0.349550
 Sum of Mulliken charges =  -0.00000

 Dipole moment (field-independent basis, Debye):
    X=             -4.9013    Y=              3.9120    Z=             -0.2171  Tot=              6.2749
 Quadrupole moment (field-independent basis, Debye-Ang):
   XX=            -24.1632   YY=            -24.9423   ZZ=            -23.9168
   XY=              0.5272   XZ=              0.3278   YZ=             -0.1257

 Normal termination of Gaussian 16 at Fri Sep 22 16:52:31 2023.
