 Gaussian 16, Revision A.03,
 Gaussian 16:  ES64L-G16RevA.03 25-Dec-2016

 -----------------------------------------
 # scrf=(cpcm,solvent=water) def2tzvp olyp
 -----------------------------------------

 --------------------
 tmpdir/M2_ref_11.gjf
 --------------------
 Symbolic Z-matrix:
 Charge =  0 Multiplicity = 1

                         Standard orientation:
 ---------------------------------------------------------------------
 Center     Atomic      Atomic             Coordinates (Angstroms)
 Number     Number       Type             X           Y           Z
 ---------------------------------------------------------------------
      1          8           0       -0.754672    0.103519   -0.000076
      2          6           0        0.695116   -0.021641   -0.000225
      3          1           0       -1.270930   -0.602073    0.005523
      4          1           0        1.039885   -0.427982    0.953107
      5          1           0        1.077470    0.989829   -0.132467
      6          1           0        1.020255   -0.658082   -0.824200
 ---------------------------------------------------------------------

 SCF Done:  E(RO-LYP) =  -115.719028527     A.U. after    9 cycles

 The electronic state is 1-A.
 Alpha  occ. eigenvalues --  -18.74383  -9.93915  -0.93608  -0.63199  -0.45827
 Alpha  occ. eigenvalues --   -0.38327  -0.37750  -0.27628  -0.22680
 Alpha virt. eigenvalues --    0.01685   0.04606   0.09311   0.09954   0.11479
 Alpha virt. eigenvalues --    0.19235   0.19886   0.24951   0.34065   0.37347
 Alpha virt. eigenvalues --    0.40881   0.42450   0.45584   0.46092   0.46654

 Mulliken charges:
               1
     1  O   -0.481040
     2  C   -0.149107
     3  H    0.287439
     4  H    0.108371
     5  H    0.123546
     6  H    0.110791
 Sum of Mulliken charges =  -0.00000

 Dipole moment (field-independent basis, Debye):
    X=              0.8206    Y=             -1.5445    Z=             -0.0050  Tot=              1.7490
 Quadrupole moment (field-independent basis, Debye-Ang):
   XX=            -11.9898   YY=            -12.5033   ZZ=            -13.6418
   XY=              2.2617   XZ=             -0.0416   YZ=             -0.0105

 Normal termination of Gaussian 16 at Fri Sep 22 16:52:13 2023.
