 Gaussian 16, Revision A.03,
 Gaussian 16:  ES64L-G16RevA.03 25-Dec-2016

 -----------------------------------------
 # scrf=(cpcm,solvent=water) def2tzvp olyp
 -----------------------------------------

 --------------------
 tmpdir/M2_ref_15.gjf
 --------------------
 Symbolic Z-matrix:
 Charge =  0 Multiplicity = 1

                         Standard orientation:
 ---------------------------------------------------------------------
 Center     Atomic      Atomic             Coordinates (Angstroms)
 Number     Number       Type             X           Y           Z
 ---------------------------------------------------------------------
      1         15           0       -1.385899   -0.132571   -0.374560
      2          8           0        0.062403   -0.864965    0.215374
      3         15           0        1.495916   -0.240049    0.153409
      4          8           0       -1.955626    0.668567    0.734466
      5          1           0       -2.079556   -1.249104   -0.719521
      6          1           0       -1.041771    0.430010   -1.499448
      7          1           0        2.204757   -1.066139   -0.714912
      8          1           0        2.096747   -0.362791    1.339813
      9          8           0        1.539419    1.176063   -0.335924
 ---------------------------------------------------------------------

 SCF Done:  E(RO-LYP) =  -910.927815458     A.U. after   13 cycles

 The electronic state is 1-A.
 Alpha  occ. eigenvalues --  -76.39387 -76.37525 -18.81854 -18.74492 -18.72282
 Alpha  occ. eigenvalues --   -6.42580  -6.40660  -4.63816  -4.63273  -4.63171
 Alpha  occ. eigenvalues --   -4.61731  -4.61409  -4.61374  -0.99424  -0.90840
 Alpha  occ. eigenvalues --   -0.87966  -0.63550  -0.55382  -0.47025  -0.43617
 Alpha  occ. eigenvalues --   -0.42872  -0.38792  -0.36784  -0.32791  -0.32122
 Alpha  occ. eigenvalues --   -0.27852  -0.26774  -0.25978  -0.24328
 Alpha virt. eigenvalues --   -0.04055  -0.00992   0.00429   0.01892   0.03491
 Alpha virt. eigenvalues --    0.03757   0.06984   0.08562   0.15418   0.16424
 Alpha virt. eigenvalues --    0.18636   0.19349   0.20385   0.23205   0.23542

 Mulliken charges:
               1
     1  P    0.583824
     2  O   -0.319021
     3  P    0.580080
     4  O   -0.516094
     5  H    0.075463
     6  H    0.083622
     7  H    0.037916
     8  H    0.061172
     9  O   -0.586962
 Sum of Mulliken charges =  -0.00000

 Dipole moment (field-independent basis, Debye):
    X=              0.3315    Y=             -5.4132    Z=             -2.4301  Tot=              5.9430
 Quadrupole moment (field-independent basis, Debye-Ang):
   XX=            -42.6802   YY=            -47.2475   ZZ=            -40.7313
   XY=             -2.0101   XZ=              9.4537   YZ=              0.1857

 Normal termination of Gaussian 16 at Fri Sep 22 16:52:08 2023.
