 Gaussian 16, Revision A.03,
 Gaussian 16:  ES64L-G16RevA.03 25-Dec-2016

 -----------------------------------------
 # scrf=(cpcm,solvent=water) def2tzvp olyp
 -----------------------------------------

 -------------------
 tmpdir/M2_ref_0.gjf
 -------------------
 Symbolic Z-matrix:
 Charge =  1 Multiplicity = 1

                         Standard orientation:
 ---------------------------------------------------------------------
 Center     Atomic      Atomic             Coordinates (Angstroms)
 Number     Number       Type             X           Y           Z
 ---------------------------------------------------------------------
      1         12           0        0.031009   -0.857029    0.000000
      2          8           0        0.031009    1.083941   -0.000000
      3          1           0       -0.620180    1.612830   -0.000000
 ---------------------------------------------------------------------

 SCF Done:  E(RO-LYP) =  -275.856472877     A.U. after   10 cycles

 The electronic state is 1-A'.
 Alpha  occ. eigenvalues --  -46.27320 -18.67926  -2.98641  -1.76944  -1.76913
 Alpha  occ. eigenvalues --   -1.76531  -0.85382  -0.37717  -0.22623  -0.21139
 Alpha virt. eigenvalues --   -0.08303   0.02178   0.02577   0.03041   0.10383
 Alpha virt. eigenvalues --    0.11678   0.14607   0.14658   0.16240   0.16245
 Alpha virt. eigenvalues --    0.21154   0.27881   0.27923   0.35476   0.46152

 Mulliken charges:
               1
     1  Mg   1.583607
     2  O   -0.842021
     3  H    0.258414
 Sum of Mulliken charges =   1.00000

 Dipole moment (field-independent basis, Debye):
    X=             -0.8912    Y=            -10.4059    Z=              0.0000  Tot=             10.4440
 Quadrupole moment (field-independent basis, Debye-Ang):
   XX=             -9.8920   YY=             -3.6647   ZZ=            -11.2963
   XY=             -2.8204   XZ=              0.0000   YZ=             -0.0000

 Normal termination of Gaussian 16 at Fri Sep 22 16:51:34 2023.
