 Gaussian 16, Revision A.03,
 Gaussian 16:  ES64L-G16RevA.03 25-Dec-2016

 -----------------------------------------
 # scrf=(cpcm,solvent=water) def2tzvp olyp
 -----------------------------------------

 --------------------
 tmpdir/M2_ref_40.gjf
 --------------------
 Symbolic Z-matrix:
 Charge =  0 Multiplicity = 1

                         Standard orientation:
 ---------------------------------------------------------------------
 Center     Atomic      Atomic             Coordinates (Angstroms)
 Number     Number       Type             X           Y           Z
 ---------------------------------------------------------------------
      1          8           0       -0.000000    0.097798   -0.000000
      2          1           0        0.770493   -0.495070    0.000000
      3          1           0       -0.770493   -0.287312    0.000000
 ---------------------------------------------------------------------

 SCF Done:  E(RO-LYP) =  -76.4303149604     A.U. after   10 cycles

 The electronic state is 1-A'.
 Alpha  occ. eigenvalues --  -18.74501  -0.94165  -0.51065  -0.31868  -0.25931
 Alpha virt. eigenvalues --    0.00626   0.08217   0.34377   0.37318   0.39616
 Alpha virt. eigenvalues --    0.40933   0.55181   0.58279   1.12378   1.19355
 Alpha virt. eigenvalues --    1.27734   1.43464   1.51814   1.67936   1.88740

 Mulliken charges:
               1
     1  O   -0.656219
     2  H    0.350227
     3  H    0.305992
 Sum of Mulliken charges =   0.00000

 Dipole moment (field-independent basis, Debye):
    X=             -0.0660    Y=             -1.9891    Z=              0.0000  Tot=              1.9902
 Quadrupole moment (field-independent basis, Debye-Ang):
   XX=             -3.9648   YY=             -6.4909   ZZ=             -7.4721
   XY=             -0.3933   XZ=              0.0000   YZ=              0.0000

 Normal termination of Gaussian 16 at Fri Sep 22 16:52:50 2023.
