 Gaussian 16, Revision A.03,
 Gaussian 16:  ES64L-G16RevA.03 25-Dec-2016

 -----------------------------------------
 # scrf=(cpcm,solvent=water) def2tzvp olyp
 -----------------------------------------

 --------------------
 tmpdir/M2_ref_14.gjf
 --------------------
 Symbolic Z-matrix:
 Charge =  0 Multiplicity = 1

                         Standard orientation:
 ---------------------------------------------------------------------
 Center     Atomic      Atomic             Coordinates (Angstroms)
 Number     Number       Type             X           Y           Z
 ---------------------------------------------------------------------
      1          8           0       -1.308197   -0.287013   -0.017570
      2         15           0        0.105889    0.383438   -0.004323
      3          1           0       -1.483892   -1.218245    0.067998
      4          1           0        0.123437    1.149315    1.158426
      5          1           0        0.205280    1.254315   -1.011950
      6          8           0        1.254053   -0.580107   -0.001134
 ---------------------------------------------------------------------

 SCF Done:  E(RO-LYP) =  -493.689935516     A.U. after   11 cycles

 The electronic state is 1-A.
 Alpha  occ. eigenvalues --  -76.37022 -18.80071 -18.71567  -6.40093  -4.61151
 Alpha  occ. eigenvalues --   -4.60854  -4.60821  -0.98709  -0.87442  -0.61014
 Alpha  occ. eigenvalues --   -0.47868  -0.41957  -0.38834  -0.32122  -0.30497
 Alpha  occ. eigenvalues --   -0.25194  -0.23787
 Alpha virt. eigenvalues --   -0.01055   0.01001   0.03723   0.05340   0.08443
 Alpha virt. eigenvalues --    0.16750   0.20482   0.22766   0.24569   0.28077
 Alpha virt. eigenvalues --    0.30854   0.31846   0.36466   0.40047   0.43080

 Mulliken charges:
               1
     1  O   -0.439801
     2  P    0.596467
     3  H    0.355343
     4  H    0.029513
     5  H    0.054801
     6  O   -0.596324
 Sum of Mulliken charges =  -0.00000

 Dipole moment (field-independent basis, Debye):
    X=             -3.4303    Y=              1.3327    Z=             -0.0027  Tot=              3.6801
 Quadrupole moment (field-independent basis, Debye-Ang):
   XX=            -29.1104   YY=            -21.1695   ZZ=            -23.8315
   XY=              5.6205   XZ=             -0.3243   YZ=             -0.4882

 Normal termination of Gaussian 16 at Fri Sep 22 16:52:19 2023.
