 Gaussian 16, Revision A.03,
 Gaussian 16:  ES64L-G16RevA.03 25-Dec-2016

 -----------------------------------------
 # scrf=(cpcm,solvent=water) def2tzvp olyp
 -----------------------------------------

 --------------------
 tmpdir/M2_ref_36.gjf
 --------------------
 Symbolic Z-matrix:
 Charge =  0 Multiplicity = 1

                         Standard orientation:
 ---------------------------------------------------------------------
 Center     Atomic      Atomic             Coordinates (Angstroms)
 Number     Number       Type             X           Y           Z
 ---------------------------------------------------------------------
      1          8           0       -1.289965   -0.536877   -0.024614
      2         15           0       -0.096189    0.365837    0.019004
      3          8           0        1.305945   -0.313197   -0.110235
      4          1           0       -0.039409    1.055205    1.223186
      5          1           0       -0.152161    1.258376   -0.976844
      6          1           0        1.506562   -1.000542    0.547382
 ---------------------------------------------------------------------

 SCF Done:  E(RO-LYP) =  -493.695037492     A.U. after   11 cycles

 The electronic state is 1-A.
 Alpha  occ. eigenvalues --  -76.36666 -18.80697 -18.71701  -6.39819  -4.60864
 Alpha  occ. eigenvalues --   -4.60600  -4.60530  -0.99105  -0.87609  -0.59816
 Alpha  occ. eigenvalues --   -0.47833  -0.42322  -0.38334  -0.33598  -0.30445
 Alpha  occ. eigenvalues --   -0.25464  -0.23917
 Alpha virt. eigenvalues --   -0.01016   0.01458   0.03862   0.05595   0.07839
 Alpha virt. eigenvalues --    0.16723   0.21544   0.22045   0.23299   0.26735
 Alpha virt. eigenvalues --    0.30499   0.33976   0.36230   0.38088   0.42449

 Mulliken charges:
               1
     1  O   -0.586748
     2  P    0.573740
     3  O   -0.422962
     4  H    0.023917
     5  H    0.055301
     6  H    0.356751
 Sum of Mulliken charges =  -0.00000

 Dipole moment (field-independent basis, Debye):
    X=              3.6270    Y=              1.6748    Z=              1.3086  Tot=              4.2039
 Quadrupole moment (field-independent basis, Debye-Ang):
   XX=            -29.1573   YY=            -22.4040   ZZ=            -23.0030
   XY=             -4.6830   XZ=              2.1461   YZ=             -1.7903

 Normal termination of Gaussian 16 at Fri Sep 22 16:52:43 2023.
