 Gaussian 16, Revision A.03,
 Gaussian 16:  ES64L-G16RevA.03 25-Dec-2016

 -----------------------------------------
 # scrf=(cpcm,solvent=water) def2tzvp olyp
 -----------------------------------------

 -------------------
 tmpdir/M2_ref_8.gjf
 -------------------
 Symbolic Z-matrix:
 Charge =  0 Multiplicity = 1

                         Standard orientation:
 ---------------------------------------------------------------------
 Center     Atomic      Atomic             Coordinates (Angstroms)
 Number     Number       Type             X           Y           Z
 ---------------------------------------------------------------------
      1          8           0       -1.033068   -1.049012   -0.131489
      2         15           0        0.015993    0.098849    0.184075
      3          8           0        1.371917   -0.458921   -0.226195
      4          1           0       -2.014475   -0.861833   -0.157300
      5          8           0       -0.389865    1.471939   -0.198351
      6          1           0        0.011767    0.036578    1.661740
      7          1           0        2.170944   -0.369525    0.182705
 ---------------------------------------------------------------------

 SCF Done:  E(RO-LYP) =  -568.966912515     A.U. after   11 cycles

 The electronic state is 1-A.
 Alpha  occ. eigenvalues --  -76.39860 -18.81022 -18.80211 -18.72366  -6.42224
 Alpha  occ. eigenvalues --   -4.63239  -4.63223  -4.62895  -1.02342  -0.96553
 Alpha  occ. eigenvalues --   -0.88223  -0.62930  -0.52465  -0.45700  -0.39600
 Alpha  occ. eigenvalues --   -0.37115  -0.34310  -0.33077  -0.29106  -0.25769
 Alpha  occ. eigenvalues --   -0.24969
 Alpha virt. eigenvalues --   -0.01262   0.01782   0.04919   0.06735   0.08071
 Alpha virt. eigenvalues --    0.10669   0.18022   0.20727   0.24784   0.25856
 Alpha virt. eigenvalues --    0.31707   0.34172   0.34715   0.35671   0.37972

 Mulliken charges:
               1
     1  O   -0.443757
     2  P    0.699295
     3  O   -0.372525
     4  H    0.365541
     5  O   -0.554814
     6  H   -0.038820
     7  H    0.345081
 Sum of Mulliken charges =  -0.00000

 Dipole moment (field-independent basis, Debye):
    X=              1.1518    Y=             -2.9894    Z=              1.6364  Tot=              3.5974
 Quadrupole moment (field-independent basis, Debye-Ang):
   XX=            -17.4488   YY=            -37.8263   ZZ=            -30.1700
   XY=              2.3860   XZ=              1.8359   YZ=              0.5422

 Normal termination of Gaussian 16 at Fri Sep 22 16:52:10 2023.
