 Gaussian 16, Revision A.03,
 Gaussian 16:  ES64L-G16RevA.03 25-Dec-2016

 -----------------------------
 #b3lyp/6-31g(d) nosymm em=gd3
 -----------------------------

 -------------------
 tmpdir/Subs_0_0.gjf
 -------------------
 Symbolic Z-matrix:
 Charge =  0 Multiplicity = 1

                          Input orientation:
 ---------------------------------------------------------------------
 Center     Atomic      Atomic             Coordinates (Angstroms)
 Number     Number       Type             X           Y           Z
 ---------------------------------------------------------------------
      1          6           0        2.815363   -1.449917    1.203873
      2          6           0        1.193882    1.210024   -0.323396
      3          6           0        0.878727   -0.245571   -0.153391
      4          6           0        1.519588   -1.314724    0.454338
      5          7           0       -0.257727   -0.801049   -0.676947
      6          7           0       -0.317094   -2.120182   -0.417583
      7          7           0        0.754488   -2.432603    0.257598
      8          6           0       -1.377644   -0.165498   -1.372512
      9          1           0       -1.061621    0.847511   -1.631702
     10          1           0       -1.537470   -0.716934   -2.303111
     11          6           0       -2.651853   -0.135942   -0.550793
     12          6           0       -2.678223    0.483020    0.705822
     13          6           0       -3.819746   -0.714363   -1.054375
     14          6           0       -3.861294    0.519854    1.442015
     15          1           0       -1.767989    0.925011    1.098701
     16          6           0       -5.006464   -0.671098   -0.319192
     17          1           0       -3.801067   -1.208941   -2.022781
     18          6           0       -5.029264   -0.053735    0.931290
     19          1           0       -3.872460    0.997511    2.418360
     20          1           0       -5.907358   -1.127296   -0.720755
     21          1           0       -5.949818   -0.023428    1.508189
     22          1           0        3.737327   -1.428085    0.569113
     23          1           0        2.759673   -2.423746    1.701153
     24          1           0        2.891963   -0.699661    2.000401
     25          1           0        2.226086    1.481588   -0.022833
     26          1           0        1.072605    1.468603   -1.391131
     27          1           0        0.391242    1.812233    0.295391
 ---------------------------------------------------------------------

 SCF Done:  E(RB3LYP) =  -591.241444598     A.U. after   15 cycles

 Alpha  occ. eigenvalues --  -14.41142 -14.36804 -14.33233 -10.24483 -10.22836
 Alpha  occ. eigenvalues --  -10.22005 -10.20571 -10.20278 -10.19652 -10.19586
 Alpha  occ. eigenvalues --  -10.19555 -10.19494 -10.19443 -10.18401  -1.07954
 Alpha  occ. eigenvalues --   -0.90784  -0.85808  -0.81602  -0.77829  -0.74959
 Alpha  occ. eigenvalues --   -0.73343  -0.70592  -0.68845  -0.61503  -0.60527
 Alpha  occ. eigenvalues --   -0.58248  -0.56584  -0.52267  -0.50259  -0.48087
 Alpha  occ. eigenvalues --   -0.46442  -0.45747  -0.44294  -0.42837  -0.42507
 Alpha  occ. eigenvalues --   -0.42249  -0.41348  -0.40847  -0.39933  -0.39156
 Alpha  occ. eigenvalues --   -0.37382  -0.36327  -0.35255  -0.34726  -0.31020
 Alpha  occ. eigenvalues --   -0.27303  -0.25600  -0.25388  -0.24619  -0.23191
 Alpha virt. eigenvalues --   -0.01162  -0.00480   0.00503   0.05963   0.06621
 Alpha virt. eigenvalues --    0.09389   0.10884   0.11779   0.12394   0.13209
 Alpha virt. eigenvalues --    0.14377   0.15482   0.15693   0.16445   0.17556

 Mulliken charges:
               1
     1  C   -0.525049
     2  C   -0.529192
     3  C    0.314767
     4  C    0.197734
     5  N   -0.287142
     6  N   -0.080670
     7  N   -0.321277
     8  C   -0.246297
     9  H    0.170777
    10  H    0.183757
    11  C    0.187294
    12  C   -0.169179
    13  C   -0.178751
    14  C   -0.129245
    15  H    0.131025
    16  C   -0.126769
    17  H    0.132782
    18  C   -0.126062
    19  H    0.133592
    20  H    0.134835
    21  H    0.133822
    22  H    0.156508
    23  H    0.184634
    24  H    0.152298
    25  H    0.179054
    26  H    0.171824
    27  H    0.154931
 Sum of Mulliken charges =  -0.00000

 Dipole moment (field-independent basis, Debye):
    X=             -0.3598    Y=              4.4241    Z=             -0.7273  Tot=              4.4979
 Quadrupole moment (field-independent basis, Debye-Ang):
   XX=            -71.1120   YY=            -94.8920   ZZ=            -76.8299
   XY=              2.0672   XZ=              0.9873   YZ=              1.8114

 Normal termination of Gaussian 16 at Thu Mar  7 11:43:33 2024.
