 Gaussian 16, Revision A.03,
 Gaussian 16:  ES64L-G16RevA.03 25-Dec-2016

 ------------------------
 #p b3lyp/6-31g(d) em=gd3
 ------------------------

 -------------------
 tmpdir/Subs_0_0.gjf
 -------------------
 Symbolic Z-matrix:
 Charge =  0 Multiplicity = 1

                         Standard orientation:
 ---------------------------------------------------------------------
 Center     Atomic      Atomic             Coordinates (Angstroms)
 Number     Number       Type             X           Y           Z
 ---------------------------------------------------------------------
      1          6           0        3.801952    0.407883    1.351129
      2          6           0        1.129452    2.045973    0.159460
      3          6           0        1.632328    0.660136   -0.071213
      4          6           0        2.728072   -0.035605    0.408187
      5          7           0        1.006681   -0.239406   -0.882112
      6          7           0        1.663185   -1.424861   -0.893637
      7          7           0        2.704473   -1.297129   -0.118268
      8          6           0       -0.259524   -0.101011   -1.586532
      9          1           0       -0.239533    0.822882   -2.174512
     10          1           0       -0.296243   -0.942731   -2.284379
     11          6           0       -1.449678   -0.113638   -0.645423
     12          6           0       -2.440578    0.868099   -0.731230
     13          6           0       -1.564397   -1.122957    0.319236
     14          6           0       -3.541195    0.840139    0.129102
     15          1           0       -2.352681    1.658975   -1.473245
     16          6           0       -2.659906   -1.149094    1.180345
     17          1           0       -0.786764   -1.879010    0.391929
     18          6           0       -3.652024   -0.168304    1.086588
     19          1           0       -4.305428    1.609034    0.053910
     20          1           0       -2.740533   -1.935361    1.926056
     21          1           0       -4.504974   -0.189795    1.759460
     22          1           0        3.944794    1.493162    1.314715
     23          1           0        4.750176   -0.072815    1.092785
     24          1           0        3.566886    0.137527    2.388460
     25          1           0        1.814171    2.590127    0.815178
     26          1           0        1.044407    2.608964   -0.778933
     27          1           0        0.138339    2.039101    0.628810
 ---------------------------------------------------------------------

 SCF Done:  E(RB3LYP) =  -591.254016294     A.U. after   15 cycles

 The electronic state is 1-A.
 Alpha  occ. eigenvalues --  -14.41092 -14.37253 -14.33388 -10.24382 -10.22520
 Alpha  occ. eigenvalues --  -10.20812 -10.20353 -10.20267 -10.20063 -10.19912
 Alpha  occ. eigenvalues --  -10.19788 -10.19733 -10.19514 -10.18316  -1.07941
 Alpha  occ. eigenvalues --   -0.91065  -0.86046  -0.81742  -0.77949  -0.75212
 Alpha  occ. eigenvalues --   -0.73575  -0.70686  -0.69299  -0.61511  -0.60589
 Alpha  occ. eigenvalues --   -0.58903  -0.56711  -0.52565  -0.50401  -0.47986
 Alpha  occ. eigenvalues --   -0.46189  -0.45800  -0.44206  -0.43080  -0.42745
 Alpha  occ. eigenvalues --   -0.42358  -0.41697  -0.40847  -0.39682  -0.39458
 Alpha  occ. eigenvalues --   -0.38388  -0.36471  -0.35590  -0.34958  -0.31299
 Alpha  occ. eigenvalues --   -0.27476  -0.25856  -0.25356  -0.25110  -0.23367
 Alpha virt. eigenvalues --   -0.01469  -0.00922   0.01026   0.06015   0.07919
 Alpha virt. eigenvalues --    0.09246   0.10776   0.12180   0.13401   0.14376
 Alpha virt. eigenvalues --    0.14697   0.15510   0.15696   0.16681   0.17635

 Mulliken charges:
               1
     1  C   -0.521454
     2  C   -0.535896
     3  C    0.323365
     4  C    0.206357
     5  N   -0.291592
     6  N   -0.093689
     7  N   -0.332082
     8  C   -0.233718
     9  H    0.164143
    10  H    0.200145
    11  C    0.150136
    12  C   -0.189264
    13  C   -0.170865
    14  C   -0.128442
    15  H    0.126210
    16  C   -0.130564
    17  H    0.162442
    18  C   -0.127384
    19  H    0.133792
    20  H    0.138209
    21  H    0.134270
    22  H    0.149871
    23  H    0.177480
    24  H    0.166365
    25  H    0.172282
    26  H    0.164846
    27  H    0.185038
 Sum of Mulliken charges =  -0.00000

 Dipole moment (field-independent basis, Debye):
    X=             -2.6652    Y=              3.8173    Z=              0.4744  Tot=              4.6798
 Quadrupole moment (field-independent basis, Debye-Ang):
   XX=            -82.7370   YY=            -83.5637   ZZ=            -78.5009
   XY=              7.3695   XZ=              1.6912   YZ=             -3.9887

 Normal termination of Gaussian 16 at Thu Mar  7 14:29:23 2024.
