 Gaussian 16, Revision A.03,
 Gaussian 16:  ES64L-G16RevA.03 25-Dec-2016

 ------------------------------------------
 #p b3lyp/6-31g(d) geom=connectivity em=gd3
 ------------------------------------------

 -----
 title
 -----
 Symbolic Z-matrix:
 Charge =  0 Multiplicity = 1

                         Standard orientation:
 ---------------------------------------------------------------------
 Center     Atomic      Atomic             Coordinates (Angstroms)
 Number     Number       Type             X           Y           Z
 ---------------------------------------------------------------------
      1          7           0        5.893155    2.234002   -0.787780
      2          7           0        5.531963    2.387654    0.383710
      3          7           0        5.121062    2.611074    1.426139
      4          6           0        6.931108    1.177048   -0.989589
      5          1           0        7.092051    1.165338   -2.069343
      6          1           0        7.868691    1.493087   -0.513219
      7          6           0        6.503640   -0.180468   -0.482897
      8          6           0        5.649691   -0.985628   -1.247907
      9          6           0        6.904200   -0.623713    0.782693
     10          6           0        5.211283   -2.215181   -0.759438
     11          1           0        5.326347   -0.641184   -2.227372
     12          6           0        6.465594   -1.854600    1.274933
     13          1           0        7.565543   -0.004236    1.384459
     14          6           0        5.619059   -2.652188    0.504141
     15          1           0        4.552759   -2.833711   -1.363254
     16          1           0        6.785807   -2.188841    2.257968
     17          1           0        5.278096   -3.611182    0.884653
     18          6           0      -14.000063    0.604438    0.000003
     19          6           0      -13.999677   -0.604450    0.000119
     20          6           0      -14.000091   -2.065989   -0.000029
     21          1           0      -14.610431   -2.465688    0.819494
     22          1           0      -14.404886   -2.465447   -0.938400
     23          1           0      -12.985334   -2.466138    0.118579
     24          6           0      -14.000041    2.065992   -0.000011
     25          1           0      -14.469156    2.465725   -0.907841
     26          1           0      -14.551633    2.465814    0.860125
     27          1           0      -12.979330    2.465792    0.047552
 ---------------------------------------------------------------------

 SCF Done:  E(RB3LYP) =  -591.137953715     A.U. after   15 cycles

 The electronic state is 1-A.
 Alpha  occ. eigenvalues --  -14.50867 -14.40388 -14.37912 -10.24312 -10.20629
 Alpha  occ. eigenvalues --  -10.19964 -10.19870 -10.19861 -10.19860 -10.19838
 Alpha  occ. eigenvalues --  -10.19801 -10.19770 -10.16905 -10.16672  -1.13551
 Alpha  occ. eigenvalues --   -0.97701  -0.86366  -0.78705  -0.77444  -0.75237
 Alpha  occ. eigenvalues --   -0.73853  -0.71426  -0.65950  -0.61487  -0.60411
 Alpha  occ. eigenvalues --   -0.54218  -0.52046  -0.51358  -0.49891  -0.47487
 Alpha  occ. eigenvalues --   -0.46644  -0.46338  -0.44331  -0.42854  -0.42773
 Alpha  occ. eigenvalues --   -0.42534  -0.42533  -0.42208  -0.41377  -0.41376
 Alpha  occ. eigenvalues --   -0.40714  -0.37081  -0.35865  -0.34975  -0.30198
 Alpha  occ. eigenvalues --   -0.26085  -0.25779  -0.24718  -0.24029  -0.24028
 Alpha virt. eigenvalues --   -0.02949  -0.01053  -0.00769   0.01628   0.06862
 Alpha virt. eigenvalues --    0.06863   0.08720   0.11428   0.11620   0.11789
 Alpha virt. eigenvalues --    0.12352   0.14490   0.15779   0.16122   0.16994

 Mulliken charges:
               1
     1  N   -0.362478
     2  N    0.417477
     3  N   -0.266787
     4  C   -0.238219
     5  H    0.177466
     6  H    0.165261
     7  C    0.155633
     8  C   -0.165912
     9  C   -0.178025
    10  C   -0.128159
    11  H    0.136054
    12  C   -0.125538
    13  H    0.132029
    14  C   -0.126463
    15  H    0.135890
    16  H    0.136416
    17  H    0.135357
    18  C    0.047908
    19  C    0.047770
    20  C   -0.574645
    21  H    0.175563
    22  H    0.175517
    23  H    0.175594
    24  C   -0.574671
    25  H    0.175558
    26  H    0.175615
    27  H    0.175791
 Sum of Mulliken charges =  -0.00000

 Dipole moment (field-independent basis, Debye):
    X=              1.3092    Y=             -1.9657    Z=             -0.6729  Tot=              2.4558
 Quadrupole moment (field-independent basis, Debye-Ang):
   XX=            -66.2907   YY=            -78.1575   ZZ=            -81.5951
   XY=             -6.6036   XZ=             -1.3711   YZ=             -2.3677

 Normal termination of Gaussian 16 at Thu Jun 27 10:17:47 2024.
