 Gaussian 16, Revision A.03,
 Gaussian 16:  ES64L-G16RevA.03 25-Dec-2016

 ------------------------------------------------------
 # b3lyp/6-31+g(d,p) scrf=(iefpcm,solvent=acetonitrile)
 ------------------------------------------------------

 ----------------------
 tmpdir/M1_conf_0_9.gjf
 ----------------------
 Symbolic Z-matrix:
 Charge =  0 Multiplicity = 1

                         Standard orientation:
 ---------------------------------------------------------------------
 Center     Atomic      Atomic             Coordinates (Angstroms)
 Number     Number       Type             X           Y           Z
 ---------------------------------------------------------------------
      1          6           0        0.030509    0.006797   -0.009754
      2          1           0       -0.131313   -0.709052    0.802070
      3          1           0       -0.211234    1.006535    0.359005
      4          1           0        1.041242   -0.093607   -0.410419
      5          1           0       -0.881749   -0.244661   -0.692132
 ---------------------------------------------------------------------

 SCF Done:  E(RB3LYP) =  -40.5191193730     A.U. after    8 cycles

 The electronic state is 1-A.
 Alpha  occ. eigenvalues --  -10.17945  -0.69131  -0.41048  -0.39234  -0.36613
 Alpha virt. eigenvalues --    0.01554   0.06032   0.06200   0.06391   0.15243
 Alpha virt. eigenvalues --    0.18174   0.19208   0.27145   0.63707   0.63841
 Alpha virt. eigenvalues --    0.65049   0.86891   0.90818   0.93090   1.04677

 Mulliken charges:
               1
     1  C   -0.623436
     2  H    0.156539
     3  H    0.159067
     4  H    0.163790
     5  H    0.144040
 Sum of Mulliken charges =  -0.00000

 Dipole moment (field-independent basis, Debye):
    X=             -0.0547    Y=             -0.0127    Z=              0.1098  Tot=              0.1233
 Quadrupole moment (field-independent basis, Debye-Ang):
   XX=             -8.1218   YY=             -8.6126   ZZ=             -8.9882
   XY=             -0.0498   XZ=             -0.1516   YZ=             -0.0212

 Normal termination of Gaussian 16 at Fri Sep 22 16:59:22 2023.
