 Gaussian 16, Revision A.03,
 Gaussian 16:  ES64L-G16RevA.03 25-Dec-2016

 ------------------------------------------------------
 # b3lyp/6-31+g(d,p) scrf=(iefpcm,solvent=acetonitrile)
 ------------------------------------------------------

 ----------------------
 tmpdir/M1_conf_0_6.gjf
 ----------------------
 Symbolic Z-matrix:
 Charge =  0 Multiplicity = 1

                         Standard orientation:
 ---------------------------------------------------------------------
 Center     Atomic      Atomic             Coordinates (Angstroms)
 Number     Number       Type             X           Y           Z
 ---------------------------------------------------------------------
      1          6           0        0.542223   -0.000641   -0.002605
      2          8           0       -0.689218    0.000437    0.000631
      3          1           0        1.132453    0.912855    0.005282
      4          1           0        1.127956   -0.912507    0.005297
 ---------------------------------------------------------------------

 SCF Done:  E(RB3LYP) =  -114.516297652     A.U. after    9 cycles

 The electronic state is 1-A.
 Alpha  occ. eigenvalues --  -19.18762 -10.29638  -1.06347  -0.65055  -0.50056
 Alpha  occ. eigenvalues --   -0.46451  -0.40580  -0.28386
 Alpha virt. eigenvalues --   -0.06582   0.02077   0.03987   0.05292   0.07295
 Alpha virt. eigenvalues --    0.17082   0.18963   0.20569   0.21376   0.25643
 Alpha virt. eigenvalues --    0.25952   0.35630   0.63059   0.66362   0.71629

 Mulliken charges:
               1
     1  C    0.115322
     2  O   -0.403063
     3  H    0.143622
     4  H    0.144119
 Sum of Mulliken charges =  -0.00000

 Dipole moment (field-independent basis, Debye):
    X=              3.2353    Y=             -0.0059    Z=              0.0016  Tot=              3.2354
 Quadrupole moment (field-independent basis, Debye-Ang):
   XX=            -12.1916   YY=            -11.6581   ZZ=            -11.7655
   XY=             -0.0014   XZ=              0.0064   YZ=              0.0000

 Normal termination of Gaussian 16 at Fri Sep 22 16:59:19 2023.
