 Gaussian 16, Revision A.03,
 Gaussian 16:  ES64L-G16RevA.03 25-Dec-2016

 ------------------------------------------------------
 # b3lyp/6-31+g(d,p) scrf=(iefpcm,solvent=acetonitrile)
 ------------------------------------------------------

 ----------------------
 tmpdir/M1_conf_0_8.gjf
 ----------------------
 Symbolic Z-matrix:
 Charge =  0 Multiplicity = 1

                         Standard orientation:
 ---------------------------------------------------------------------
 Center     Atomic      Atomic             Coordinates (Angstroms)
 Number     Number       Type             X           Y           Z
 ---------------------------------------------------------------------
      1          6           0        0.005873    0.003501   -0.001229
      2          1           0       -0.268783   -0.778468   -0.716355
      3          1           0       -0.347180   -0.310763    0.985920
      4          1           0       -0.507961    0.927079   -0.272592
      5          1           0        1.088687    0.141148    0.010402
 ---------------------------------------------------------------------

 SCF Done:  E(RB3LYP) =  -40.5261424731     A.U. after    7 cycles

 The electronic state is 1-A.
 Alpha  occ. eigenvalues --  -10.17147  -0.69505  -0.39682  -0.39205  -0.38944
 Alpha virt. eigenvalues --    0.01707   0.06196   0.06233   0.06253   0.18019
 Alpha virt. eigenvalues --    0.18210   0.18536   0.27889   0.63810   0.63883
 Alpha virt. eigenvalues --    0.63950   0.90643   0.91022   0.91725   1.05218

 Mulliken charges:
               1
     1  C   -0.623690
     2  H    0.155173
     3  H    0.155076
     4  H    0.156290
     5  H    0.157151
 Sum of Mulliken charges =  -0.00000

 Dipole moment (field-independent basis, Debye):
    X=             -0.0242    Y=             -0.0117    Z=              0.0049  Tot=              0.0273
 Quadrupole moment (field-independent basis, Debye-Ang):
   XX=             -8.4143   YY=             -8.5218   ZZ=             -8.5725
   XY=             -0.0034   XZ=              0.0025   YZ=             -0.0035

 Normal termination of Gaussian 16 at Fri Sep 22 16:59:20 2023.
