 Gaussian 16, Revision A.03,
 Gaussian 16:  ES64L-G16RevA.03 25-Dec-2016

 ------------------------------------------------------
 # b3lyp/6-31+g(d,p) scrf=(iefpcm,solvent=acetonitrile)
 ------------------------------------------------------

 ----------------------
 tmpdir/M1_conf_0_1.gjf
 ----------------------
 Symbolic Z-matrix:
 Charge =  0 Multiplicity = 1

                         Standard orientation:
 ---------------------------------------------------------------------
 Center     Atomic      Atomic             Coordinates (Angstroms)
 Number     Number       Type             X           Y           Z
 ---------------------------------------------------------------------
      1         16           0        0.418623   -0.012765   -0.120048
      2          8           0       -1.074390    0.004272    0.063059
      3          1           0        0.967237   -0.962706    0.778350
      4          1           0        0.929910    1.132780    0.637941
 ---------------------------------------------------------------------

 SCF Done:  E(RB3LYP) =  -474.554440880     A.U. after   10 cycles

 The electronic state is 1-A.
 Alpha  occ. eigenvalues --  -89.01455 -19.14131  -8.06231  -6.02660  -6.02491
 Alpha  occ. eigenvalues --   -6.01962  -1.03522  -0.72209  -0.49087  -0.45799
 Alpha  occ. eigenvalues --   -0.40765  -0.30070  -0.26177
 Alpha virt. eigenvalues --   -0.02911  -0.01025   0.00186   0.05080   0.05438
 Alpha virt. eigenvalues --    0.09092   0.12918   0.18449   0.19240   0.19811
 Alpha virt. eigenvalues --    0.27247   0.42597   0.46209   0.49007   0.59647

 Mulliken charges:
               1
     1  S    0.601035
     2  O   -0.760659
     3  H    0.079903
     4  H    0.079721
 Sum of Mulliken charges =  -0.00000

 Dipole moment (field-independent basis, Debye):
    X=              4.8145    Y=              0.0195    Z=              0.7372  Tot=              4.8706
 Quadrupole moment (field-independent basis, Debye-Ang):
   XX=            -22.2703   YY=            -17.5258   ZZ=            -19.6420
   XY=              0.0209   XZ=              1.4239   YZ=             -0.1416

 Normal termination of Gaussian 16 at Fri Sep 22 16:59:17 2023.
