 Gaussian 16, Revision A.03,
 Gaussian 16:  ES64L-G16RevA.03 25-Dec-2016

 ------------------------------------------------------
 # b3lyp/6-31+g(d,p) scrf=(iefpcm,solvent=acetonitrile)
 ------------------------------------------------------

 -----------------------
 tmpdir/M1_conf_0_10.gjf
 -----------------------
 Symbolic Z-matrix:
 Charge =  0 Multiplicity = 1

                         Standard orientation:
 ---------------------------------------------------------------------
 Center     Atomic      Atomic             Coordinates (Angstroms)
 Number     Number       Type             X           Y           Z
 ---------------------------------------------------------------------
      1         16           0        0.002051    0.306356   -0.006122
      2          8           0       -1.272001   -0.453230   -0.000489
      3          8           0        1.279593   -0.441153    0.008576
      4          1           0       -0.087116    1.136009    1.144604
      5          1           0       -0.006434    1.117355   -1.111355
 ---------------------------------------------------------------------

 SCF Done:  E(RB3LYP) =  -549.760755755     A.U. after   11 cycles

 The electronic state is 1-A.
 Alpha  occ. eigenvalues --  -89.12793 -19.17965 -19.17324  -8.15852  -6.12270
 Alpha  occ. eigenvalues --   -6.12214  -6.12139  -1.12326  -1.02260  -0.72624
 Alpha  occ. eigenvalues --   -0.57237  -0.51116  -0.47708  -0.36139  -0.34963
 Alpha  occ. eigenvalues --   -0.33367  -0.32458
 Alpha virt. eigenvalues --   -0.03426  -0.00108   0.00641   0.01721   0.06456
 Alpha virt. eigenvalues --    0.09174   0.09691   0.10320   0.15728   0.17910
 Alpha virt. eigenvalues --    0.18556   0.21269   0.21461   0.24834   0.25167

 Mulliken charges:
               1
     1  S    1.049873
     2  O   -0.647693
     3  O   -0.623792
     4  H    0.109524
     5  H    0.112087
 Sum of Mulliken charges =  -0.00000

 Dipole moment (field-independent basis, Debye):
    X=              0.0588    Y=              5.1600    Z=             -0.0873  Tot=              5.1611
 Quadrupole moment (field-independent basis, Debye-Ang):
   XX=            -33.1860   YY=            -22.8355   ZZ=            -21.5372
   XY=             -0.2089   XZ=             -0.1400   YZ=             -0.0317

 Normal termination of Gaussian 16 at Fri Sep 22 16:59:24 2023.
