 Gaussian 16, Revision A.03,
 Gaussian 16:  ES64L-G16RevA.03 25-Dec-2016

 ------------------------------------------------------
 # b3lyp/6-31+g(d,p) scrf=(iefpcm,solvent=acetonitrile)
 ------------------------------------------------------

 ----------------------
 tmpdir/M1_conf_0_3.gjf
 ----------------------
 Symbolic Z-matrix:
 Charge =  0 Multiplicity = 1

                         Standard orientation:
 ---------------------------------------------------------------------
 Center     Atomic      Atomic             Coordinates (Angstroms)
 Number     Number       Type             X           Y           Z
 ---------------------------------------------------------------------
      1          6           0       -0.009722    0.000652   -0.003277
      2          1           0        0.403111   -0.830931   -0.582746
      3          1           0        0.376366    0.938157   -0.412960
      4          1           0        0.377599   -0.094968    1.019936
      5          1           0       -1.098742   -0.016169   -0.004566
 ---------------------------------------------------------------------

 SCF Done:  E(RB3LYP) =  -40.5259517672     A.U. after    7 cycles

 The electronic state is 1-A.
 Alpha  occ. eigenvalues --  -10.17185  -0.69485  -0.39881  -0.39139  -0.38767
 Alpha virt. eigenvalues --    0.01701   0.06179   0.06237   0.06265   0.17850
 Alpha virt. eigenvalues --    0.18153   0.18665   0.27856   0.63769   0.63907
 Alpha virt. eigenvalues --    0.64017   0.90349   0.90920   0.91983   1.05210

 Mulliken charges:
               1
     1  C   -0.623760
     2  H    0.155528
     3  H    0.155794
     4  H    0.154258
     5  H    0.158180
 Sum of Mulliken charges =  -0.00000

 Dipole moment (field-independent basis, Debye):
    X=              0.0350    Y=             -0.0017    Z=              0.0103  Tot=              0.0365
 Quadrupole moment (field-independent basis, Debye-Ang):
   XX=             -8.3778   YY=             -8.5357   ZZ=             -8.6052
   XY=              0.0023   XZ=             -0.0064   YZ=              0.0002

 Normal termination of Gaussian 16 at Fri Sep 22 16:59:16 2023.
