 Gaussian 16, Revision A.03,
 Gaussian 16:  ES64L-G16RevA.03 25-Dec-2016

 ------------------------------------------------------
 # b3lyp/6-31+g(d,p) scrf=(iefpcm,solvent=acetonitrile)
 ------------------------------------------------------

 ----------------------
 tmpdir/M1_conf_0_0.gjf
 ----------------------
 Symbolic Z-matrix:
 Charge =  0 Multiplicity = 1

                         Standard orientation:
 ---------------------------------------------------------------------
 Center     Atomic      Atomic             Coordinates (Angstroms)
 Number     Number       Type             X           Y           Z
 ---------------------------------------------------------------------
      1          6           0        0.029743    1.378356   -0.005936
      2          6           0        1.236316    0.674692   -0.003386
      3          6           0       -1.207139    0.724205   -0.002251
      4          6           0        1.198803   -0.721908    0.001777
      5          1           0        2.179747    1.207602    0.001765
      6          6           0       -1.228405   -0.671602   -0.002960
      7          1           0       -2.131520    1.291116    0.018816
      8          6           0       -0.028326   -1.391698    0.000855
      9          1           0        2.127890   -1.282786    0.008600
     10          1           0       -2.179776   -1.193832    0.003603
     11          1           0       -0.050889   -2.477099    0.006479
     12          1           0        0.048592    2.502731    0.032142
 ---------------------------------------------------------------------

 SCF Done:  E(RB3LYP) =  -232.269836902     A.U. after   10 cycles

 The electronic state is 1-A.
 Alpha  occ. eigenvalues --  -10.20252 -10.19996 -10.19981 -10.19943 -10.19925
 Alpha  occ. eigenvalues --  -10.19900  -0.85973  -0.75326  -0.74956  -0.60820
 Alpha  occ. eigenvalues --   -0.60566  -0.52613  -0.46438  -0.45049  -0.42865
 Alpha  occ. eigenvalues --   -0.42189  -0.37399  -0.35122  -0.34533  -0.26210
 Alpha  occ. eigenvalues --   -0.26033
 Alpha virt. eigenvalues --   -0.01865  -0.01786   0.01092   0.02998   0.03042
 Alpha virt. eigenvalues --    0.05044   0.05083   0.05914   0.07026   0.08342
 Alpha virt. eigenvalues --    0.08870   0.08883   0.10361   0.12388   0.14208

 Mulliken charges:
               1
     1  C   -0.124995
     2  C   -0.154809
     3  C   -0.155187
     4  C   -0.134070
     5  H    0.143791
     6  C   -0.134348
     7  H    0.143750
     8  C   -0.149201
     9  H    0.141646
    10  H    0.141644
    11  H    0.141281
    12  H    0.140497
 Sum of Mulliken charges =  -0.00000

 Dipole moment (field-independent basis, Debye):
    X=             -0.0026    Y=             -0.0261    Z=              0.0692  Tot=              0.0740
 Quadrupole moment (field-independent basis, Debye-Ang):
   XX=            -31.4506   YY=            -31.8734   ZZ=            -40.5283
   XY=             -0.0037   XZ=             -0.0314   YZ=              0.0921

 Normal termination of Gaussian 16 at Fri Sep 22 16:59:32 2023.
