 Gaussian 16, Revision A.03,
 Gaussian 16:  ES64L-G16RevA.03 25-Dec-2016

 ------------------------------------------------------
 # b3lyp/6-31+g(d,p) scrf=(iefpcm,solvent=acetonitrile)
 ------------------------------------------------------

 ----------------------
 tmpdir/M1_conf_0_4.gjf
 ----------------------
 Symbolic Z-matrix:
 Charge =  0 Multiplicity = 1

                         Standard orientation:
 ---------------------------------------------------------------------
 Center     Atomic      Atomic             Coordinates (Angstroms)
 Number     Number       Type             X           Y           Z
 ---------------------------------------------------------------------
      1          7           0       -0.011633    0.007340   -0.000621
      2          1           0        1.022009   -0.275474    0.001324
      3          1           0       -0.702656   -0.721818    0.001475
      4          1           0       -0.237923    0.945916    0.001545
 ---------------------------------------------------------------------

 SCF Done:  E(RB3LYP) =  -56.5597535789     A.U. after    8 cycles

 The electronic state is 1-A.
 Alpha  occ. eigenvalues --  -14.32054  -0.84127  -0.49722  -0.46957  -0.24814
 Alpha virt. eigenvalues --    0.02517   0.08675   0.08900   0.10814   0.18825
 Alpha virt. eigenvalues --    0.21326   0.23299   0.81531   0.82213   0.87455
 Alpha virt. eigenvalues --    0.93044   0.97099   0.98409   1.07472   1.46011

 Mulliken charges:
               1
     1  N   -0.965202
     2  H    0.319237
     3  H    0.323449
     4  H    0.322516
 Sum of Mulliken charges =  -0.00000

 Dipole moment (field-independent basis, Debye):
    X=              0.1055    Y=             -0.0721    Z=              0.0136  Tot=              0.1285
 Quadrupole moment (field-independent basis, Debye-Ang):
   XX=             -5.7248   YY=             -5.7931   ZZ=            -10.6141
   XY=              0.0195   XZ=             -0.0007   YZ=              0.0005

 Normal termination of Gaussian 16 at Fri Sep 22 16:59:16 2023.
