 Gaussian 16, Revision A.03,
 Gaussian 16:  ES64L-G16RevA.03 25-Dec-2016

 ------------------------------------------------------
 # b3lyp/6-31+g(d,p) scrf=(iefpcm,solvent=acetonitrile)
 ------------------------------------------------------

 ----------------------
 tmpdir/M1_conf_0_7.gjf
 ----------------------
 Symbolic Z-matrix:
 Charge =  0 Multiplicity = 2

                         Standard orientation:
 ---------------------------------------------------------------------
 Center     Atomic      Atomic             Coordinates (Angstroms)
 Number     Number       Type             X           Y           Z
 ---------------------------------------------------------------------
      1          6           0       -0.001008   -0.002000   -0.074031
      2          1           0        0.723994   -0.781523    0.148740
      3          1           0        0.329110    1.014899    0.146213
      4          1           0       -1.047059   -0.221375    0.149232
 ---------------------------------------------------------------------

 SCF Done:  E(UB3LYP) =  -39.8449850198     A.U. after   10 cycles

 The electronic state is 2-A.
 Alpha  occ. eigenvalues --  -10.20681  -0.68988  -0.41848  -0.41533  -0.24813
 Alpha virt. eigenvalues --    0.02006   0.06149   0.06175   0.07200   0.18696
 Alpha virt. eigenvalues --    0.19014   0.20742   0.63136   0.63205   0.64613
 Alpha virt. eigenvalues --    0.84757   0.92058   0.92624   0.98140   1.40840

  Beta  occ. eigenvalues --  -10.19292  -0.65221  -0.40807  -0.40489
  Beta virt. eigenvalues --   -0.08570   0.02498   0.06143   0.06167   0.09657
  Beta virt. eigenvalues --    0.19469   0.19792   0.22266   0.64093   0.64167
  Beta virt. eigenvalues --    0.71308   0.87136   0.92540   0.93119   1.00087

 Mulliken charges and spin densities:
               1          2
     1  C   -0.477796   1.117491
     2  H    0.159663  -0.039083
     3  H    0.158463  -0.039381
     4  H    0.159670  -0.039027
 Sum of Mulliken charges =  -0.00000   1.00000

 Dipole moment (field-independent basis, Debye):
    X=              0.0058    Y=              0.0047    Z=              0.5644  Tot=              0.5645
 Quadrupole moment (field-independent basis, Debye-Ang):
   XX=             -7.3840   YY=             -7.4562   ZZ=             -9.1775
   XY=             -0.0063   XZ=              0.0000   YZ=             -0.0013

 Normal termination of Gaussian 16 at Fri Sep 22 16:59:19 2023.
