 Gaussian 16, Revision A.03,
 Gaussian 16:  ES64L-G16RevA.03 25-Dec-2016

 ------------------------------------------------------
 # b3lyp/6-31+g(d,p) scrf=(iefpcm,solvent=acetonitrile)
 ------------------------------------------------------

 -------------------
 tmpdir/M1_ref_0.gjf
 -------------------
 Symbolic Z-matrix:
 Charge =  0 Multiplicity = 1

                         Standard orientation:
 ---------------------------------------------------------------------
 Center     Atomic      Atomic             Coordinates (Angstroms)
 Number     Number       Type             X           Y           Z
 ---------------------------------------------------------------------
      1          6           0        0.000136    1.378337    0.000019
      2          6           0       -1.222303    0.699564   -0.000938
      3          6           0        1.222515    0.699737   -0.000539
      4          6           0       -1.214214   -0.696859    0.000010
      5          1           0       -2.156096    1.250884    0.010389
      6          6           0        1.214003   -0.696971   -0.000603
      7          1           0        2.156615    1.250438    0.012307
      8          6           0       -0.000025   -1.391891   -0.001709
      9          1           0       -2.154408   -1.238888    0.005988
     10          1           0        2.154110   -1.239203    0.004780
     11          1           0        0.000137   -2.477505   -0.000309
     12          1           0       -0.001041    2.502774   -0.010595
 ---------------------------------------------------------------------

 SCF Done:  E(RB3LYP) =  -232.269920517     A.U. after   10 cycles

 The electronic state is 1-A.
 Alpha  occ. eigenvalues --  -10.20249 -10.20000 -10.19987 -10.19949 -10.19931
 Alpha  occ. eigenvalues --  -10.19903  -0.85967  -0.75324  -0.74951  -0.60820
 Alpha  occ. eigenvalues --   -0.60563  -0.52610  -0.46441  -0.45045  -0.42869
 Alpha  occ. eigenvalues --   -0.42184  -0.37397  -0.35121  -0.34536  -0.26212
 Alpha  occ. eigenvalues --   -0.26029
 Alpha virt. eigenvalues --   -0.01867  -0.01785   0.01093   0.02998   0.03041
 Alpha virt. eigenvalues --    0.05043   0.05082   0.05915   0.07025   0.08341
 Alpha virt. eigenvalues --    0.08872   0.08882   0.10360   0.12389   0.14209

 Mulliken charges:
               1
     1  C   -0.125647
     2  C   -0.154625
     3  C   -0.154517
     4  C   -0.134305
     5  H    0.143823
     6  C   -0.134330
     7  H    0.143856
     8  C   -0.149306
     9  H    0.141669
    10  H    0.141662
    11  H    0.141261
    12  H    0.140460
 Sum of Mulliken charges =  -0.00000

 Dipole moment (field-independent basis, Debye):
    X=             -0.0003    Y=             -0.0242    Z=              0.0225  Tot=              0.0331
 Quadrupole moment (field-independent basis, Debye-Ang):
   XX=            -31.4507   YY=            -31.8668   ZZ=            -40.5321
   XY=             -0.0025   XZ=              0.0020   YZ=             -0.0123

 Normal termination of Gaussian 16 at Fri Sep 22 16:59:12 2023.
