 Gaussian 16, Revision A.03,
 Gaussian 16:  ES64L-G16RevA.03 25-Dec-2016

 ------------------------------------------------------
 # b3lyp/6-31+g(d,p) scrf=(iefpcm,solvent=acetonitrile)
 ------------------------------------------------------

 --------------------
 tmpdir/M1_ref_10.gjf
 --------------------
 Symbolic Z-matrix:
 Charge =  0 Multiplicity = 1

                         Standard orientation:
 ---------------------------------------------------------------------
 Center     Atomic      Atomic             Coordinates (Angstroms)
 Number     Number       Type             X           Y           Z
 ---------------------------------------------------------------------
      1         16           0        0.001406    0.305461    0.006293
      2          8           0        1.273070   -0.451007   -0.007452
      3          8           0       -1.273474   -0.452465   -0.005638
      4          1           0       -0.018001    1.207939   -1.094553
      5          1           0       -0.001266    1.132461    1.098581
 ---------------------------------------------------------------------

 SCF Done:  E(RB3LYP) =  -549.762291844     A.U. after   11 cycles

 The electronic state is 1-A.
 Alpha  occ. eigenvalues --  -89.12791 -19.17901 -19.17724  -8.15848  -6.12273
 Alpha  occ. eigenvalues --   -6.12199  -6.12141  -1.12412  -1.02353  -0.72801
 Alpha  occ. eigenvalues --   -0.56761  -0.51339  -0.47790  -0.36289  -0.34987
 Alpha  occ. eigenvalues --   -0.33439  -0.32675
 Alpha virt. eigenvalues --   -0.02914  -0.00343   0.00553   0.01630   0.07179
 Alpha virt. eigenvalues --    0.08694   0.09910   0.10085   0.15722   0.17957
 Alpha virt. eigenvalues --    0.18528   0.21122   0.21478   0.24765   0.25171

 Mulliken charges:
               1
     1  S    1.052602
     2  O   -0.630001
     3  O   -0.637866
     4  H    0.106525
     5  H    0.108741
 Sum of Mulliken charges =  -0.00000

 Dipole moment (field-independent basis, Debye):
    X=              0.0376    Y=              5.1523    Z=              0.1145  Tot=              5.1537
 Quadrupole moment (field-independent basis, Debye-Ang):
   XX=            -33.0624   YY=            -22.7209   ZZ=            -21.7160
   XY=             -0.0452   XZ=              0.0268   YZ=             -0.0225

 Normal termination of Gaussian 16 at Fri Sep 22 16:59:05 2023.
