 Gaussian 16, Revision A.03,
 Gaussian 16:  ES64L-G16RevA.03 25-Dec-2016

 ------------------------------------------------------
 # b3lyp/6-31+g(d,p) scrf=(iefpcm,solvent=acetonitrile)
 ------------------------------------------------------

 -------------------
 tmpdir/M1_ref_2.gjf
 -------------------
 Symbolic Z-matrix:
 Charge =  0 Multiplicity = 1

                         Standard orientation:
 ---------------------------------------------------------------------
 Center     Atomic      Atomic             Coordinates (Angstroms)
 Number     Number       Type             X           Y           Z
 ---------------------------------------------------------------------
      1          6           0        1.379016    0.156667   -0.012994
      2          6           0        0.837622   -1.128188    0.000175
      3          6           0        0.557019    1.287842    0.000835
      4          6           0       -0.550503   -1.278277   -0.001367
      5          1           0        1.494810   -1.991295    0.014298
      6          6           0       -0.827222    1.119564   -0.001367
      7          1           0        0.983745    2.287097    0.009224
      8          6           0       -1.403260   -0.162878   -0.001479
      9          1           0       -0.976279   -2.277969    0.000680
     10          1           0       -1.468943    1.996333    0.003051
     11          1           0        2.499376    0.303021    0.045876
     12          1           0       -2.488734   -0.285567    0.024053
 ---------------------------------------------------------------------

 SCF Done:  E(RB3LYP) =  -232.269201494     A.U. after   10 cycles

 The electronic state is 1-A.
 Alpha  occ. eigenvalues --  -10.20332 -10.20208 -10.20045 -10.20000 -10.19956
 Alpha  occ. eigenvalues --  -10.19926  -0.85934  -0.75246  -0.74976  -0.60704
 Alpha  occ. eigenvalues --   -0.60603  -0.52542  -0.46360  -0.45026  -0.42670
 Alpha  occ. eigenvalues --   -0.42366  -0.37395  -0.34830  -0.34743  -0.26183
 Alpha  occ. eigenvalues --   -0.26067
 Alpha virt. eigenvalues --   -0.01940  -0.01791   0.01067   0.02985   0.03031
 Alpha virt. eigenvalues --    0.05032   0.05061   0.05896   0.06994   0.08330
 Alpha virt. eigenvalues --    0.08860   0.08878   0.10341   0.12325   0.14172

 Mulliken charges:
               1
     1  C   -0.119687
     2  C   -0.154231
     3  C   -0.156032
     4  C   -0.141550
     5  H    0.144053
     6  C   -0.141221
     7  H    0.143716
     8  C   -0.142862
     9  H    0.140482
    10  H    0.140218
    11  H    0.141869
    12  H    0.145245
 Sum of Mulliken charges =  -0.00000

 Dipole moment (field-independent basis, Debye):
    X=             -0.0275    Y=              0.0079    Z=              0.0943  Tot=              0.0985
 Quadrupole moment (field-independent basis, Debye-Ang):
   XX=            -31.7082   YY=            -31.6221   ZZ=            -40.5652
   XY=             -0.0107   XZ=              0.0955   YZ=              0.0048

 Normal termination of Gaussian 16 at Fri Sep 22 16:59:13 2023.
