 Gaussian 16, Revision A.03,
 Gaussian 16:  ES64L-G16RevA.03 25-Dec-2016

 ------------------------------------------------------
 # b3lyp/6-31+g(d,p) scrf=(iefpcm,solvent=acetonitrile)
 ------------------------------------------------------

 -------------------
 tmpdir/M1_ref_7.gjf
 -------------------
 Symbolic Z-matrix:
 Charge =  0 Multiplicity = 2

                         Standard orientation:
 ---------------------------------------------------------------------
 Center     Atomic      Atomic             Coordinates (Angstroms)
 Number     Number       Type             X           Y           Z
 ---------------------------------------------------------------------
      1          6           0       -0.004128   -0.007924   -0.010114
      2          1           0        0.776142   -0.734878    0.020574
      3          1           0       -1.062372   -0.237983    0.020893
      4          1           0        0.311001    1.020404    0.019218
 ---------------------------------------------------------------------

 SCF Done:  E(UB3LYP) =  -39.8471612381     A.U. after    9 cycles

 The electronic state is 2-A.
 Alpha  occ. eigenvalues --  -10.20123  -0.69150  -0.43126  -0.41773  -0.23601
 Alpha virt. eigenvalues --    0.02091   0.06056   0.06168   0.07284   0.18540
 Alpha virt. eigenvalues --    0.19772   0.20949   0.62793   0.63222   0.64830
 Alpha virt. eigenvalues --    0.82151   0.92754   0.95271   0.97820   1.41838

  Beta  occ. eigenvalues --  -10.18769  -0.65209  -0.42158  -0.40776
  Beta virt. eigenvalues --   -0.07886   0.02628   0.06032   0.06141   0.09816
  Beta virt. eigenvalues --    0.19337   0.20735   0.22029   0.63696   0.64146
  Beta virt. eigenvalues --    0.71660   0.84418   0.92977   0.95572   0.99949

 Mulliken charges and spin densities:
               1          2
     1  C   -0.489229   1.140036
     2  H    0.164280  -0.046437
     3  H    0.165255  -0.046810
     4  H    0.159695  -0.046789
 Sum of Mulliken charges =  -0.00000   1.00000

 Dipole moment (field-independent basis, Debye):
    X=              0.0184    Y=              0.0205    Z=              0.0861  Tot=              0.0904
 Quadrupole moment (field-independent basis, Debye-Ang):
   XX=             -7.0952   YY=             -7.4406   ZZ=             -9.3516
   XY=             -0.0186   XZ=             -0.0001   YZ=             -0.0008

 Normal termination of Gaussian 16 at Fri Sep 22 16:59:00 2023.
