 Gaussian 16, Revision A.03,
 Gaussian 16:  ES64L-G16RevA.03 25-Dec-2016

 ------------------------------------------------------
 # b3lyp/6-31+g(d,p) scrf=(iefpcm,solvent=acetonitrile)
 ------------------------------------------------------

 -------------------
 tmpdir/M1_ref_5.gjf
 -------------------
 Symbolic Z-matrix:
 Charge =  0 Multiplicity = 1

                         Standard orientation:
 ---------------------------------------------------------------------
 Center     Atomic      Atomic             Coordinates (Angstroms)
 Number     Number       Type             X           Y           Z
 ---------------------------------------------------------------------
      1          6           0       -1.106990    0.845928    0.001222
      2          6           0       -1.290873   -0.541409    0.002119
      3          6           0        0.183661    1.390026   -0.002776
      4          6           0       -0.177851   -1.387859   -0.003159
      5          1           0       -2.297393   -0.944961    0.011300
      6          6           0        1.290131    0.539208    0.002565
      7          1           0        0.313835    2.466177   -0.002499
      8          6           0        1.111838   -0.849329   -0.000822
      9          1           0       -0.321091   -2.464123   -0.003345
     10          1           0        2.290974    0.960292    0.007558
     11          1           0        1.975737   -1.507295    0.000555
     12          1           0       -2.021556    1.510521   -0.008462
 ---------------------------------------------------------------------

 SCF Done:  E(RB3LYP) =  -232.269830068     A.U. after   10 cycles

 The electronic state is 1-A.
 Alpha  occ. eigenvalues --  -10.20374 -10.20030 -10.20006 -10.19973 -10.19946
 Alpha  occ. eigenvalues --  -10.19919  -0.85935  -0.75231  -0.75012  -0.60799
 Alpha  occ. eigenvalues --   -0.60559  -0.52577  -0.46418  -0.45034  -0.42703
 Alpha  occ. eigenvalues --   -0.42326  -0.37380  -0.34940  -0.34733  -0.26165
 Alpha  occ. eigenvalues --   -0.26076
 Alpha virt. eigenvalues --   -0.01858  -0.01838   0.01087   0.02985   0.03042
 Alpha virt. eigenvalues --    0.05038   0.05068   0.05908   0.07010   0.08322
 Alpha virt. eigenvalues --    0.08865   0.08884   0.10354   0.12362   0.14193

 Mulliken charges:
               1
     1  C   -0.118430
     2  C   -0.161250
     3  C   -0.159000
     4  C   -0.134606
     5  H    0.142336
     6  C   -0.134530
     7  H    0.142676
     8  C   -0.146814
     9  H    0.141807
    10  H    0.142002
    11  H    0.142253
    12  H    0.143557
 Sum of Mulliken charges =  -0.00000

 Dipole moment (field-independent basis, Debye):
    X=              0.0143    Y=             -0.0218    Z=              0.0051  Tot=              0.0266
 Quadrupole moment (field-independent basis, Debye-Ang):
   XX=            -31.6044   YY=            -31.6993   ZZ=            -40.5530
   XY=              0.0599   XZ=              0.0120   YZ=             -0.0186

 Normal termination of Gaussian 16 at Fri Sep 22 16:59:13 2023.
