 Gaussian 16, Revision A.03,
 Gaussian 16:  ES64L-G16RevA.03 25-Dec-2016

 ------------------------------------------------------
 # b3lyp/6-31+g(d,p) scrf=(iefpcm,solvent=acetonitrile)
 ------------------------------------------------------

 -------------------
 tmpdir/M1_ref_3.gjf
 -------------------
 Symbolic Z-matrix:
 Charge =  0 Multiplicity = 1

                         Standard orientation:
 ---------------------------------------------------------------------
 Center     Atomic      Atomic             Coordinates (Angstroms)
 Number     Number       Type             X           Y           Z
 ---------------------------------------------------------------------
      1          6           0       -0.008987    0.000655   -0.002871
      2          1           0        0.359481   -0.106462    1.024870
      3          1           0        0.404075   -0.828783   -0.584519
      4          1           0        0.391848    0.936849   -0.400750
      5          1           0       -1.101480   -0.005532   -0.022377
 ---------------------------------------------------------------------

 SCF Done:  E(RB3LYP) =  -40.5259854528     A.U. after    7 cycles

 The electronic state is 1-A.
 Alpha  occ. eigenvalues --  -10.17203  -0.69472  -0.39814  -0.39121  -0.38830
 Alpha virt. eigenvalues --    0.01698   0.06184   0.06237   0.06259   0.17908
 Alpha virt. eigenvalues --    0.18142   0.18570   0.27844   0.63826   0.63899
 Alpha virt. eigenvalues --    0.63986   0.90450   0.90894   0.91852   1.05178

 Mulliken charges:
               1
     1  C   -0.623707
     2  H    0.154598
     3  H    0.155619
     4  H    0.155837
     5  H    0.157652
 Sum of Mulliken charges =   0.00000

 Dipole moment (field-independent basis, Debye):
    X=              0.0366    Y=             -0.0019    Z=              0.0094  Tot=              0.0379
 Quadrupole moment (field-independent basis, Debye-Ang):
   XX=             -8.3813   YY=             -8.5432   ZZ=             -8.5977
   XY=              0.0016   XZ=             -0.0045   YZ=              0.0004

 Normal termination of Gaussian 16 at Fri Sep 22 16:58:57 2023.
