 Gaussian 16, Revision A.03,
 Gaussian 16:  ES64L-G16RevA.03 25-Dec-2016

 ------------------------------------------------------
 # b3lyp/6-31+g(d,p) scrf=(iefpcm,solvent=acetonitrile)
 ------------------------------------------------------

 -------------------
 tmpdir/M1_ref_4.gjf
 -------------------
 Symbolic Z-matrix:
 Charge =  0 Multiplicity = 1

                         Standard orientation:
 ---------------------------------------------------------------------
 Center     Atomic      Atomic             Coordinates (Angstroms)
 Number     Number       Type             X           Y           Z
 ---------------------------------------------------------------------
      1          7           0       -0.007231    0.003535   -0.017229
      2          1           0        1.044197   -0.148957    0.038217
      3          1           0       -0.624325   -0.790298    0.040605
      4          1           0       -0.369252    0.914509    0.041781
 ---------------------------------------------------------------------

 SCF Done:  E(RB3LYP) =  -56.5619190049     A.U. after    8 cycles

 The electronic state is 1-A.
 Alpha  occ. eigenvalues --  -14.32166  -0.83977  -0.48967  -0.47378  -0.24852
 Alpha virt. eigenvalues --    0.02482   0.08758   0.08843   0.10808   0.19095
 Alpha virt. eigenvalues --    0.21422   0.22483   0.81724   0.82242   0.87426
 Alpha virt. eigenvalues --    0.93876   0.96221   0.97941   1.07154   1.46148

 Mulliken charges:
               1
     1  N   -0.966297
     2  H    0.321558
     3  H    0.322469
     4  H    0.322269
 Sum of Mulliken charges =   0.00000

 Dipole moment (field-independent basis, Debye):
    X=              0.0676    Y=             -0.0344    Z=              0.3737  Tot=              0.3813
 Quadrupole moment (field-independent basis, Debye-Ang):
   XX=             -5.6716   YY=             -5.8601   ZZ=            -10.6166
   XY=             -0.0007   XZ=             -0.0137   YZ=              0.0071

 Normal termination of Gaussian 16 at Fri Sep 22 16:58:57 2023.
