 Gaussian 16, Revision A.03,
 Gaussian 16:  ES64L-G16RevA.03 25-Dec-2016

 ------------------------------------------------------
 # b3lyp/6-31+g(d,p) scrf=(iefpcm,solvent=acetonitrile)
 ------------------------------------------------------

 -----------------------
 tmpdir/M2_conf_0_75.gjf
 -----------------------
 Symbolic Z-matrix:
 Charge =  0 Multiplicity = 1

                         Standard orientation:
 ---------------------------------------------------------------------
 Center     Atomic      Atomic             Coordinates (Angstroms)
 Number     Number       Type             X           Y           Z
 ---------------------------------------------------------------------
      1          6           0       -0.698880   -0.008279    0.000233
      2          6           0        0.699620   -0.008017   -0.000274
      3          1           0       -1.207577   -0.881282   -0.001791
      4          1           0       -1.244256    0.930620    0.001006
      5          1           0        1.205325   -0.884251    0.001916
      6          1           0        1.242064    0.932689   -0.000881
 ---------------------------------------------------------------------

 SCF Done:  E(RB3LYP) =  -78.5885517937     A.U. after    9 cycles

 The electronic state is 1-A.
 Alpha  occ. eigenvalues --  -10.19592 -10.19533  -0.75833  -0.59945  -0.48033
 Alpha  occ. eigenvalues --   -0.41386  -0.37829  -0.27086
 Alpha virt. eigenvalues --   -0.02240   0.02538   0.03705   0.05219   0.06701
 Alpha virt. eigenvalues --    0.08823   0.09085   0.12408   0.16010   0.18242
 Alpha virt. eigenvalues --    0.22007   0.25640   0.32510   0.35452   0.58385

 Mulliken charges:
               1
     1  C   -0.298483
     2  C   -0.298403
     3  H    0.148674
     4  H    0.149599
     5  H    0.148755
     6  H    0.149857
 Sum of Mulliken charges =  -0.00000

 Dipole moment (field-independent basis, Debye):
    X=             -0.0025    Y=             -0.0408    Z=              0.0003  Tot=              0.0408
 Quadrupole moment (field-independent basis, Debye-Ang):
   XX=            -12.2565   YY=            -12.2272   ZZ=            -16.1856
   XY=              0.0021   XZ=              0.0026   YZ=             -0.0000

 Normal termination of Gaussian 16 at Fri Sep 22 17:11:10 2023.
