 Gaussian 16, Revision A.03,
 Gaussian 16:  ES64L-G16RevA.03 25-Dec-2016

 ------------------------------------------------------
 # b3lyp/6-31+g(d,p) scrf=(iefpcm,solvent=acetonitrile)
 ------------------------------------------------------

 -----------------------
 tmpdir/M2_conf_0_51.gjf
 -----------------------
 Symbolic Z-matrix:
 Charge =  0 Multiplicity = 1

                         Standard orientation:
 ---------------------------------------------------------------------
 Center     Atomic      Atomic             Coordinates (Angstroms)
 Number     Number       Type             X           Y           Z
 ---------------------------------------------------------------------
      1          7           0        1.084092   -0.158387   -0.019020
      2          6           0       -0.164320    0.427034   -0.029707
      3          1           0        1.921964    0.396587    0.330057
      4          1           0        1.179324   -1.148549   -0.176401
      5          1           0       -0.248798    1.485477   -0.133811
      6          8           0       -1.181902   -0.273376    0.036442
 ---------------------------------------------------------------------

 SCF Done:  E(RB3LYP) =  -169.913167296     A.U. after   10 cycles

 The electronic state is 1-A.
 Alpha  occ. eigenvalues --  -19.14631 -14.37607 -10.30754  -1.04893  -0.90424
 Alpha  occ. eigenvalues --   -0.63567  -0.54578  -0.50392  -0.43903  -0.40548
 Alpha  occ. eigenvalues --   -0.28830  -0.27783
 Alpha virt. eigenvalues --   -0.01376   0.00845   0.03521   0.04091   0.06135
 Alpha virt. eigenvalues --    0.10414   0.10949   0.14449   0.16611   0.18662
 Alpha virt. eigenvalues --    0.20287   0.22424   0.23839   0.25559   0.27341

 Mulliken charges:
               1
     1  N   -0.548427
     2  C    0.289569
     3  H    0.336170
     4  H    0.339822
     5  H    0.154059
     6  O   -0.571193
 Sum of Mulliken charges =   0.00000

 Dipole moment (field-independent basis, Debye):
    X=              4.7214    Y=              1.5072    Z=              0.1631  Tot=              4.9589
 Quadrupole moment (field-independent basis, Debye-Ang):
   XX=            -18.7176   YY=            -15.1105   ZZ=            -19.0556
   XY=             -1.8356   XZ=              1.2101   YZ=              0.7496

 Normal termination of Gaussian 16 at Fri Sep 22 17:10:49 2023.
