 Gaussian 16, Revision A.03,
 Gaussian 16:  ES64L-G16RevA.03 25-Dec-2016

 ------------------------------------------------------
 # b3lyp/6-31+g(d,p) scrf=(iefpcm,solvent=acetonitrile)
 ------------------------------------------------------

 ------------------------
 tmpdir/M2_conf_0_118.gjf
 ------------------------
 Symbolic Z-matrix:
 Charge =  0 Multiplicity = 1

                         Standard orientation:
 ---------------------------------------------------------------------
 Center     Atomic      Atomic             Coordinates (Angstroms)
 Number     Number       Type             X           Y           Z
 ---------------------------------------------------------------------
      1         16           0       -1.094369   -0.122898    0.235501
      2          6           0        0.629684    0.357266    0.052514
      3          6           0        1.607393   -0.641571    0.019406
      4          1           0       -1.279224   -0.168470    1.646315
      5          8           0       -1.943295    0.947995   -0.331971
      6          8           0       -1.250461   -1.502007   -0.287533
      7          8           0        0.910940    1.554824   -0.026877
      8          8           0        2.787808   -0.309816   -0.094291
      9          1           0        1.326736   -1.687295    0.079522
 ---------------------------------------------------------------------

 SCF Done:  E(RB3LYP) =  -776.379014063     A.U. after   15 cycles

 The electronic state is 1-A.
 Alpha  occ. eigenvalues --  -89.13942 -19.24995 -19.22360 -19.19199 -19.19146
 Alpha  occ. eigenvalues --  -10.36109 -10.33126  -8.17054  -6.13457  -6.13415
 Alpha  occ. eigenvalues --   -6.13342  -1.15004  -1.12684  -1.09290  -1.03682
 Alpha  occ. eigenvalues --   -0.82028  -0.72824  -0.60926  -0.59157  -0.53870
 Alpha  occ. eigenvalues --   -0.52472  -0.49185  -0.48884  -0.48640  -0.41798
 Alpha  occ. eigenvalues --   -0.39972  -0.36950  -0.36067  -0.34517  -0.33882
 Alpha  occ. eigenvalues --   -0.30782
 Alpha virt. eigenvalues --   -0.18274  -0.04473  -0.01381  -0.00184   0.01353
 Alpha virt. eigenvalues --    0.02226   0.03979   0.05035   0.06293   0.06723
 Alpha virt. eigenvalues --    0.08195   0.08745   0.09605   0.10036   0.11788

 Mulliken charges:
               1
     1  S    1.232471
     2  C    0.073495
     3  C    0.214754
     4  H    0.125228
     5  O   -0.606169
     6  O   -0.604085
     7  O   -0.287839
     8  O   -0.344564
     9  H    0.196710
 Sum of Mulliken charges =  -0.00000

 Dipole moment (field-independent basis, Debye):
    X=              0.6628    Y=             -2.1575    Z=              3.9061  Tot=              4.5113
 Quadrupole moment (field-independent basis, Debye-Ang):
   XX=            -60.7546   YY=            -53.8317   ZZ=            -41.0765
   XY=             -2.1389   XZ=             -4.4006   YZ=             -0.6734

 Normal termination of Gaussian 16 at Fri Sep 22 17:13:00 2023.
