 Gaussian 16, Revision A.03,
 Gaussian 16:  ES64L-G16RevA.03 25-Dec-2016

 ------------------------------------------------------
 # b3lyp/6-31+g(d,p) scrf=(iefpcm,solvent=acetonitrile)
 ------------------------------------------------------

 ------------------------
 tmpdir/M2_conf_0_115.gjf
 ------------------------
 Symbolic Z-matrix:
 Charge =  0 Multiplicity = 1

                         Standard orientation:
 ---------------------------------------------------------------------
 Center     Atomic      Atomic             Coordinates (Angstroms)
 Number     Number       Type             X           Y           Z
 ---------------------------------------------------------------------
      1          6           0        0.695482   -0.014585    0.001720
      2          6           0       -0.701293   -0.007043   -0.001871
      3          1           0        1.245641    0.966098   -0.007861
      4          1           0        1.225966   -0.876524    0.002336
      5          1           0       -1.191684   -0.891032   -0.002042
      6          1           0       -1.245054    0.931226    0.008477
 ---------------------------------------------------------------------

 SCF Done:  E(RB3LYP) =  -78.5877890470     A.U. after    9 cycles

 The electronic state is 1-A.
 Alpha  occ. eigenvalues --  -10.19924 -10.19569  -0.75784  -0.59703  -0.47910
 Alpha  occ. eigenvalues --   -0.41359  -0.37512  -0.27132
 Alpha virt. eigenvalues --   -0.02217   0.02525   0.03681   0.05163   0.06686
 Alpha virt. eigenvalues --    0.08781   0.09061   0.12406   0.15914   0.17668
 Alpha virt. eigenvalues --    0.21911   0.25144   0.32579   0.35330   0.58332

 Mulliken charges:
               1
     1  C   -0.297101
     2  C   -0.300126
     3  H    0.146429
     4  H    0.150714
     5  H    0.148264
     6  H    0.151820
 Sum of Mulliken charges =  -0.00000

 Dipole moment (field-independent basis, Debye):
    X=             -0.0119    Y=             -0.0541    Z=              0.0014  Tot=              0.0554
 Quadrupole moment (field-independent basis, Debye-Ang):
   XX=            -12.3092   YY=            -12.2175   ZZ=            -16.2227
   XY=             -0.0937   XZ=             -0.0180   YZ=              0.0004

 Normal termination of Gaussian 16 at Fri Sep 22 17:12:14 2023.
