 Gaussian 16, Revision A.03,
 Gaussian 16:  ES64L-G16RevA.03 25-Dec-2016

 ------------------------------------------------------
 # b3lyp/6-31+g(d,p) scrf=(iefpcm,solvent=acetonitrile)
 ------------------------------------------------------

 ------------------------
 tmpdir/M2_conf_0_110.gjf
 ------------------------
 Symbolic Z-matrix:
 Charge =  0 Multiplicity = 1

                         Standard orientation:
 ---------------------------------------------------------------------
 Center     Atomic      Atomic             Coordinates (Angstroms)
 Number     Number       Type             X           Y           Z
 ---------------------------------------------------------------------
      1          6           0       -1.647571   -0.017778   -0.135388
      2         16           0        0.185482    0.002388    0.230391
      3          8           0        0.811307   -1.252456   -0.252917
      4          1           0       -1.893221    0.142304   -1.170563
      5          1           0       -2.071316    0.751626    0.510869
      6          1           0       -1.950795   -1.013967    0.204566
      7          8           0        0.762935    1.277510   -0.249342
      8          1           0        0.239109   -0.011929    1.599264
 ---------------------------------------------------------------------

 SCF Done:  E(RB3LYP) =  -589.098832863     A.U. after   11 cycles

 The electronic state is 1-A.
 Alpha  occ. eigenvalues --  -89.11879 -19.16854 -19.16811 -10.23794  -8.14876
 Alpha  occ. eigenvalues --   -6.11316  -6.11235  -6.11152  -1.11690  -1.01458
 Alpha  occ. eigenvalues --   -0.78382  -0.67039  -0.53630  -0.49443  -0.48201
 Alpha  occ. eigenvalues --   -0.44592  -0.43998  -0.35427  -0.34080  -0.32225
 Alpha  occ. eigenvalues --   -0.31386
 Alpha virt. eigenvalues --   -0.01423   0.00624   0.01431   0.02446   0.04544
 Alpha virt. eigenvalues --    0.06352   0.07211   0.07643   0.08819   0.11234
 Alpha virt. eigenvalues --    0.11575   0.13230   0.14309   0.17596   0.18705

 Mulliken charges:
               1
     1  C   -0.547474
     2  S    1.066004
     3  O   -0.641691
     4  H    0.230837
     5  H    0.219437
     6  H    0.215702
     7  O   -0.636500
     8  H    0.093684
 Sum of Mulliken charges =  -0.00000

 Dipole moment (field-independent basis, Debye):
    X=             -5.3207    Y=             -0.0886    Z=              3.0583  Tot=              6.1376
 Quadrupole moment (field-independent basis, Debye-Ang):
   XX=            -29.8410   YY=            -39.1195   ZZ=            -27.8904
   XY=              0.0771   XZ=              2.1983   YZ=             -0.0203

 Normal termination of Gaussian 16 at Fri Sep 22 17:12:44 2023.
