 Gaussian 16, Revision A.03,
 Gaussian 16:  ES64L-G16RevA.03 25-Dec-2016

 ------------------------------------------------------
 # b3lyp/6-31+g(d,p) scrf=(iefpcm,solvent=acetonitrile)
 ------------------------------------------------------

 ------------------------
 tmpdir/M2_conf_0_116.gjf
 ------------------------
 Symbolic Z-matrix:
 Charge =  0 Multiplicity = 1

                         Standard orientation:
 ---------------------------------------------------------------------
 Center     Atomic      Atomic             Coordinates (Angstroms)
 Number     Number       Type             X           Y           Z
 ---------------------------------------------------------------------
      1          6           0       -0.685846    0.480001    0.000776
      2          6           0        0.713341    0.485869   -0.001031
      3          1           0       -1.236856    1.460193   -0.009846
      4          6           0       -1.420142   -0.709866    0.001125
      5          6           0        1.388984   -0.736539   -0.001031
      6          1           0        1.258830    1.423013    0.010811
 ---------------------------------------------------------------------

 SCF Done:  E(RB3LYP) =  -153.324583901     A.U. after   14 cycles

 The electronic state is 1-A.
 Alpha  occ. eigenvalues --  -10.29106 -10.28933 -10.24379 -10.24092  -0.85602
 Alpha  occ. eigenvalues --   -0.72874  -0.61310  -0.50150  -0.48536  -0.36853
 Alpha  occ. eigenvalues --   -0.33610  -0.31487  -0.25381
 Alpha virt. eigenvalues --   -0.14491  -0.11526  -0.08292   0.02184   0.03731
 Alpha virt. eigenvalues --    0.04208   0.04452   0.05781   0.06089   0.08878
 Alpha virt. eigenvalues --    0.09196   0.09315   0.10635   0.12133   0.12849

 Mulliken charges:
               1
     1  C    0.196972
     2  C    0.182367
     3  H    0.240762
     4  C   -0.443448
     5  C   -0.409887
     6  H    0.233234
 Sum of Mulliken charges =  -0.00000

 Dipole moment (field-independent basis, Debye):
    X=              0.1946    Y=              4.7824    Z=              0.0016  Tot=              4.7863
 Quadrupole moment (field-independent basis, Debye-Ang):
   XX=            -26.4371   YY=            -24.3243   ZZ=            -26.9705
   XY=             -0.1297   XZ=              0.0700   YZ=              0.0006

 Normal termination of Gaussian 16 at Fri Sep 22 17:12:29 2023.
