 Gaussian 16, Revision A.03,
 Gaussian 16:  ES64L-G16RevA.03 25-Dec-2016

 ------------------------------------------------------
 # b3lyp/6-31+g(d,p) scrf=(iefpcm,solvent=acetonitrile)
 ------------------------------------------------------

 -----------------------
 tmpdir/M2_conf_0_28.gjf
 -----------------------
 Symbolic Z-matrix:
 Charge =  0 Multiplicity = 1

                         Standard orientation:
 ---------------------------------------------------------------------
 Center     Atomic      Atomic             Coordinates (Angstroms)
 Number     Number       Type             X           Y           Z
 ---------------------------------------------------------------------
      1          6           0       -0.548503   -0.012545   -0.000798
      2          1           0       -1.093121    0.927713    0.001605
      3          8           0        0.680779    0.004837    0.000180
      4          1           0       -1.062097   -0.891139    0.001746
 ---------------------------------------------------------------------

 SCF Done:  E(RB3LYP) =  -114.511742478     A.U. after    9 cycles

 The electronic state is 1-A.
 Alpha  occ. eigenvalues --  -19.18380 -10.28877  -1.06309  -0.65589  -0.51329
 Alpha  occ. eigenvalues --   -0.46095  -0.40491  -0.28296
 Alpha virt. eigenvalues --   -0.06445   0.02127   0.04257   0.05280   0.07329
 Alpha virt. eigenvalues --    0.16943   0.19459   0.20734   0.21419   0.25976
 Alpha virt. eigenvalues --    0.27310   0.35700   0.63210   0.66233   0.72478

 Mulliken charges:
               1
     1  C    0.125046
     2  H    0.138974
     3  O   -0.411684
     4  H    0.147663
 Sum of Mulliken charges =  -0.00000

 Dipole moment (field-independent basis, Debye):
    X=             -3.2434    Y=             -0.0882    Z=              0.0006  Tot=              3.2446
 Quadrupole moment (field-independent basis, Debye-Ang):
   XX=            -12.2896   YY=            -11.4899   ZZ=            -11.6971
   XY=              0.0731   XZ=             -0.0017   YZ=              0.0002

 Normal termination of Gaussian 16 at Fri Sep 22 17:10:22 2023.
