 Gaussian 16, Revision A.03,
 Gaussian 16:  ES64L-G16RevA.03 25-Dec-2016

 ------------------------------------------------------
 # b3lyp/6-31+g(d,p) scrf=(iefpcm,solvent=acetonitrile)
 ------------------------------------------------------

 ----------------------
 tmpdir/M2_conf_0_9.gjf
 ----------------------
 Symbolic Z-matrix:
 Charge =  0 Multiplicity = 1

                         Standard orientation:
 ---------------------------------------------------------------------
 Center     Atomic      Atomic             Coordinates (Angstroms)
 Number     Number       Type             X           Y           Z
 ---------------------------------------------------------------------
      1          6           0        1.372734   -0.494665    0.000881
      2          6           0        0.594857    0.662365   -0.015288
      3          6           0       -0.793054    0.492178    0.000829
      4          1           0        0.912855   -1.394682    0.002213
      5          1           0        2.454841   -0.418088    0.014730
      6          1           0        1.086583    1.679774    0.040901
      7          8           0       -1.255201   -0.647043    0.001904
      8          1           0       -1.459894    1.350065    0.008388
 ---------------------------------------------------------------------

 SCF Done:  E(RB3LYP) =  -191.916142703     A.U. after   12 cycles

 The electronic state is 1-A.
 Alpha  occ. eigenvalues --  -19.15698 -10.28080 -10.22138 -10.21478  -1.05331
 Alpha  occ. eigenvalues --   -0.79860  -0.67631  -0.55397  -0.52294  -0.46150
 Alpha  occ. eigenvalues --   -0.42165  -0.41234  -0.39471  -0.28481  -0.27378
 Alpha virt. eigenvalues --   -0.09569   0.01439   0.03101   0.03863   0.04161
 Alpha virt. eigenvalues --    0.06308   0.06475   0.07486   0.09496   0.09846
 Alpha virt. eigenvalues --    0.12167   0.12332   0.14409   0.16488   0.19560

 Mulliken charges:
               1
     1  C   -0.283863
     2  C    0.061278
     3  C    0.070627
     4  H    0.178801
     5  H    0.169156
     6  H    0.163584
     7  O   -0.497777
     8  H    0.138194
 Sum of Mulliken charges =  -0.00000

 Dipole moment (field-independent basis, Debye):
    X=              2.7796    Y=              2.3501    Z=              0.0691  Tot=              3.6406
 Quadrupole moment (field-independent basis, Debye-Ang):
   XX=            -24.0847   YY=            -22.3911   ZZ=            -25.2005
   XY=             -3.8864   XZ=              0.1125   YZ=              0.0835

 Normal termination of Gaussian 16 at Fri Sep 22 17:10:19 2023.
