 Gaussian 16, Revision A.03,
 Gaussian 16:  ES64L-G16RevA.03 25-Dec-2016

 ------------------------------------------------------
 # b3lyp/6-31+g(d,p) scrf=(iefpcm,solvent=acetonitrile)
 ------------------------------------------------------

 -----------------------
 tmpdir/M2_conf_0_25.gjf
 -----------------------
 Symbolic Z-matrix:
 Charge =  0 Multiplicity = 1

                         Standard orientation:
 ---------------------------------------------------------------------
 Center     Atomic      Atomic             Coordinates (Angstroms)
 Number     Number       Type             X           Y           Z
 ---------------------------------------------------------------------
      1          6           0       -0.710151    0.504759    0.001732
      2          6           0        0.686038    0.507704   -0.002822
      3          1           0        1.210809    1.459168   -0.007794
      4          8           0       -1.304247   -0.571442   -0.001833
      5          1           0       -1.272631    1.432406    0.011240
      6          8           0        1.330060   -0.549351    0.002219
 ---------------------------------------------------------------------

 SCF Done:  E(RB3LYP) =  -227.825414773     A.U. after   11 cycles

 The electronic state is 1-A.
 Alpha  occ. eigenvalues --  -19.20233 -19.20186 -10.30672 -10.30598  -1.10101
 Alpha  occ. eigenvalues --   -1.06272  -0.75974  -0.58071  -0.55907  -0.48788
 Alpha  occ. eigenvalues --   -0.46122  -0.45714  -0.38985  -0.31919  -0.29347
 Alpha virt. eigenvalues --   -0.14594   0.01286   0.02167   0.03497   0.03842
 Alpha virt. eigenvalues --    0.06080   0.07352   0.08870   0.10212   0.15334
 Alpha virt. eigenvalues --    0.15862   0.19867   0.20226   0.21608   0.23986

 Mulliken charges:
               1
     1  C    0.224748
     2  C    0.221533
     3  H    0.165509
     4  O   -0.386617
     5  H    0.170118
     6  O   -0.395292
 Sum of Mulliken charges =  -0.00000

 Dipole moment (field-independent basis, Debye):
    X=             -0.1701    Y=              4.9720    Z=             -0.0005  Tot=              4.9749
 Quadrupole moment (field-independent basis, Debye-Ang):
   XX=            -27.0343   YY=            -21.5533   ZZ=            -21.2988
   XY=             -0.1456   XZ=             -0.0249   YZ=              0.0018

 Normal termination of Gaussian 16 at Fri Sep 22 17:10:35 2023.
