 Gaussian 16, Revision A.03,
 Gaussian 16:  ES64L-G16RevA.03 25-Dec-2016

 ------------------------------------------------------
 # b3lyp/6-31+g(d,p) scrf=(iefpcm,solvent=acetonitrile)
 ------------------------------------------------------

 -----------------------
 tmpdir/M2_conf_0_89.gjf
 -----------------------
 Symbolic Z-matrix:
 Charge =  0 Multiplicity = 1

                         Standard orientation:
 ---------------------------------------------------------------------
 Center     Atomic      Atomic             Coordinates (Angstroms)
 Number     Number       Type             X           Y           Z
 ---------------------------------------------------------------------
      1          6           0       -0.008918    0.008218   -0.003858
      2          1           0        0.638791    0.886535   -0.087294
      3          1           0       -1.056328    0.244886   -0.147631
      4          1           0        0.329405   -0.745357   -0.729354
      5          1           0        0.141643   -0.435371    0.987426
 ---------------------------------------------------------------------

 SCF Done:  E(RB3LYP) =  -40.5257631008     A.U. after    7 cycles

 The electronic state is 1-A.
 Alpha  occ. eigenvalues --  -10.17169  -0.69502  -0.40034  -0.39147  -0.38625
 Alpha virt. eigenvalues --    0.01701   0.06167   0.06238   0.06276   0.17755
 Alpha virt. eigenvalues --    0.18090   0.18857   0.27868   0.63673   0.63948
 Alpha virt. eigenvalues --    0.64061   0.90154   0.90848   0.92286   1.05276

 Mulliken charges:
               1
     1  C   -0.623911
     2  H    0.156246
     3  H    0.159122
     4  H    0.154236
     5  H    0.154307
 Sum of Mulliken charges =   0.00000

 Dipole moment (field-independent basis, Debye):
    X=              0.0242    Y=             -0.0291    Z=              0.0181  Tot=              0.0419
 Quadrupole moment (field-independent basis, Debye-Ang):
   XX=             -8.3620   YY=             -8.5216   ZZ=             -8.6331
   XY=             -0.0040   XZ=              0.0097   YZ=             -0.0064

 Normal termination of Gaussian 16 at Fri Sep 22 17:11:36 2023.
