 Gaussian 16, Revision A.03,
 Gaussian 16:  ES64L-G16RevA.03 25-Dec-2016

 ------------------------------------------------------
 # b3lyp/6-31+g(d,p) scrf=(iefpcm,solvent=acetonitrile)
 ------------------------------------------------------

 -----------------------
 tmpdir/M2_conf_0_22.gjf
 -----------------------
 Symbolic Z-matrix:
 Charge =  0 Multiplicity = 1

                         Standard orientation:
 ---------------------------------------------------------------------
 Center     Atomic      Atomic             Coordinates (Angstroms)
 Number     Number       Type             X           Y           Z
 ---------------------------------------------------------------------
      1          6           0       -0.706713   -0.006744   -0.000057
      2          6           0        0.708382   -0.008651   -0.003442
      3          1           0       -1.231878   -0.870245    0.008667
      4          1           0       -1.241009    0.939408   -0.003808
      5          1           0        1.191390   -0.904408    0.002198
      6          1           0        1.271487    0.927618    0.013935
 ---------------------------------------------------------------------

 SCF Done:  E(RB3LYP) =  -78.5870288865     A.U. after    9 cycles

 The electronic state is 1-A.
 Alpha  occ. eigenvalues --  -10.19966 -10.19811  -0.75493  -0.60007  -0.47838
 Alpha  occ. eigenvalues --   -0.41207  -0.37955  -0.26887
 Alpha virt. eigenvalues --   -0.02552   0.02518   0.03660   0.05235   0.06718
 Alpha virt. eigenvalues --    0.08810   0.09049   0.12302   0.15955   0.18112
 Alpha virt. eigenvalues --    0.21844   0.25348   0.31753   0.35201   0.58816

 Mulliken charges:
               1
     1  C   -0.301765
     2  C   -0.301236
     3  H    0.150928
     4  H    0.149573
     5  H    0.149635
     6  H    0.152864
 Sum of Mulliken charges =  -0.00000

 Dipole moment (field-independent basis, Debye):
    X=             -0.0074    Y=             -0.0414    Z=              0.0274  Tot=              0.0501
 Quadrupole moment (field-independent basis, Debye-Ang):
   XX=            -12.2287   YY=            -12.2390   ZZ=            -16.2761
   XY=              0.0836   XZ=              0.0173   YZ=             -0.0007

 Normal termination of Gaussian 16 at Fri Sep 22 17:10:15 2023.
