 Gaussian 16, Revision A.03,
 Gaussian 16:  ES64L-G16RevA.03 25-Dec-2016

 ------------------------------------------------------
 # b3lyp/6-31+g(d,p) scrf=(iefpcm,solvent=acetonitrile)
 ------------------------------------------------------

 -----------------------
 tmpdir/M2_conf_0_20.gjf
 -----------------------
 Symbolic Z-matrix:
 Charge =  0 Multiplicity = 1

                         Standard orientation:
 ---------------------------------------------------------------------
 Center     Atomic      Atomic             Coordinates (Angstroms)
 Number     Number       Type             X           Y           Z
 ---------------------------------------------------------------------
      1          6           0        0.691515    0.498956   -0.013713
      2          6           0       -0.706803    0.506238   -0.000511
      3          1           0       -1.242707    1.451481    0.003217
      4          8           0        1.321924   -0.556259    0.002943
      5          1           0        1.236898    1.488718    0.040966
      6          8           0       -1.309732   -0.565162    0.002202
 ---------------------------------------------------------------------

 SCF Done:  E(RB3LYP) =  -227.825770177     A.U. after   11 cycles

 The electronic state is 1-A.
 Alpha  occ. eigenvalues --  -19.20285 -19.20268 -10.30938 -10.30680  -1.10326
 Alpha  occ. eigenvalues --   -1.06548  -0.75789  -0.57660  -0.55448  -0.48894
 Alpha  occ. eigenvalues --   -0.46267  -0.45669  -0.39160  -0.32011  -0.29272
 Alpha virt. eigenvalues --   -0.14495   0.01273   0.02216   0.03370   0.03818
 Alpha virt. eigenvalues --    0.06053   0.07232   0.08876   0.10189   0.15292
 Alpha virt. eigenvalues --    0.15761   0.19729   0.20056   0.21353   0.23674

 Mulliken charges:
               1
     1  C    0.218376
     2  C    0.226333
     3  H    0.169566
     4  O   -0.388164
     5  H    0.162397
     6  O   -0.388508
 Sum of Mulliken charges =   0.00000

 Dipole moment (field-independent basis, Debye):
    X=             -0.1158    Y=              4.9006    Z=             -0.0111  Tot=              4.9020
 Quadrupole moment (field-independent basis, Debye-Ang):
   XX=            -27.0680   YY=            -21.5948   ZZ=            -21.3275
   XY=             -0.1449   XZ=              0.0231   YZ=              0.0198

 Normal termination of Gaussian 16 at Fri Sep 22 17:10:38 2023.
