 Gaussian 16, Revision A.03,
 Gaussian 16:  ES64L-G16RevA.03 25-Dec-2016

 ------------------------------------------------------
 # b3lyp/6-31+g(d,p) scrf=(iefpcm,solvent=acetonitrile)
 ------------------------------------------------------

 -----------------------
 tmpdir/M2_conf_0_76.gjf
 -----------------------
 Symbolic Z-matrix:
 Charge =  0 Multiplicity = 1

                         Standard orientation:
 ---------------------------------------------------------------------
 Center     Atomic      Atomic             Coordinates (Angstroms)
 Number     Number       Type             X           Y           Z
 ---------------------------------------------------------------------
      1          6           0        0.551085   -0.013298   -0.000241
      2          1           0        1.111736    0.916324    0.000488
      3          1           0        1.045336   -0.894560    0.000525
      4          8           0       -0.682948    0.007253    0.000054
 ---------------------------------------------------------------------

 SCF Done:  E(RB3LYP) =  -114.510638080     A.U. after    9 cycles

 The electronic state is 1-A.
 Alpha  occ. eigenvalues --  -19.18399 -10.28869  -1.06064  -0.65777  -0.51353
 Alpha  occ. eigenvalues --   -0.46039  -0.40349  -0.28342
 Alpha virt. eigenvalues --   -0.06573   0.02132   0.04252   0.05291   0.07328
 Alpha virt. eigenvalues --    0.16981   0.19504   0.20755   0.21404   0.25932
 Alpha virt. eigenvalues --    0.27399   0.35489   0.63228   0.65880   0.72282

 Mulliken charges:
               1
     1  C    0.126384
     2  H    0.141229
     3  H    0.147613
     4  O   -0.415226
 Sum of Mulliken charges =  -0.00000

 Dipole moment (field-independent basis, Debye):
    X=              3.2731    Y=             -0.0979    Z=              0.0002  Tot=              3.2745
 Quadrupole moment (field-independent basis, Debye-Ang):
   XX=            -12.2686   YY=            -11.4898   ZZ=            -11.7017
   XY=             -0.0329   XZ=              0.0005   YZ=              0.0000

 Normal termination of Gaussian 16 at Fri Sep 22 17:11:15 2023.
