 Gaussian 16, Revision A.03,
 Gaussian 16:  ES64L-G16RevA.03 25-Dec-2016

 ------------------------------------------------------
 # b3lyp/6-31+g(d,p) scrf=(iefpcm,solvent=acetonitrile)
 ------------------------------------------------------

 -----------------------
 tmpdir/M2_conf_0_69.gjf
 -----------------------
 Symbolic Z-matrix:
 Charge =  0 Multiplicity = 1

                         Standard orientation:
 ---------------------------------------------------------------------
 Center     Atomic      Atomic             Coordinates (Angstroms)
 Number     Number       Type             X           Y           Z
 ---------------------------------------------------------------------
      1          6           0        0.695609    0.507729    0.001707
      2          6           0       -0.700184    0.508628   -0.002770
      3          1           0       -1.253987    1.440482   -0.002539
      4          8           0        1.316505   -0.558913   -0.001209
      5          1           0        1.232856    1.451290    0.005954
      6          8           0       -1.310432   -0.564825    0.001579
 ---------------------------------------------------------------------

 SCF Done:  E(RB3LYP) =  -227.825324447     A.U. after   11 cycles

 The electronic state is 1-A.
 Alpha  occ. eigenvalues --  -19.20211 -19.20178 -10.30658 -10.30596  -1.10043
 Alpha  occ. eigenvalues --   -1.06212  -0.75970  -0.58082  -0.55931  -0.48764
 Alpha  occ. eigenvalues --   -0.46090  -0.45695  -0.38936  -0.31872  -0.29378
 Alpha virt. eigenvalues --   -0.14609   0.01296   0.02140   0.03499   0.03842
 Alpha virt. eigenvalues --    0.06081   0.07356   0.08862   0.10218   0.15338
 Alpha virt. eigenvalues --    0.15850   0.19861   0.20299   0.21604   0.24027

 Mulliken charges:
               1
     1  C    0.222845
     2  C    0.222545
     3  H    0.169241
     4  O   -0.391934
     5  H    0.167406
     6  O   -0.390103
 Sum of Mulliken charges =  -0.00000

 Dipole moment (field-independent basis, Debye):
    X=             -0.0390    Y=              4.9920    Z=             -0.0007  Tot=              4.9922
 Quadrupole moment (field-independent basis, Debye-Ang):
   XX=            -27.0074   YY=            -21.5335   ZZ=            -21.3012
   XY=             -0.0556   XZ=              0.0139   YZ=              0.0014

 Normal termination of Gaussian 16 at Fri Sep 22 17:11:14 2023.
