 Gaussian 16, Revision A.03,
 Gaussian 16:  ES64L-G16RevA.03 25-Dec-2016

 ------------------------------------------------------
 # b3lyp/6-31+g(d,p) scrf=(iefpcm,solvent=acetonitrile)
 ------------------------------------------------------

 ------------------------
 tmpdir/M2_conf_0_134.gjf
 ------------------------
 Symbolic Z-matrix:
 Charge =  0 Multiplicity = 1

                         Standard orientation:
 ---------------------------------------------------------------------
 Center     Atomic      Atomic             Coordinates (Angstroms)
 Number     Number       Type             X           Y           Z
 ---------------------------------------------------------------------
      1          6           0       -0.699617   -0.007886   -0.000409
      2          6           0        0.699382   -0.008608   -0.000497
      3          1           0        1.246617    0.928623    0.002869
      4          1           0       -1.212778   -0.880818    0.002856
      5          1           0       -1.238641    0.934439   -0.000247
      6          1           0        1.206211   -0.883278   -0.000041
 ---------------------------------------------------------------------

 SCF Done:  E(RB3LYP) =  -78.5886838089     A.U. after    9 cycles

 The electronic state is 1-A.
 Alpha  occ. eigenvalues --  -10.19608 -10.19548  -0.75816  -0.59959  -0.48008
 Alpha  occ. eigenvalues --   -0.41408  -0.37819  -0.27081
 Alpha virt. eigenvalues --   -0.02252   0.02535   0.03702   0.05222   0.06702
 Alpha virt. eigenvalues --    0.08824   0.09086   0.12404   0.16009   0.18268
 Alpha virt. eigenvalues --    0.21969   0.25645   0.32482   0.35438   0.58406

 Mulliken charges:
               1
     1  C   -0.298569
     2  C   -0.298626
     3  H    0.149914
     4  H    0.149134
     5  H    0.149516
     6  H    0.148632
 Sum of Mulliken charges =  -0.00000

 Dipole moment (field-independent basis, Debye):
    X=              0.0019    Y=             -0.0396    Z=              0.0070  Tot=              0.0402
 Quadrupole moment (field-independent basis, Debye-Ang):
   XX=            -12.2452   YY=            -12.2347   ZZ=            -16.1882
   XY=              0.0147   XZ=              0.0004   YZ=             -0.0002

 Normal termination of Gaussian 16 at Fri Sep 22 17:12:49 2023.
