 Gaussian 16, Revision A.03,
 Gaussian 16:  ES64L-G16RevA.03 25-Dec-2016

 ------------------------------------------------------
 # b3lyp/6-31+g(d,p) scrf=(iefpcm,solvent=acetonitrile)
 ------------------------------------------------------

 ------------------------
 tmpdir/M2_conf_0_127.gjf
 ------------------------
 Symbolic Z-matrix:
 Charge =  0 Multiplicity = 1

                         Standard orientation:
 ---------------------------------------------------------------------
 Center     Atomic      Atomic             Coordinates (Angstroms)
 Number     Number       Type             X           Y           Z
 ---------------------------------------------------------------------
      1          6           0       -0.787517    0.478535    0.000736
      2          6           0        0.600124    0.649215   -0.001247
      3          6           0        1.416390   -0.484132   -0.001357
      4          1           0       -1.450264    1.386914   -0.009795
      5          8           0       -1.306679   -0.639508    0.001102
      6          1           0        1.031307    1.644135    0.010549
      7          1           0        1.002942   -1.408490   -0.001237
      8          1           0        2.495466   -0.368207    0.002875
 ---------------------------------------------------------------------

 SCF Done:  E(RB3LYP) =  -191.920639329     A.U. after   12 cycles

 The electronic state is 1-A.
 Alpha  occ. eigenvalues --  -19.15936 -10.28412 -10.22515 -10.21327  -1.05090
 Alpha  occ. eigenvalues --   -0.80163  -0.67772  -0.55253  -0.52307  -0.46235
 Alpha  occ. eigenvalues --   -0.42300  -0.41102  -0.40048  -0.28725  -0.27366
 Alpha virt. eigenvalues --   -0.09721   0.01378   0.03037   0.03942   0.04180
 Alpha virt. eigenvalues --    0.06199   0.06521   0.07532   0.09661   0.09777
 Alpha virt. eigenvalues --    0.12153   0.12357   0.14237   0.16425   0.19804

 Mulliken charges:
               1
     1  C    0.061218
     2  C    0.077630
     3  C   -0.282514
     4  H    0.132480
     5  O   -0.499635
     6  H    0.161311
     7  H    0.177493
     8  H    0.172018
 Sum of Mulliken charges =  -0.00000

 Dipole moment (field-independent basis, Debye):
    X=              3.0832    Y=              2.2958    Z=              0.0078  Tot=              3.8440
 Quadrupole moment (field-independent basis, Debye-Ang):
   XX=            -24.2432   YY=            -22.4206   ZZ=            -25.2102
   XY=             -3.8759   XZ=              0.0308   YZ=              0.0183

 Normal termination of Gaussian 16 at Fri Sep 22 17:12:18 2023.
