 Gaussian 16, Revision A.03,
 Gaussian 16:  ES64L-G16RevA.03 25-Dec-2016

 ------------------------------------------------------
 # b3lyp/6-31+g(d,p) scrf=(iefpcm,solvent=acetonitrile)
 ------------------------------------------------------

 ------------------------
 tmpdir/M2_conf_0_131.gjf
 ------------------------
 Symbolic Z-matrix:
 Charge =  0 Multiplicity = 1

                         Standard orientation:
 ---------------------------------------------------------------------
 Center     Atomic      Atomic             Coordinates (Angstroms)
 Number     Number       Type             X           Y           Z
 ---------------------------------------------------------------------
      1          6           0        0.550682   -0.013118   -0.000525
      2          1           0        1.112962    0.915168    0.001065
      3          1           0        1.043328   -0.895852    0.001142
      4          8           0       -0.682548    0.007424    0.000118
 ---------------------------------------------------------------------

 SCF Done:  E(RB3LYP) =  -114.510724925     A.U. after    9 cycles

 The electronic state is 1-A.
 Alpha  occ. eigenvalues --  -19.18393 -10.28857  -1.06104  -0.65757  -0.51362
 Alpha  occ. eigenvalues --   -0.46048  -0.40371  -0.28336
 Alpha virt. eigenvalues --   -0.06551   0.02132   0.04254   0.05290   0.07329
 Alpha virt. eigenvalues --    0.16984   0.19503   0.20760   0.21407   0.25941
 Alpha virt. eigenvalues --    0.27400   0.35521   0.63227   0.65943   0.72304

 Mulliken charges:
               1
     1  C    0.126431
     2  H    0.141198
     3  H    0.147255
     4  O   -0.414884
 Sum of Mulliken charges =   0.00000

 Dipole moment (field-independent basis, Debye):
    X=              3.2689    Y=             -0.0976    Z=              0.0004  Tot=              3.2704
 Quadrupole moment (field-independent basis, Debye-Ang):
   XX=            -12.2707   YY=            -11.4895   ZZ=            -11.6995
   XY=             -0.0276   XZ=              0.0011   YZ=              0.0001

 Normal termination of Gaussian 16 at Fri Sep 22 17:12:14 2023.
