 Gaussian 16, Revision A.03,
 Gaussian 16:  ES64L-G16RevA.03 25-Dec-2016

 ------------------------------------------------------
 # b3lyp/6-31+g(d,p) scrf=(iefpcm,solvent=acetonitrile)
 ------------------------------------------------------

 -----------------------
 tmpdir/M2_conf_0_62.gjf
 -----------------------
 Symbolic Z-matrix:
 Charge =  0 Multiplicity = 1

                         Standard orientation:
 ---------------------------------------------------------------------
 Center     Atomic      Atomic             Coordinates (Angstroms)
 Number     Number       Type             X           Y           Z
 ---------------------------------------------------------------------
      1          6           0       -0.799759    0.480013   -0.000779
      2          6           0        0.589580    0.648350   -0.000783
      3          6           0        1.421488   -0.475552    0.001622
      4          1           0       -1.454019    1.401995    0.011304
      5          8           0       -1.292168   -0.652360   -0.000530
      6          1           0        1.004420    1.650243   -0.007104
      7          1           0        1.019523   -1.403963   -0.002758
      8          1           0        2.499564   -0.346266    0.002442
 ---------------------------------------------------------------------

 SCF Done:  E(RB3LYP) =  -191.919870122     A.U. after   12 cycles

 The electronic state is 1-A.
 Alpha  occ. eigenvalues --  -19.15999 -10.28530 -10.22491 -10.21278  -1.05037
 Alpha  occ. eigenvalues --   -0.79999  -0.67826  -0.55192  -0.52154  -0.46263
 Alpha  occ. eigenvalues --   -0.42341  -0.41073  -0.39925  -0.28631  -0.27431
 Alpha virt. eigenvalues --   -0.09773   0.01393   0.03008   0.03949   0.04122
 Alpha virt. eigenvalues --    0.06150   0.06520   0.07512   0.09681   0.09783
 Alpha virt. eigenvalues --    0.12168   0.12368   0.14215   0.16410   0.19894

 Mulliken charges:
               1
     1  C    0.066496
     2  C    0.072011
     3  C   -0.281779
     4  H    0.136346
     5  O   -0.500780
     6  H    0.158734
     7  H    0.176973
     8  H    0.172000
 Sum of Mulliken charges =  -0.00000

 Dipole moment (field-independent basis, Debye):
    X=              2.9886    Y=              2.3435    Z=             -0.0022  Tot=              3.7979
 Quadrupole moment (field-independent basis, Debye-Ang):
   XX=            -24.1769   YY=            -22.4250   ZZ=            -25.2343
   XY=             -3.9898   XZ=             -0.0126   YZ=             -0.0051

 Normal termination of Gaussian 16 at Fri Sep 22 17:11:14 2023.
