 Gaussian 16, Revision A.03,
 Gaussian 16:  ES64L-G16RevA.03 25-Dec-2016

 ------------------------------------------------------
 # b3lyp/6-31+g(d,p) scrf=(iefpcm,solvent=acetonitrile)
 ------------------------------------------------------

 -----------------------
 tmpdir/M2_conf_0_60.gjf
 -----------------------
 Symbolic Z-matrix:
 Charge =  0 Multiplicity = 1

                         Standard orientation:
 ---------------------------------------------------------------------
 Center     Atomic      Atomic             Coordinates (Angstroms)
 Number     Number       Type             X           Y           Z
 ---------------------------------------------------------------------
      1          6           0        0.697357   -0.007479   -0.000558
      2          6           0       -0.699143   -0.007330   -0.000660
      3          1           0        1.199212   -0.887543   -0.001088
      4          1           0        1.254336    0.922938    0.004460
      5          1           0       -1.206307   -0.882709    0.004850
      6          1           0       -1.236522    0.936168   -0.000913
 ---------------------------------------------------------------------

 SCF Done:  E(RB3LYP) =  -78.5890579054     A.U. after    9 cycles

 The electronic state is 1-A.
 Alpha  occ. eigenvalues --  -10.19567 -10.19509  -0.75867  -0.59906  -0.48033
 Alpha  occ. eigenvalues --   -0.41412  -0.37797  -0.27111
 Alpha virt. eigenvalues --   -0.02202   0.02542   0.03707   0.05215   0.06699
 Alpha virt. eigenvalues --    0.08822   0.09088   0.12420   0.16013   0.18260
 Alpha virt. eigenvalues --    0.21961   0.25654   0.32608   0.35449   0.58343

 Mulliken charges:
               1
     1  C   -0.298509
     2  C   -0.298189
     3  H    0.148219
     4  H    0.150137
     5  H    0.148918
     6  H    0.149424
 Sum of Mulliken charges =  -0.00000

 Dipole moment (field-independent basis, Debye):
    X=              0.0064    Y=             -0.0417    Z=              0.0095  Tot=              0.0433
 Quadrupole moment (field-independent basis, Debye-Ang):
   XX=            -12.2610   YY=            -12.2263   ZZ=            -16.1783
   XY=              0.0297   XZ=             -0.0006   YZ=             -0.0003

 Normal termination of Gaussian 16 at Fri Sep 22 17:10:49 2023.
