 Gaussian 16, Revision A.03,
 Gaussian 16:  ES64L-G16RevA.03 25-Dec-2016

 ------------------------------------------------------
 # b3lyp/6-31+g(d,p) scrf=(iefpcm,solvent=acetonitrile)
 ------------------------------------------------------

 ------------------------
 tmpdir/M2_conf_0_135.gjf
 ------------------------
 Symbolic Z-matrix:
 Charge =  0 Multiplicity = 1

                         Standard orientation:
 ---------------------------------------------------------------------
 Center     Atomic      Atomic             Coordinates (Angstroms)
 Number     Number       Type             X           Y           Z
 ---------------------------------------------------------------------
      1          6           0       -0.701718    0.484011   -0.000333
      2          6           0        0.697880    0.485667   -0.001158
      3          6           0       -1.401589   -0.724688   -0.000216
      4          1           0       -1.249405    1.420962    0.004799
      5          6           0        1.407669   -0.719905    0.000868
      6          1           0        1.235956    1.428534    0.000235
 ---------------------------------------------------------------------

 SCF Done:  E(RB3LYP) =  -153.325139624     A.U. after   13 cycles

 The electronic state is 1-A.
 Alpha  occ. eigenvalues --  -10.29048 -10.29018 -10.24111 -10.24050  -0.85649
 Alpha  occ. eigenvalues --   -0.72985  -0.61409  -0.50176  -0.49156  -0.36844
 Alpha  occ. eigenvalues --   -0.33617  -0.31491  -0.25391
 Alpha virt. eigenvalues --   -0.14463  -0.11527  -0.08308   0.02247   0.03752
 Alpha virt. eigenvalues --    0.04185   0.04496   0.05820   0.06097   0.08910
 Alpha virt. eigenvalues --    0.09204   0.09365   0.10647   0.12172   0.12874

 Mulliken charges:
               1
     1  C    0.189409
     2  C    0.184970
     3  C   -0.422986
     4  H    0.234549
     5  C   -0.420558
     6  H    0.234615
 Sum of Mulliken charges =  -0.00000

 Dipole moment (field-independent basis, Debye):
    X=             -0.0284    Y=              4.7424    Z=              0.0066  Tot=              4.7425
 Quadrupole moment (field-independent basis, Debye-Ang):
   XX=            -26.3987   YY=            -24.4035   ZZ=            -26.9266
   XY=             -0.0067   XZ=             -0.0175   YZ=              0.0135

 Normal termination of Gaussian 16 at Fri Sep 22 17:12:27 2023.
