 Gaussian 16, Revision A.03,
 Gaussian 16:  ES64L-G16RevA.03 25-Dec-2016

 ------------------------------------------------------
 # b3lyp/6-31+g(d,p) scrf=(iefpcm,solvent=acetonitrile)
 ------------------------------------------------------

 ------------------------
 tmpdir/M2_conf_0_125.gjf
 ------------------------
 Symbolic Z-matrix:
 Charge =  0 Multiplicity = 1

                         Standard orientation:
 ---------------------------------------------------------------------
 Center     Atomic      Atomic             Coordinates (Angstroms)
 Number     Number       Type             X           Y           Z
 ---------------------------------------------------------------------
      1          6           0       -0.698162   -0.007592   -0.001708
      2          6           0        0.697836   -0.006233   -0.000427
      3          1           0       -1.183182   -0.895890    0.002840
      4          1           0       -1.255475    0.922605    0.005707
      5          1           0        1.207125   -0.881431    0.003745
      6          1           0        1.233487    0.937666    0.000519
 ---------------------------------------------------------------------

 SCF Done:  E(RB3LYP) =  -78.5889679836     A.U. after    9 cycles

 The electronic state is 1-A.
 Alpha  occ. eigenvalues --  -10.19539 -10.19481  -0.75897  -0.59841  -0.48113
 Alpha  occ. eigenvalues --   -0.41317  -0.37839  -0.27114
 Alpha virt. eigenvalues --   -0.02182   0.02551   0.03718   0.05203   0.06698
 Alpha virt. eigenvalues --    0.08813   0.09085   0.12425   0.16010   0.18193
 Alpha virt. eigenvalues --    0.22041   0.25631   0.32644   0.35464   0.58315

 Mulliken charges:
               1
     1  C   -0.298193
     2  C   -0.298270
     3  H    0.147653
     4  H    0.150815
     5  H    0.148978
     6  H    0.149018
 Sum of Mulliken charges =   0.00000

 Dipole moment (field-independent basis, Debye):
    X=             -0.0016    Y=             -0.0425    Z=              0.0167  Tot=              0.0456
 Quadrupole moment (field-independent basis, Debye-Ang):
   XX=            -12.3033   YY=            -12.1986   ZZ=            -16.1771
   XY=             -0.0535   XZ=             -0.0065   YZ=             -0.0005

 Normal termination of Gaussian 16 at Fri Sep 22 17:12:12 2023.
