 Gaussian 16, Revision A.03,
 Gaussian 16:  ES64L-G16RevA.03 25-Dec-2016

 ------------------------------------------------------
 # b3lyp/6-31+g(d,p) scrf=(iefpcm,solvent=acetonitrile)
 ------------------------------------------------------

 -----------------------
 tmpdir/M2_conf_0_36.gjf
 -----------------------
 Symbolic Z-matrix:
 Charge =  0 Multiplicity = 1

                         Standard orientation:
 ---------------------------------------------------------------------
 Center     Atomic      Atomic             Coordinates (Angstroms)
 Number     Number       Type             X           Y           Z
 ---------------------------------------------------------------------
      1          6           0       -0.008849    0.000601   -0.002775
      2          1           0        0.342566   -0.089196    1.029773
      3          1           0       -1.100944   -0.003187   -0.039104
      4          1           0        0.410790   -0.839950   -0.563321
      5          1           0        0.400680    0.928726   -0.410697
 ---------------------------------------------------------------------

 SCF Done:  E(RB3LYP) =  -40.5259902722     A.U. after    7 cycles

 The electronic state is 1-A.
 Alpha  occ. eigenvalues --  -10.17176  -0.69492  -0.39813  -0.39119  -0.38863
 Alpha virt. eigenvalues --    0.01702   0.06185   0.06239   0.06257   0.17967
 Alpha virt. eigenvalues --    0.18144   0.18572   0.27870   0.63831   0.63905
 Alpha virt. eigenvalues --    0.63948   0.90520   0.90895   0.91854   1.05235

 Mulliken charges:
               1
     1  C   -0.623794
     2  H    0.154961
     3  H    0.157560
     4  H    0.155535
     5  H    0.155739
 Sum of Mulliken charges =   0.00000

 Dipole moment (field-independent basis, Debye):
    X=              0.0371    Y=             -0.0021    Z=              0.0122  Tot=              0.0391
 Quadrupole moment (field-independent basis, Debye-Ang):
   XX=             -8.3791   YY=             -8.5406   ZZ=             -8.5962
   XY=              0.0011   XZ=             -0.0014   YZ=             -0.0005

 Normal termination of Gaussian 16 at Fri Sep 22 17:10:24 2023.
