 Gaussian 16, Revision A.03,
 Gaussian 16:  ES64L-G16RevA.03 25-Dec-2016

 ------------------------------------------------------
 # b3lyp/6-31+g(d,p) scrf=(iefpcm,solvent=acetonitrile)
 ------------------------------------------------------

 ----------------------
 tmpdir/M2_conf_0_5.gjf
 ----------------------
 Symbolic Z-matrix:
 Charge =  0 Multiplicity = 2

                         Standard orientation:
 ---------------------------------------------------------------------
 Center     Atomic      Atomic             Coordinates (Angstroms)
 Number     Number       Type             X           Y           Z
 ---------------------------------------------------------------------
      1          6           0        1.270495   -0.208088    0.003969
      2          6           0        0.001730    0.585605   -0.015950
      3          6           0       -1.256822   -0.205035   -0.013587
      4          1           0        1.420372   -0.738040   -0.947540
      5          1           0        2.149841    0.407002    0.200144
      6          1           0        1.214811   -0.982778    0.777818
      7          1           0       -0.050368    1.648641    0.058226
      8          1           0       -2.138298    0.426165   -0.131007
      9          1           0       -1.243746   -0.991523   -0.775935
     10          1           0       -1.445026   -0.804359    0.971701
 ---------------------------------------------------------------------

 SCF Done:  E(UB3LYP) =  -118.489909077     A.U. after   12 cycles

 The electronic state is 2-A.
 Alpha  occ. eigenvalues --  -10.19361 -10.18425 -10.18014  -0.78484  -0.68709
 Alpha  occ. eigenvalues --   -0.57562  -0.45625  -0.42809  -0.40970  -0.37781
 Alpha  occ. eigenvalues --   -0.35925  -0.35037  -0.18581
 Alpha virt. eigenvalues --    0.01540   0.03119   0.03548   0.05279   0.06894
 Alpha virt. eigenvalues --    0.07822   0.08561   0.08947   0.10582   0.11678
 Alpha virt. eigenvalues --    0.12893   0.14976   0.18581   0.20190   0.21874

  Beta  occ. eigenvalues --  -10.18527 -10.18103 -10.18035  -0.76795  -0.68486
  Beta  occ. eigenvalues --   -0.55451  -0.45229  -0.41127  -0.40373  -0.37052
  Beta  occ. eigenvalues --   -0.35365  -0.34692
  Beta virt. eigenvalues --   -0.04807   0.01597   0.03130   0.03720   0.05335
  Beta virt. eigenvalues --    0.06918   0.07781   0.08482   0.09090   0.11656
  Beta virt. eigenvalues --    0.12321   0.13246   0.14976   0.19200   0.20567

 Mulliken charges and spin densities:
               1          2
     1  C   -0.571265  -0.101319
     2  C    0.073472   1.058050
     3  C   -0.566452  -0.112948
     4  H    0.160126   0.048649
     5  H    0.152766   0.002912
     6  H    0.155084   0.039482
     7  H    0.144456  -0.049875
     8  H    0.152721   0.003493
     9  H    0.155229   0.037479
    10  H    0.143863   0.074077
 Sum of Mulliken charges =  -0.00000   1.00000

 Dipole moment (field-independent basis, Debye):
    X=              0.0348    Y=             -0.1618    Z=              0.0509  Tot=              0.1732
 Quadrupole moment (field-independent basis, Debye-Ang):
   XX=            -21.0946   YY=            -20.7774   ZZ=            -22.2129
   XY=             -0.0987   XZ=             -0.0002   YZ=              0.2524

 Normal termination of Gaussian 16 at Fri Sep 22 17:11:46 2023.
