 Gaussian 16, Revision A.03,
 Gaussian 16:  ES64L-G16RevA.03 25-Dec-2016

 ------------------------------------------------------
 # b3lyp/6-31+g(d,p) scrf=(iefpcm,solvent=acetonitrile)
 ------------------------------------------------------

 -----------------------
 tmpdir/M2_conf_0_24.gjf
 -----------------------
 Symbolic Z-matrix:
 Charge =  0 Multiplicity = 1

                         Standard orientation:
 ---------------------------------------------------------------------
 Center     Atomic      Atomic             Coordinates (Angstroms)
 Number     Number       Type             X           Y           Z
 ---------------------------------------------------------------------
      1          6           0       -0.815513    0.480564    0.002831
      2          6           0        0.571379    0.641362   -0.004045
      3          6           0        1.443170   -0.459182   -0.001622
      4          8           0       -1.284125   -0.655900   -0.001721
      5          1           0       -1.479252    1.338651    0.014972
      6          1           0        0.989406    1.644323   -0.008336
      7          1           0        1.042168   -1.394523    0.004416
      8          1           0        2.526464   -0.317713    0.019739
 ---------------------------------------------------------------------

 SCF Done:  E(RB3LYP) =  -191.918944067     A.U. after   12 cycles

 The electronic state is 1-A.
 Alpha  occ. eigenvalues --  -19.15817 -10.28073 -10.22607 -10.21239  -1.05318
 Alpha  occ. eigenvalues --   -0.79725  -0.67940  -0.55706  -0.52305  -0.46045
 Alpha  occ. eigenvalues --   -0.42893  -0.41199  -0.39452  -0.28474  -0.27394
 Alpha virt. eigenvalues --   -0.09770   0.01400   0.03138   0.03968   0.04177
 Alpha virt. eigenvalues --    0.06215   0.06566   0.07497   0.09706   0.09804
 Alpha virt. eigenvalues --    0.12257   0.12403   0.14219   0.16382   0.19856

 Mulliken charges:
               1
     1  C    0.069177
     2  C    0.059943
     3  C   -0.276030
     4  O   -0.498704
     5  H    0.140851
     6  H    0.154888
     7  H    0.175388
     8  H    0.174488
 Sum of Mulliken charges =  -0.00000

 Dipole moment (field-independent basis, Debye):
    X=              2.8447    Y=              2.4019    Z=              0.0320  Tot=              3.7232
 Quadrupole moment (field-independent basis, Debye-Ang):
   XX=            -23.7860   YY=            -22.6048   ZZ=            -25.2170
   XY=             -4.1524   XZ=              0.0331   YZ=             -0.0184

 Normal termination of Gaussian 16 at Fri Sep 22 17:10:21 2023.
