 Gaussian 16, Revision A.03,
 Gaussian 16:  ES64L-G16RevA.03 25-Dec-2016

 ------------------------------------------------------
 # b3lyp/6-31+g(d,p) scrf=(iefpcm,solvent=acetonitrile)
 ------------------------------------------------------

 -----------------------
 tmpdir/M2_conf_0_78.gjf
 -----------------------
 Symbolic Z-matrix:
 Charge =  0 Multiplicity = 1

                         Standard orientation:
 ---------------------------------------------------------------------
 Center     Atomic      Atomic             Coordinates (Angstroms)
 Number     Number       Type             X           Y           Z
 ---------------------------------------------------------------------
      1          6           0       -0.700230    0.508671   -0.002770
      2          6           0        0.695562    0.507661    0.001705
      3          1           0        1.233874    1.450618    0.005957
      4          8           0       -1.310564   -0.564739    0.001579
      5          1           0       -1.252339    1.441539   -0.002534
      6          8           0        1.316373   -0.559030   -0.001208
 ---------------------------------------------------------------------

 SCF Done:  E(RB3LYP) =  -227.825333509     A.U. after   11 cycles

 The electronic state is 1-A.
 Alpha  occ. eigenvalues --  -19.20206 -19.20184 -10.30655 -10.30598  -1.10043
 Alpha  occ. eigenvalues --   -1.06212  -0.75972  -0.58080  -0.55929  -0.48765
 Alpha  occ. eigenvalues --   -0.46090  -0.45696  -0.38936  -0.31873  -0.29377
 Alpha virt. eigenvalues --   -0.14610   0.01296   0.02140   0.03498   0.03843
 Alpha virt. eigenvalues --    0.06081   0.07356   0.08863   0.10218   0.15338
 Alpha virt. eigenvalues --    0.15849   0.19861   0.20304   0.21604   0.24033

 Mulliken charges:
               1
     1  C    0.222788
     2  C    0.222695
     3  H    0.167396
     4  O   -0.390253
     5  H    0.169246
     6  O   -0.391872
 Sum of Mulliken charges =   0.00000

 Dipole moment (field-independent basis, Debye):
    X=             -0.0379    Y=              4.9921    Z=             -0.0007  Tot=              4.9923
 Quadrupole moment (field-independent basis, Debye-Ang):
   XX=            -27.0091   YY=            -21.5324   ZZ=            -21.3012
   XY=             -0.0527   XZ=              0.0139   YZ=              0.0014

 Normal termination of Gaussian 16 at Fri Sep 22 17:11:27 2023.
