 Gaussian 16, Revision A.03,
 Gaussian 16:  ES64L-G16RevA.03 25-Dec-2016

 ------------------------------------------------------
 # b3lyp/6-31+g(d,p) scrf=(iefpcm,solvent=acetonitrile)
 ------------------------------------------------------

 ------------------------
 tmpdir/M2_conf_0_117.gjf
 ------------------------
 Symbolic Z-matrix:
 Charge =  0 Multiplicity = 1

                         Standard orientation:
 ---------------------------------------------------------------------
 Center     Atomic      Atomic             Coordinates (Angstroms)
 Number     Number       Type             X           Y           Z
 ---------------------------------------------------------------------
      1         16           0       -0.544662    0.037645    0.237345
      2          6           0        1.050377   -0.753751   -0.019449
      3          6           0        2.203606    0.034835   -0.075805
      4          1           0       -0.692121    0.037563    1.653290
      5          8           0       -0.458903    1.434681   -0.242699
      6          8           0       -1.596152   -0.842122   -0.328578
      7          1           0        1.091297   -1.761014   -0.109369
      8          1           0        3.096386   -0.419464   -0.211699
      9          1           0        2.135577    1.113625    0.012008
 ---------------------------------------------------------------------

 SCF Done:  E(RB3LYP) =  -627.161567254     A.U. after   12 cycles

 The electronic state is 1-A.
 Alpha  occ. eigenvalues --  -89.12470 -19.17383 -19.17142 -10.24633 -10.23844
 Alpha  occ. eigenvalues --   -8.15318  -6.11774  -6.11686  -6.11616  -1.12024
 Alpha  occ. eigenvalues --   -1.01909  -0.81706  -0.71295  -0.61993  -0.54576
 Alpha  occ. eigenvalues --   -0.51520  -0.48665  -0.46212  -0.43142  -0.35902
 Alpha  occ. eigenvalues --   -0.34497  -0.32827  -0.32160  -0.30906
 Alpha virt. eigenvalues --   -0.07258  -0.01111   0.01088   0.01736   0.03017
 Alpha virt. eigenvalues --    0.04485   0.05532   0.06822   0.07981   0.08625
 Alpha virt. eigenvalues --    0.09628   0.10254   0.11098   0.12521   0.13892

 Mulliken charges:
               1
     1  S    1.070211
     2  C   -0.319585
     3  C   -0.145941
     4  H    0.098477
     5  O   -0.643135
     6  O   -0.637072
     7  H    0.202798
     8  H    0.183182
     9  H    0.191066
 Sum of Mulliken charges =  -0.00000

 Dipole moment (field-independent basis, Debye):
    X=              5.1455    Y=             -1.6156    Z=              3.2586  Tot=              6.3011
 Quadrupole moment (field-independent basis, Debye-Ang):
   XX=            -35.1638   YY=            -40.7883   ZZ=            -35.6060
   XY=             -2.3336   XZ=             -3.6622   YZ=              0.6054

 Normal termination of Gaussian 16 at Fri Sep 22 17:12:14 2023.
