 Gaussian 16, Revision A.03,
 Gaussian 16:  ES64L-G16RevA.03 25-Dec-2016

 ------------------------------------------------------
 # b3lyp/6-31+g(d,p) scrf=(iefpcm,solvent=acetonitrile)
 ------------------------------------------------------

 ------------------------
 tmpdir/M2_conf_0_128.gjf
 ------------------------
 Symbolic Z-matrix:
 Charge =  0 Multiplicity = 1

                         Standard orientation:
 ---------------------------------------------------------------------
 Center     Atomic      Atomic             Coordinates (Angstroms)
 Number     Number       Type             X           Y           Z
 ---------------------------------------------------------------------
      1          6           0       -0.685930    0.499289    0.000700
      2          6           0        0.712146    0.507300   -0.000951
      3          1           0        1.258804    1.443753    0.010919
      4          1           0       -1.238443    1.478629   -0.009994
      5          8           0       -1.331694   -0.550726    0.000944
      6          8           0        1.309487   -0.569513   -0.000871
 ---------------------------------------------------------------------

 SCF Done:  E(RB3LYP) =  -227.825790571     A.U. after   11 cycles

 The electronic state is 1-A.
 Alpha  occ. eigenvalues --  -19.20303 -19.20265 -10.30929 -10.30750  -1.10183
 Alpha  occ. eigenvalues --   -1.06435  -0.75830  -0.57819  -0.55532  -0.48855
 Alpha  occ. eigenvalues --   -0.46179  -0.45661  -0.39096  -0.31988  -0.29309
 Alpha virt. eigenvalues --   -0.14573   0.01259   0.02181   0.03407   0.03811
 Alpha virt. eigenvalues --    0.06062   0.07245   0.08850   0.10185   0.15306
 Alpha virt. eigenvalues --    0.15814   0.19822   0.19863   0.21387   0.23691

 Mulliken charges:
               1
     1  C    0.215954
     2  C    0.227052
     3  H    0.171680
     4  H    0.162181
     5  O   -0.389831
     6  O   -0.387036
 Sum of Mulliken charges =  -0.00000

 Dipole moment (field-independent basis, Debye):
    X=              0.1811    Y=              4.9179    Z=              0.0004  Tot=              4.9213
 Quadrupole moment (field-independent basis, Debye-Ang):
   XX=            -27.0560   YY=            -21.6096   ZZ=            -21.3361
   XY=              0.1993   XZ=              0.0197   YZ=              0.0010

 Normal termination of Gaussian 16 at Fri Sep 22 17:12:31 2023.
