 Gaussian 16, Revision A.03,
 Gaussian 16:  ES64L-G16RevA.03 25-Dec-2016

 ------------------------------------------------------
 # b3lyp/6-31+g(d,p) scrf=(iefpcm,solvent=acetonitrile)
 ------------------------------------------------------

 -----------------------
 tmpdir/M2_conf_0_29.gjf
 -----------------------
 Symbolic Z-matrix:
 Charge =  0 Multiplicity = 1

                         Standard orientation:
 ---------------------------------------------------------------------
 Center     Atomic      Atomic             Coordinates (Angstroms)
 Number     Number       Type             X           Y           Z
 ---------------------------------------------------------------------
      1          6           0        1.435371   -0.464010    0.001838
      2          6           0        0.581312    0.638218   -0.003388
      3          6           0       -0.816526    0.487847   -0.002867
      4          1           0        1.037293   -1.394722   -0.005471
      5          1           0        2.512124   -0.318220    0.009668
      6          1           0        1.005125    1.638648   -0.001860
      7          8           0       -1.285613   -0.657614    0.000492
      8          1           0       -1.470578    1.362879    0.020227
 ---------------------------------------------------------------------

 SCF Done:  E(RB3LYP) =  -191.920192759     A.U. after   12 cycles

 The electronic state is 1-A.
 Alpha  occ. eigenvalues --  -19.15949 -10.28368 -10.22317 -10.21204  -1.04923
 Alpha  occ. eigenvalues --   -0.79781  -0.67892  -0.55681  -0.52257  -0.46064
 Alpha  occ. eigenvalues --   -0.42808  -0.40979  -0.39508  -0.28552  -0.27460
 Alpha virt. eigenvalues --   -0.09735   0.01417   0.03131   0.03951   0.04032
 Alpha virt. eigenvalues --    0.06206   0.06543   0.07490   0.09711   0.09800
 Alpha virt. eigenvalues --    0.12276   0.12427   0.14254   0.16391   0.19970

 Mulliken charges:
               1
     1  C   -0.278612
     2  C    0.059135
     3  C    0.073455
     4  H    0.174358
     5  H    0.172592
     6  H    0.154818
     7  O   -0.499957
     8  H    0.144211
 Sum of Mulliken charges =  -0.00000

 Dipole moment (field-independent basis, Debye):
    X=              2.8249    Y=              2.4479    Z=              0.0087  Tot=              3.7380
 Quadrupole moment (field-independent basis, Debye-Ang):
   XX=            -23.9112   YY=            -22.5164   ZZ=            -25.2220
   XY=             -4.1664   XZ=              0.0110   YZ=              0.0133

 Normal termination of Gaussian 16 at Fri Sep 22 17:10:42 2023.
