 Gaussian 16, Revision A.03,
 Gaussian 16:  ES64L-G16RevA.03 25-Dec-2016

 ------------------------------------------------------
 # b3lyp/6-31+g(d,p) scrf=(iefpcm,solvent=acetonitrile)
 ------------------------------------------------------

 ----------------------
 tmpdir/M2_conf_0_7.gjf
 ----------------------
 Symbolic Z-matrix:
 Charge =  0 Multiplicity = 1

                         Standard orientation:
 ---------------------------------------------------------------------
 Center     Atomic      Atomic             Coordinates (Angstroms)
 Number     Number       Type             X           Y           Z
 ---------------------------------------------------------------------
      1          6           0        0.710212    0.479777   -0.013937
      2          6           0       -0.725310    0.485363   -0.000015
      3          6           0        1.426810   -0.716152    0.003917
      4          1           0        1.254311    1.470212    0.041303
      5          6           0       -1.407566   -0.730722    0.002370
      6          1           0       -1.279187    1.420193    0.004692
 ---------------------------------------------------------------------

 SCF Done:  E(RB3LYP) =  -153.328152086     A.U. after   13 cycles

 The electronic state is 1-A.
 Alpha  occ. eigenvalues --  -10.29068 -10.28988 -10.24734 -10.24401  -0.84975
 Alpha  occ. eigenvalues --   -0.73134  -0.60794  -0.49836  -0.48599  -0.36474
 Alpha  occ. eigenvalues --   -0.33526  -0.31633  -0.25677
 Alpha virt. eigenvalues --   -0.14334  -0.11793  -0.08024   0.02221   0.03700
 Alpha virt. eigenvalues --    0.03819   0.04399   0.05740   0.06083   0.08859
 Alpha virt. eigenvalues --    0.09167   0.09330   0.10692   0.12121   0.12780

 Mulliken charges:
               1
     1  C    0.199009
     2  C    0.178175
     3  C   -0.439919
     4  H    0.241783
     5  C   -0.414312
     6  H    0.235264
 Sum of Mulliken charges =  -0.00000

 Dipole moment (field-independent basis, Debye):
    X=             -0.1211    Y=              4.8016    Z=              0.0614  Tot=              4.8035
 Quadrupole moment (field-independent basis, Debye-Ang):
   XX=            -26.4028   YY=            -24.3154   ZZ=            -27.0425
   XY=              0.0853   XZ=              0.1068   YZ=              0.1290

 Normal termination of Gaussian 16 at Fri Sep 22 17:10:24 2023.
