 Gaussian 16, Revision A.03,
 Gaussian 16:  ES64L-G16RevA.03 25-Dec-2016

 ------------------------------------------------------
 # b3lyp/6-31+g(d,p) scrf=(iefpcm,solvent=acetonitrile)
 ------------------------------------------------------

 ------------------------
 tmpdir/M2_conf_0_129.gjf
 ------------------------
 Symbolic Z-matrix:
 Charge =  0 Multiplicity = 1

                         Standard orientation:
 ---------------------------------------------------------------------
 Center     Atomic      Atomic             Coordinates (Angstroms)
 Number     Number       Type             X           Y           Z
 ---------------------------------------------------------------------
      1          6           0        0.697952   -0.006430   -0.000450
      2          6           0       -0.698747   -0.007674   -0.001708
      3          1           0       -1.252245    0.924799    0.005762
      4          1           0        1.207169   -0.881661    0.003840
      5          1           0        1.233681    0.937428    0.000521
      6          1           0       -1.183839   -0.895942    0.002822
 ---------------------------------------------------------------------

 SCF Done:  E(RB3LYP) =  -78.5888791117     A.U. after    9 cycles

 The electronic state is 1-A.
 Alpha  occ. eigenvalues --  -10.19545 -10.19489  -0.75886  -0.59837  -0.48127
 Alpha  occ. eigenvalues --   -0.41283  -0.37860  -0.27104
 Alpha virt. eigenvalues --   -0.02193   0.02551   0.03719   0.05202   0.06699
 Alpha virt. eigenvalues --    0.08811   0.09083   0.12422   0.16008   0.18174
 Alpha virt. eigenvalues --    0.22064   0.25616   0.32614   0.35461   0.58329

 Mulliken charges:
               1
     1  C   -0.298369
     2  C   -0.298251
     3  H    0.150812
     4  H    0.148972
     5  H    0.149066
     6  H    0.147771
 Sum of Mulliken charges =  -0.00000

 Dipole moment (field-independent basis, Debye):
    X=             -0.0001    Y=             -0.0417    Z=              0.0169  Tot=              0.0450
 Quadrupole moment (field-independent basis, Debye-Ang):
   XX=            -12.3116   YY=            -12.1927   ZZ=            -16.1807
   XY=             -0.0495   XZ=             -0.0064   YZ=             -0.0005

 Normal termination of Gaussian 16 at Fri Sep 22 17:12:02 2023.
