 Gaussian 16, Revision A.03,
 Gaussian 16:  ES64L-G16RevA.03 25-Dec-2016

 ------------------------------------------------------
 # b3lyp/6-31+g(d,p) scrf=(iefpcm,solvent=acetonitrile)
 ------------------------------------------------------

 -----------------------
 tmpdir/M2_conf_0_99.gjf
 -----------------------
 Symbolic Z-matrix:
 Charge =  0 Multiplicity = 1

                         Standard orientation:
 ---------------------------------------------------------------------
 Center     Atomic      Atomic             Coordinates (Angstroms)
 Number     Number       Type             X           Y           Z
 ---------------------------------------------------------------------
      1          6           0        1.635329   -0.045944   -0.132771
      2         16           0       -0.194167   -0.000501    0.233739
      3          1           0        1.874282   -0.205014   -1.169668
      4          1           0        2.029959   -0.837248    0.505420
      5          1           0        1.976137    0.934682    0.216681
      6          8           0       -0.819654   -1.248006   -0.258208
      7          8           0       -0.722733    1.296617   -0.254089
      8          1           0       -0.246590    0.002370    1.602733
 ---------------------------------------------------------------------

 SCF Done:  E(RB3LYP) =  -589.098878157     A.U. after   11 cycles

 The electronic state is 1-A.
 Alpha  occ. eigenvalues --  -89.11892 -19.16959 -19.16852 -10.23608  -8.14884
 Alpha  occ. eigenvalues --   -6.11325  -6.11246  -6.11161  -1.11700  -1.01598
 Alpha  occ. eigenvalues --   -0.78252  -0.67072  -0.53604  -0.49458  -0.48200
 Alpha  occ. eigenvalues --   -0.44486  -0.43959  -0.35441  -0.34167  -0.32363
 Alpha  occ. eigenvalues --   -0.31303
 Alpha virt. eigenvalues --   -0.01369   0.00726   0.01149   0.02538   0.04734
 Alpha virt. eigenvalues --    0.06421   0.06994   0.07647   0.08961   0.11364
 Alpha virt. eigenvalues --    0.11576   0.13329   0.14304   0.17488   0.18725

 Mulliken charges:
               1
     1  C   -0.550773
     2  S    1.069076
     3  H    0.230058
     4  H    0.216965
     5  H    0.214723
     6  O   -0.632163
     7  O   -0.642566
     8  H    0.094680
 Sum of Mulliken charges =   0.00000

 Dipole moment (field-independent basis, Debye):
    X=              5.1206    Y=             -0.1989    Z=              3.1106  Tot=              5.9946
 Quadrupole moment (field-independent basis, Debye-Ang):
   XX=            -29.8757   YY=            -39.1571   ZZ=            -27.8680
   XY=             -0.3578   XZ=             -2.2175   YZ=              0.0652

 Normal termination of Gaussian 16 at Fri Sep 22 17:11:56 2023.
