 Gaussian 16, Revision A.03,
 Gaussian 16:  ES64L-G16RevA.03 25-Dec-2016

 ------------------------------------------------------
 # b3lyp/6-31+g(d,p) scrf=(iefpcm,solvent=acetonitrile)
 ------------------------------------------------------

 -----------------------
 tmpdir/M2_conf_0_67.gjf
 -----------------------
 Symbolic Z-matrix:
 Charge =  0 Multiplicity = 1

                         Standard orientation:
 ---------------------------------------------------------------------
 Center     Atomic      Atomic             Coordinates (Angstroms)
 Number     Number       Type             X           Y           Z
 ---------------------------------------------------------------------
      1          6           0       -1.417134   -0.472749    0.002614
      2          6           0       -0.583082    0.652548   -0.002339
      3          6           0        0.802384    0.483069    0.001684
      4          1           0       -2.542658   -0.366117   -0.006037
      5          1           0       -1.020562   -1.405007    0.002975
      6          1           0       -1.018696    1.645164   -0.001687
      7          8           0        1.289905   -0.650759   -0.001616
      8          1           0        1.449671    1.354828    0.005920
 ---------------------------------------------------------------------

 SCF Done:  E(RB3LYP) =  -191.918176301     A.U. after   12 cycles

 The electronic state is 1-A.
 Alpha  occ. eigenvalues --  -19.15814 -10.28102 -10.22913 -10.21284  -1.05008
 Alpha  occ. eigenvalues --   -0.79887  -0.67784  -0.55688  -0.52197  -0.46149
 Alpha  occ. eigenvalues --   -0.42135  -0.41062  -0.39670  -0.28560  -0.27407
 Alpha virt. eigenvalues --   -0.09783   0.01344   0.03109   0.03928   0.04144
 Alpha virt. eigenvalues --    0.06214   0.06528   0.07440   0.09675   0.09791
 Alpha virt. eigenvalues --    0.12182   0.12365   0.14093   0.16418   0.19550

 Mulliken charges:
               1
     1  C   -0.276089
     2  C    0.063626
     3  C    0.068774
     4  H    0.172203
     5  H    0.177472
     6  H    0.159331
     7  O   -0.504392
     8  H    0.139076
 Sum of Mulliken charges =  -0.00000

 Dipole moment (field-independent basis, Debye):
    X=             -2.9465    Y=              2.3827    Z=              0.0052  Tot=              3.7893
 Quadrupole moment (field-independent basis, Debye-Ang):
   XX=            -24.0485   YY=            -22.4316   ZZ=            -25.2363
   XY=              4.1054   XZ=              0.0228   YZ=             -0.0027

 Normal termination of Gaussian 16 at Fri Sep 22 17:11:11 2023.
