 Gaussian 16, Revision A.03,
 Gaussian 16:  ES64L-G16RevA.03 25-Dec-2016

 ------------------------------------------------------
 # b3lyp/6-31+g(d,p) scrf=(iefpcm,solvent=acetonitrile)
 ------------------------------------------------------

 -----------------------
 tmpdir/M2_conf_0_98.gjf
 -----------------------
 Symbolic Z-matrix:
 Charge =  0 Multiplicity = 1

                         Standard orientation:
 ---------------------------------------------------------------------
 Center     Atomic      Atomic             Coordinates (Angstroms)
 Number     Number       Type             X           Y           Z
 ---------------------------------------------------------------------
      1          6           0       -0.025472    0.000152   -0.000469
      2          1           0        0.188922   -0.769042    0.745432
      3          1           0       -0.943897   -0.197682   -0.524804
      4          1           0       -0.019660    0.989351    0.458489
      5          1           0        0.927469   -0.023536   -0.676301
 ---------------------------------------------------------------------

 SCF Done:  E(RB3LYP) =  -40.5215658419     A.U. after    8 cycles

 The electronic state is 1-A.
 Alpha  occ. eigenvalues --  -10.17750  -0.69197  -0.40557  -0.39590  -0.37078
 Alpha virt. eigenvalues --    0.01600   0.06089   0.06181   0.06378   0.15649
 Alpha virt. eigenvalues --    0.18504   0.19132   0.27276   0.63399   0.63714
 Alpha virt. eigenvalues --    0.65001   0.87591   0.91517   0.92793   1.04306

 Mulliken charges:
               1
     1  C   -0.621122
     2  H    0.157591
     3  H    0.163075
     4  H    0.158626
     5  H    0.141829
 Sum of Mulliken charges =   0.00000

 Dipole moment (field-independent basis, Debye):
    X=              0.0137    Y=             -0.0014    Z=              0.0615  Tot=              0.0630
 Quadrupole moment (field-independent basis, Debye-Ang):
   XX=             -8.3437   YY=             -8.5173   ZZ=             -8.8018
   XY=              0.0174   XZ=              0.1757   YZ=              0.0109

 Normal termination of Gaussian 16 at Fri Sep 22 17:11:46 2023.
