 Gaussian 16, Revision A.03,
 Gaussian 16:  ES64L-G16RevA.03 25-Dec-2016

 ------------------------------------------------------
 # b3lyp/6-31+g(d,p) scrf=(iefpcm,solvent=acetonitrile)
 ------------------------------------------------------

 -----------------------
 tmpdir/M2_conf_0_87.gjf
 -----------------------
 Symbolic Z-matrix:
 Charge =  0 Multiplicity = 1

                         Standard orientation:
 ---------------------------------------------------------------------
 Center     Atomic      Atomic             Coordinates (Angstroms)
 Number     Number       Type             X           Y           Z
 ---------------------------------------------------------------------
      1          7           0        1.111558   -0.151386   -0.018311
      2          6           0       -0.173015    0.411406   -0.030288
      3          8           0       -1.203176   -0.270296    0.036480
      4          1           0        1.935191    0.425944    0.328382
      5          1           0        1.231946   -1.139309   -0.172510
      6          1           0       -0.284549    1.466999   -0.137813
 ---------------------------------------------------------------------

 SCF Done:  E(RB3LYP) =  -169.912021433     A.U. after   10 cycles

 The electronic state is 1-A.
 Alpha  occ. eigenvalues --  -19.15027 -14.37727 -10.31061  -1.04887  -0.90110
 Alpha  occ. eigenvalues --   -0.63356  -0.54300  -0.50369  -0.44030  -0.40529
 Alpha  occ. eigenvalues --   -0.28861  -0.28001
 Alpha virt. eigenvalues --   -0.01604   0.00792   0.03494   0.04144   0.06174
 Alpha virt. eigenvalues --    0.10340   0.10934   0.14388   0.16642   0.18731
 Alpha virt. eigenvalues --    0.19954   0.22374   0.23796   0.25477   0.27202

 Mulliken charges:
               1
     1  N   -0.559819
     2  C    0.287971
     3  O   -0.556925
     4  H    0.338171
     5  H    0.338967
     6  H    0.151634
 Sum of Mulliken charges =  -0.00000

 Dipole moment (field-independent basis, Debye):
    X=              4.6586    Y=              1.4886    Z=              0.1632  Tot=              4.8933
 Quadrupole moment (field-independent basis, Debye-Ang):
   XX=            -18.6015   YY=            -15.2221   ZZ=            -19.1247
   XY=             -1.8538   XZ=              1.2146   YZ=              0.7733

 Normal termination of Gaussian 16 at Fri Sep 22 17:11:29 2023.
