 Gaussian 16, Revision A.03,
 Gaussian 16:  ES64L-G16RevA.03 25-Dec-2016

 ------------------------------------------------------
 # b3lyp/6-31+g(d,p) scrf=(iefpcm,solvent=acetonitrile)
 ------------------------------------------------------

 -----------------------
 tmpdir/M2_conf_0_72.gjf
 -----------------------
 Symbolic Z-matrix:
 Charge =  0 Multiplicity = 1

                         Standard orientation:
 ---------------------------------------------------------------------
 Center     Atomic      Atomic             Coordinates (Angstroms)
 Number     Number       Type             X           Y           Z
 ---------------------------------------------------------------------
      1          6           0        1.423263   -0.471589   -0.000228
      2          6           0        0.585191    0.647730   -0.002074
      3          6           0       -0.802799    0.484106    0.000271
      4          1           0        1.019679   -1.400827   -0.003325
      5          1           0        2.501832   -0.359691    0.008871
      6          1           0        1.018254    1.643426    0.000425
      7          8           0       -1.290123   -0.649804    0.000246
      8          1           0       -1.452715    1.354037    0.004244
 ---------------------------------------------------------------------

 SCF Done:  E(RB3LYP) =  -191.919862130     A.U. after   12 cycles

 The electronic state is 1-A.
 Alpha  occ. eigenvalues --  -19.15827 -10.28112 -10.22421 -10.21233  -1.05016
 Alpha  occ. eigenvalues --   -0.79931  -0.67975  -0.55744  -0.52349  -0.46103
 Alpha  occ. eigenvalues --   -0.42652  -0.41052  -0.39700  -0.28564  -0.27404
 Alpha virt. eigenvalues --   -0.09750   0.01412   0.03126   0.03965   0.04152
 Alpha virt. eigenvalues --    0.06263   0.06541   0.07530   0.09681   0.09811
 Alpha virt. eigenvalues --    0.12247   0.12388   0.14316   0.16406   0.20003

 Mulliken charges:
               1
     1  C   -0.278648
     2  C    0.067073
     3  C    0.068875
     4  H    0.176009
     5  H    0.172228
     6  H    0.158006
     7  O   -0.503095
     8  H    0.139552
 Sum of Mulliken charges =  -0.00000

 Dipole moment (field-independent basis, Debye):
    X=              2.9346    Y=              2.3893    Z=              0.0088  Tot=              3.7843
 Quadrupole moment (field-independent basis, Debye-Ang):
   XX=            -24.0125   YY=            -22.4439   ZZ=            -25.1858
   XY=             -4.1046   XZ=              0.0208   YZ=              0.0058

 Normal termination of Gaussian 16 at Fri Sep 22 17:11:22 2023.
