 Gaussian 16, Revision A.03,
 Gaussian 16:  ES64L-G16RevA.03 25-Dec-2016

 ------------------------------------------------------
 # b3lyp/6-31+g(d,p) scrf=(iefpcm,solvent=acetonitrile)
 ------------------------------------------------------

 -----------------------
 tmpdir/M2_conf_0_61.gjf
 -----------------------
 Symbolic Z-matrix:
 Charge =  0 Multiplicity = 1

                         Standard orientation:
 ---------------------------------------------------------------------
 Center     Atomic      Atomic             Coordinates (Angstroms)
 Number     Number       Type             X           Y           Z
 ---------------------------------------------------------------------
      1          6           0        0.550063   -0.012489   -0.000589
      2          1           0        1.123004    0.909137    0.001202
      3          1           0        1.037079   -0.900850    0.001272
      4          8           0       -0.682558    0.008331    0.000133
 ---------------------------------------------------------------------

 SCF Done:  E(RB3LYP) =  -114.511030895     A.U. after    9 cycles

 The electronic state is 1-A.
 Alpha  occ. eigenvalues --  -19.18401 -10.28869  -1.06139  -0.65723  -0.51322
 Alpha  occ. eigenvalues --   -0.46073  -0.40392  -0.28336
 Alpha virt. eigenvalues --   -0.06536   0.02133   0.04244   0.05292   0.07329
 Alpha virt. eigenvalues --    0.17004   0.19481   0.20774   0.21408   0.25934
 Alpha virt. eigenvalues --    0.27349   0.35543   0.63223   0.66009   0.72265

 Mulliken charges:
               1
     1  C    0.126189
     2  H    0.141795
     3  H    0.146465
     4  O   -0.414450
 Sum of Mulliken charges =  -0.00000

 Dipole moment (field-independent basis, Debye):
    X=              3.2661    Y=             -0.0977    Z=              0.0005  Tot=              3.2675
 Quadrupole moment (field-independent basis, Debye-Ang):
   XX=            -12.2658   YY=            -11.4968   ZZ=            -11.6994
   XY=             -0.0032   XZ=              0.0013   YZ=              0.0001

 Normal termination of Gaussian 16 at Fri Sep 22 17:10:53 2023.
