 Gaussian 16, Revision A.03,
 Gaussian 16:  ES64L-G16RevA.03 25-Dec-2016

 ------------------------------------------------------
 # b3lyp/6-31+g(d,p) scrf=(iefpcm,solvent=acetonitrile)
 ------------------------------------------------------

 ----------------------
 tmpdir/M2_conf_0_6.gjf
 ----------------------
 Symbolic Z-matrix:
 Charge =  0 Multiplicity = 1

                         Standard orientation:
 ---------------------------------------------------------------------
 Center     Atomic      Atomic             Coordinates (Angstroms)
 Number     Number       Type             X           Y           Z
 ---------------------------------------------------------------------
      1          6           0       -0.714262   -0.015659   -0.010450
      2          6           0        0.722258   -0.005254    0.000572
      3          1           0       -1.231688   -0.885308    0.016448
      4          1           0       -1.290950    0.956834    0.031502
      5          1           0        1.218861   -0.885426    0.014893
      6          1           0        1.255798    0.939379   -0.003575
 ---------------------------------------------------------------------

 SCF Done:  E(RB3LYP) =  -78.5819351224     A.U. after    9 cycles

 The electronic state is 1-A.
 Alpha  occ. eigenvalues --  -10.20580 -10.20198  -0.75047  -0.60089  -0.47549
 Alpha  occ. eigenvalues --   -0.40962  -0.37988  -0.26656
 Alpha virt. eigenvalues --   -0.02975   0.02473   0.03582   0.05236   0.06733
 Alpha virt. eigenvalues --    0.08788   0.08989   0.12161   0.15826   0.17611
 Alpha virt. eigenvalues --    0.21749   0.24751   0.30719   0.34900   0.59296

 Mulliken charges:
               1
     1  C   -0.303376
     2  C   -0.305524
     3  H    0.152965
     4  H    0.149877
     5  H    0.151960
     6  H    0.154099
 Sum of Mulliken charges =  -0.00000

 Dipole moment (field-independent basis, Debye):
    X=              0.0104    Y=             -0.0537    Z=              0.0768  Tot=              0.0943
 Quadrupole moment (field-independent basis, Debye-Ang):
   XX=            -12.1929   YY=            -12.2641   ZZ=            -16.4023
   XY=              0.0370   XZ=             -0.0559   YZ=             -0.0040

 Normal termination of Gaussian 16 at Fri Sep 22 17:10:08 2023.
