 Gaussian 16, Revision A.03,
 Gaussian 16:  ES64L-G16RevA.03 25-Dec-2016

 ------------------------------------------------------
 # b3lyp/6-31+g(d,p) scrf=(iefpcm,solvent=acetonitrile)
 ------------------------------------------------------

 -----------------------
 tmpdir/M2_conf_0_19.gjf
 -----------------------
 Symbolic Z-matrix:
 Charge =  0 Multiplicity = 1

                         Standard orientation:
 ---------------------------------------------------------------------
 Center     Atomic      Atomic             Coordinates (Angstroms)
 Number     Number       Type             X           Y           Z
 ---------------------------------------------------------------------
      1          6           0        0.800170    0.475773   -0.013205
      2          6           0       -0.588707    0.638222   -0.000754
      3          6           0       -1.432765   -0.471699    0.001060
      4          8           0        1.309535   -0.642923    0.002708
      5          1           0        1.452016    1.398837    0.042600
      6          1           0       -1.034094    1.629342    0.003798
      7          1           0       -1.057656   -1.417738    0.004803
      8          1           0       -2.508735   -0.320827    0.004534
 ---------------------------------------------------------------------

 SCF Done:  E(RB3LYP) =  -191.921136111     A.U. after   12 cycles

 The electronic state is 1-A.
 Alpha  occ. eigenvalues --  -19.16068 -10.28537 -10.22502 -10.21268  -1.05352
 Alpha  occ. eigenvalues --   -0.80062  -0.67769  -0.55235  -0.52227  -0.46265
 Alpha  occ. eigenvalues --   -0.42413  -0.41230  -0.39813  -0.28746  -0.27444
 Alpha virt. eigenvalues --   -0.09705   0.01350   0.03026   0.03933   0.04192
 Alpha virt. eigenvalues --    0.06148   0.06558   0.07514   0.09669   0.09764
 Alpha virt. eigenvalues --    0.12193   0.12396   0.14183   0.16380   0.19747

 Mulliken charges:
               1
     1  C    0.065821
     2  C    0.073419
     3  C   -0.284094
     4  O   -0.495921
     5  H    0.133408
     6  H    0.159663
     7  H    0.176129
     8  H    0.171575
 Sum of Mulliken charges =  -0.00000

 Dipole moment (field-independent basis, Debye):
    X=             -3.0458    Y=              2.2928    Z=              0.0070  Tot=              3.8124
 Quadrupole moment (field-independent basis, Debye-Ang):
   XX=            -24.1412   YY=            -22.4989   ZZ=            -25.2198
   XY=              3.8959   XZ=             -0.0112   YZ=              0.0182

 Normal termination of Gaussian 16 at Fri Sep 22 17:10:26 2023.
