 Gaussian 16, Revision A.03,
 Gaussian 16:  ES64L-G16RevA.03 25-Dec-2016

 ------------------------------------------------------
 # b3lyp/6-31+g(d,p) scrf=(iefpcm,solvent=acetonitrile)
 ------------------------------------------------------

 -----------------------
 tmpdir/M2_conf_0_93.gjf
 -----------------------
 Symbolic Z-matrix:
 Charge =  0 Multiplicity = 2

                         Standard orientation:
 ---------------------------------------------------------------------
 Center     Atomic      Atomic             Coordinates (Angstroms)
 Number     Number       Type             X           Y           Z
 ---------------------------------------------------------------------
      1          6           0        0.797188    0.004654    0.013123
      2          6           0       -0.699435    0.009482   -0.001285
      3          1           0       -1.091895   -0.628458   -0.801977
      4          1           0        1.407234    0.879407   -0.017225
      5          1           0        1.320067   -0.934199   -0.038912
      6          1           0       -1.105199   -0.408844    0.930936
      7          1           0       -1.116725    1.007282   -0.143851
 ---------------------------------------------------------------------

 SCF Done:  E(UB3LYP) =  -79.1698642906     A.U. after   11 cycles

 The electronic state is 2-A.
 Alpha  occ. eigenvalues --  -10.19469 -10.18527  -0.75782  -0.61490  -0.45203
 Alpha  occ. eigenvalues --   -0.41423  -0.39559  -0.36063  -0.20550
 Alpha virt. eigenvalues --    0.02084   0.03140   0.05472   0.05932   0.08449
 Alpha virt. eigenvalues --    0.09032   0.09838   0.15073   0.17070   0.19244
 Alpha virt. eigenvalues --    0.22507   0.26438   0.29317   0.31082   0.61236

  Beta  occ. eigenvalues --  -10.18606 -10.18131  -0.74106  -0.59137  -0.44560
  Beta  occ. eigenvalues --   -0.39990  -0.38703  -0.35613
  Beta virt. eigenvalues --   -0.05850   0.02234   0.03335   0.05476   0.06384
  Beta virt. eigenvalues --    0.08425   0.09012   0.11258   0.15295   0.17507
  Beta virt. eigenvalues --    0.20200   0.23878   0.27332   0.29784   0.31403

 Mulliken charges and spin densities:
               1          2
     1  C   -0.256595   1.135736
     2  C   -0.522372  -0.131775
     3  H    0.162027   0.039190
     4  H    0.151566  -0.049121
     5  H    0.143574  -0.048868
     6  H    0.163945   0.051953
     7  H    0.157854   0.002884
 Sum of Mulliken charges =  -0.00000   1.00000

 Dipole moment (field-independent basis, Debye):
    X=             -0.3764    Y=             -0.0453    Z=             -0.0848  Tot=              0.3885
 Quadrupole moment (field-independent basis, Debye-Ang):
   XX=            -14.4432   YY=            -13.7758   ZZ=            -15.6371
   XY=              0.0966   XZ=             -0.1098   YZ=             -0.0116

 Normal termination of Gaussian 16 at Fri Sep 22 17:11:38 2023.
