 Gaussian 16, Revision A.03,
 Gaussian 16:  ES64L-G16RevA.03 25-Dec-2016

 ------------------------------------------------------
 # b3lyp/6-31+g(d,p) scrf=(iefpcm,solvent=acetonitrile)
 ------------------------------------------------------

 ------------------------
 tmpdir/M2_conf_0_141.gjf
 ------------------------
 Symbolic Z-matrix:
 Charge =  0 Multiplicity = 1

                         Standard orientation:
 ---------------------------------------------------------------------
 Center     Atomic      Atomic             Coordinates (Angstroms)
 Number     Number       Type             X           Y           Z
 ---------------------------------------------------------------------
      1          6           0        1.428968   -0.470577   -0.000066
      2          6           0        0.584758    0.644999   -0.001534
      3          6           0       -0.804469    0.481643   -0.000122
      4          1           0        1.037823   -1.402736   -0.000722
      5          1           0        2.506474   -0.340826    0.005703
      6          1           0        1.010392    1.643676   -0.000163
      7          8           0       -1.294178   -0.648189    0.000009
      8          1           0       -1.456803    1.349006    0.005444
 ---------------------------------------------------------------------

 SCF Done:  E(RB3LYP) =  -191.919819324     A.U. after   12 cycles

 The electronic state is 1-A.
 Alpha  occ. eigenvalues --  -19.15833 -10.28078 -10.22432 -10.21248  -1.05158
 Alpha  occ. eigenvalues --   -0.79903  -0.67973  -0.55764  -0.52350  -0.46147
 Alpha  occ. eigenvalues --   -0.42649  -0.41110  -0.39765  -0.28577  -0.27387
 Alpha virt. eigenvalues --   -0.09720   0.01402   0.03131   0.03964   0.04169
 Alpha virt. eigenvalues --    0.06268   0.06549   0.07530   0.09687   0.09805
 Alpha virt. eigenvalues --    0.12250   0.12389   0.14298   0.16398   0.19973

 Mulliken charges:
               1
     1  C   -0.278633
     2  C    0.067245
     3  C    0.068601
     4  H    0.175535
     5  H    0.172059
     6  H    0.157717
     7  O   -0.501152
     8  H    0.138628
 Sum of Mulliken charges =  -0.00000

 Dipole moment (field-independent basis, Debye):
    X=              2.9294    Y=              2.3814    Z=              0.0078  Tot=              3.7752
 Quadrupole moment (field-independent basis, Debye-Ang):
   XX=            -24.0089   YY=            -22.4552   ZZ=            -25.1855
   XY=             -4.0878   XZ=              0.0122   YZ=              0.0022

 Normal termination of Gaussian 16 at Fri Sep 22 17:12:35 2023.
