 Gaussian 16, Revision A.03,
 Gaussian 16:  ES64L-G16RevA.03 25-Dec-2016

 ------------------------------------------------------
 # b3lyp/6-31+g(d,p) scrf=(iefpcm,solvent=acetonitrile)
 ------------------------------------------------------

 ------------------------
 tmpdir/M2_conf_0_113.gjf
 ------------------------
 Symbolic Z-matrix:
 Charge =  0 Multiplicity = 1

                         Standard orientation:
 ---------------------------------------------------------------------
 Center     Atomic      Atomic             Coordinates (Angstroms)
 Number     Number       Type             X           Y           Z
 ---------------------------------------------------------------------
      1          8           0       -0.477805    1.433312   -0.239704
      2         16           0       -0.507133    0.034055    0.240642
      3          6           0        1.127329   -0.666108   -0.032701
      4          1           0       -0.650851    0.028671    1.656957
      5          8           0       -1.524631   -0.886562   -0.322427
      6          8           0        2.099629    0.089773   -0.085720
      7          1           0        1.223469   -1.669093   -0.128207
 ---------------------------------------------------------------------

 SCF Done:  E(RB3LYP) =  -663.071351010     A.U. after   13 cycles

 The electronic state is 1-A.
 Alpha  occ. eigenvalues --  -89.13190 -19.23784 -19.18599 -19.18564 -10.34748
 Alpha  occ. eigenvalues --   -8.16348  -6.12752  -6.12689  -6.12639  -1.13830
 Alpha  occ. eigenvalues --   -1.10579  -1.03062  -0.77633  -0.65990  -0.57968
 Alpha  occ. eigenvalues --   -0.52829  -0.51392  -0.48003  -0.44689  -0.38904
 Alpha  occ. eigenvalues --   -0.36114  -0.35564  -0.33935  -0.30964
 Alpha virt. eigenvalues --   -0.12813  -0.01901   0.00156   0.01369   0.02399
 Alpha virt. eigenvalues --    0.04921   0.06449   0.07285   0.08229   0.09119
 Alpha virt. eigenvalues --    0.09525   0.11654   0.14064   0.15458   0.17377

 Mulliken charges:
               1
     1  O   -0.620096
     2  S    1.138078
     3  C    0.046704
     4  H    0.118354
     5  O   -0.611328
     6  O   -0.293347
     7  H    0.221634
 Sum of Mulliken charges =  -0.00000

 Dipole moment (field-independent basis, Debye):
    X=              1.6908    Y=             -3.4353    Z=              3.4622  Tot=              5.1621
 Quadrupole moment (field-independent basis, Debye-Ang):
   XX=            -43.4862   YY=            -39.0133   ZZ=            -31.5059
   XY=             -5.0563   XZ=             -2.7776   YZ=              0.3868

 Normal termination of Gaussian 16 at Fri Sep 22 17:12:54 2023.
