 Gaussian 16, Revision A.03,
 Gaussian 16:  ES64L-G16RevA.03 25-Dec-2016

 ------------------------------------------------------
 # b3lyp/6-31+g(d,p) scrf=(iefpcm,solvent=acetonitrile)
 ------------------------------------------------------

 -----------------------
 tmpdir/M2_conf_0_40.gjf
 -----------------------
 Symbolic Z-matrix:
 Charge =  0 Multiplicity = 1

                         Standard orientation:
 ---------------------------------------------------------------------
 Center     Atomic      Atomic             Coordinates (Angstroms)
 Number     Number       Type             X           Y           Z
 ---------------------------------------------------------------------
      1          6           0        0.230487    0.439491   -0.005583
      2          6           0       -1.163059   -0.140687   -0.001955
      3          1           0       -1.854293    0.474619   -0.585423
      4          8           0        1.226063   -0.295990    0.001227
      5          1           0        0.372694    1.447074    0.010743
      6          1           0       -1.557439   -0.191701    1.020433
      7          1           0       -1.174031   -1.154896   -0.410343
 ---------------------------------------------------------------------

 SCF Done:  E(RB3LYP) =  -153.844832746     A.U. after   10 cycles

 The electronic state is 1-A.
 Alpha  occ. eigenvalues --  -19.16908 -10.28951 -10.19650  -1.05159  -0.75348
 Alpha  occ. eigenvalues --   -0.60874  -0.48807  -0.44504  -0.44367  -0.39877
 Alpha  occ. eigenvalues --   -0.36947  -0.27413
 Alpha virt. eigenvalues --   -0.04949   0.01661   0.03354   0.04700   0.05808
 Alpha virt. eigenvalues --    0.08047   0.08410   0.09664   0.14571   0.16642
 Alpha virt. eigenvalues --    0.16731   0.21549   0.22265   0.24687   0.25422

 Mulliken charges:
               1
     1  C    0.272446
     2  C   -0.511444
     3  H    0.177055
     4  O   -0.463683
     5  H    0.145454
     6  H    0.196047
     7  H    0.184124
 Sum of Mulliken charges =  -0.00000

 Dipole moment (field-independent basis, Debye):
    X=             -3.3604    Y=              1.8239    Z=              0.0789  Tot=              3.8243
 Quadrupole moment (field-independent basis, Debye-Ang):
   XX=            -21.6660   YY=            -17.7579   ZZ=            -17.9428
   XY=              1.5970   XZ=             -0.1435   YZ=             -0.0192

 Normal termination of Gaussian 16 at Fri Sep 22 17:10:48 2023.
