 Gaussian 16, Revision A.03,
 Gaussian 16:  ES64L-G16RevA.03 25-Dec-2016

 ------------------------------------------------------
 # b3lyp/6-31+g(d,p) scrf=(iefpcm,solvent=acetonitrile)
 ------------------------------------------------------

 -----------------------
 tmpdir/M2_conf_0_16.gjf
 -----------------------
 Symbolic Z-matrix:
 Charge =  0 Multiplicity = 1

                         Standard orientation:
 ---------------------------------------------------------------------
 Center     Atomic      Atomic             Coordinates (Angstroms)
 Number     Number       Type             X           Y           Z
 ---------------------------------------------------------------------
      1          6           0        0.685578    0.506869   -0.002886
      2          6           0       -0.710613    0.504937    0.001748
      3          1           0       -1.251546    1.445317    0.011369
      4          8           0        1.328832   -0.550649    0.002249
      5          1           0        1.215022    1.455742   -0.007849
      6          8           0       -1.305490   -0.570838   -0.001836
 ---------------------------------------------------------------------

 SCF Done:  E(RB3LYP) =  -227.825528230     A.U. after   11 cycles

 The electronic state is 1-A.
 Alpha  occ. eigenvalues --  -19.20246 -19.20200 -10.30655 -10.30590  -1.10101
 Alpha  occ. eigenvalues --   -1.06267  -0.76022  -0.58034  -0.55872  -0.48801
 Alpha  occ. eigenvalues --   -0.46121  -0.45732  -0.38986  -0.31951  -0.29340
 Alpha virt. eigenvalues --   -0.14599   0.01289   0.02171   0.03478   0.03853
 Alpha virt. eigenvalues --    0.06080   0.07353   0.08895   0.10215   0.15329
 Alpha virt. eigenvalues --    0.15836   0.19865   0.20368   0.21588   0.23965

 Mulliken charges:
               1
     1  C    0.220955
     2  C    0.227898
     3  H    0.170144
     4  O   -0.395492
     5  H    0.165361
     6  O   -0.388864
 Sum of Mulliken charges =  -0.00000

 Dipole moment (field-independent basis, Debye):
    X=             -0.1596    Y=              4.9738    Z=             -0.0006  Tot=              4.9764
 Quadrupole moment (field-independent basis, Debye-Ang):
   XX=            -27.0786   YY=            -21.5269   ZZ=            -21.2971
   XY=             -0.1184   XZ=             -0.0249   YZ=              0.0021

 Normal termination of Gaussian 16 at Fri Sep 22 17:10:20 2023.
