 Gaussian 16, Revision A.03,
 Gaussian 16:  ES64L-G16RevA.03 25-Dec-2016

 ------------------------------------------------------
 # b3lyp/6-31+g(d,p) scrf=(iefpcm,solvent=acetonitrile)
 ------------------------------------------------------

 -----------------------
 tmpdir/M2_conf_0_54.gjf
 -----------------------
 Symbolic Z-matrix:
 Charge =  0 Multiplicity = 1

                         Standard orientation:
 ---------------------------------------------------------------------
 Center     Atomic      Atomic             Coordinates (Angstroms)
 Number     Number       Type             X           Y           Z
 ---------------------------------------------------------------------
      1          6           0       -1.145660    0.256620    0.352612
      2          7           0        0.059110    0.901785   -0.096039
      3          6           0        1.316097    0.280658   -0.061482
      4          1           0       -1.573423    0.577717    1.213013
      5          8           0       -1.659581   -0.658914   -0.297328
      6          1           0       -0.009637    1.816232   -0.635441
      7          1           0        2.199062    0.873682   -0.144907
      8          8           0        1.403032   -0.941561    0.108931
 ---------------------------------------------------------------------

 SCF Done:  E(RB3LYP) =  -283.215802285     A.U. after   12 cycles

 The electronic state is 1-A.
 Alpha  occ. eigenvalues --  -19.19577 -19.15877 -14.39654 -10.33870 -10.32263
 Alpha  occ. eigenvalues --   -1.08566  -1.05656  -0.93039  -0.69961  -0.61097
 Alpha  occ. eigenvalues --   -0.57126  -0.52734  -0.48667  -0.45276  -0.41525
 Alpha  occ. eigenvalues --   -0.40782  -0.32024  -0.29368  -0.28669
 Alpha virt. eigenvalues --   -0.07828  -0.02886   0.01202   0.03155   0.03647
 Alpha virt. eigenvalues --    0.03956   0.06023   0.07554   0.08407   0.10907
 Alpha virt. eigenvalues --    0.12807   0.14847   0.17434   0.18739   0.20274

 Mulliken charges:
               1
     1  C    0.329885
     2  N   -0.416154
     3  C    0.311971
     4  H    0.176578
     5  O   -0.389861
     6  H    0.362096
     7  H    0.167402
     8  O   -0.541916
 Sum of Mulliken charges =  -0.00000

 Dipole moment (field-independent basis, Debye):
    X=              0.0560    Y=              6.7021    Z=              0.6295  Tot=              6.7318
 Quadrupole moment (field-independent basis, Debye-Ang):
   XX=            -30.5030   YY=            -28.4147   ZZ=            -27.4513
   XY=              1.2829   XZ=             -3.6060   YZ=             -1.8999

 Normal termination of Gaussian 16 at Fri Sep 22 17:11:05 2023.
