 Gaussian 16, Revision A.03,
 Gaussian 16:  ES64L-G16RevA.03 25-Dec-2016

 ------------------------------------------------------
 # b3lyp/6-31+g(d,p) scrf=(iefpcm,solvent=acetonitrile)
 ------------------------------------------------------

 -----------------------
 tmpdir/M2_conf_0_63.gjf
 -----------------------
 Symbolic Z-matrix:
 Charge =  0 Multiplicity = 1

                         Standard orientation:
 ---------------------------------------------------------------------
 Center     Atomic      Atomic             Coordinates (Angstroms)
 Number     Number       Type             X           Y           Z
 ---------------------------------------------------------------------
      1          6           0       -0.697240    0.503115   -0.000792
      2          6           0        0.702255    0.506889   -0.000682
      3          1           0        1.236162    1.450722   -0.006798
      4          1           0       -1.238530    1.495649    0.011231
      5          8           0       -1.319406   -0.563489   -0.000762
      6          8           0        1.315940   -0.562310    0.001313
 ---------------------------------------------------------------------

 SCF Done:  E(RB3LYP) =  -227.825961694     A.U. after   11 cycles

 The electronic state is 1-A.
 Alpha  occ. eigenvalues --  -19.20354 -19.20266 -10.31061 -10.30689  -1.10092
 Alpha  occ. eigenvalues --   -1.06325  -0.75847  -0.57706  -0.55404  -0.48843
 Alpha  occ. eigenvalues --   -0.46114  -0.45650  -0.39041  -0.32002  -0.29342
 Alpha virt. eigenvalues --   -0.14603   0.01272   0.02112   0.03343   0.03823
 Alpha virt. eigenvalues --    0.06063   0.07219   0.08879   0.10189   0.15286
 Alpha virt. eigenvalues --    0.15735   0.19837   0.19937   0.21342   0.23555

 Mulliken charges:
               1
     1  C    0.221194
     2  C    0.223718
     3  H    0.168782
     4  H    0.166719
     5  O   -0.390158
     6  O   -0.390255
 Sum of Mulliken charges =  -0.00000

 Dipole moment (field-independent basis, Debye):
    X=              0.0542    Y=              4.9453    Z=             -0.0014  Tot=              4.9456
 Quadrupole moment (field-independent basis, Debye-Ang):
   XX=            -27.1126   YY=            -21.5393   ZZ=            -21.3511
   XY=              0.0625   XZ=             -0.0181   YZ=              0.0022

 Normal termination of Gaussian 16 at Fri Sep 22 17:10:56 2023.
