 Gaussian 16, Revision A.03,
 Gaussian 16:  ES64L-G16RevA.03 25-Dec-2016

 ------------------------------------------------------
 # b3lyp/6-31+g(d,p) scrf=(iefpcm,solvent=acetonitrile)
 ------------------------------------------------------

 -----------------------
 tmpdir/M2_conf_0_77.gjf
 -----------------------
 Symbolic Z-matrix:
 Charge =  0 Multiplicity = 1

                         Standard orientation:
 ---------------------------------------------------------------------
 Center     Atomic      Atomic             Coordinates (Angstroms)
 Number     Number       Type             X           Y           Z
 ---------------------------------------------------------------------
      1          6           0        0.803811    0.485146    0.002938
      2          6           0       -0.582395    0.648451   -0.001682
      3          6           0       -1.421743   -0.471911    0.001124
      4          8           0        1.283545   -0.652644   -0.001745
      5          1           0        1.461893    1.346529    0.003096
      6          1           0       -1.004914    1.648663   -0.005647
      7          1           0       -1.023509   -1.401932    0.001919
      8          1           0       -2.499867   -0.342220    0.000309
 ---------------------------------------------------------------------

 SCF Done:  E(RB3LYP) =  -191.919012814     A.U. after   12 cycles

 The electronic state is 1-A.
 Alpha  occ. eigenvalues --  -19.15765 -10.28045 -10.22456 -10.21228  -1.04969
 Alpha  occ. eigenvalues --   -0.79901  -0.67999  -0.55748  -0.52358  -0.46121
 Alpha  occ. eigenvalues --   -0.42584  -0.41032  -0.39747  -0.28521  -0.27364
 Alpha virt. eigenvalues --   -0.09776   0.01413   0.03130   0.03962   0.04155
 Alpha virt. eigenvalues --    0.06276   0.06540   0.07519   0.09677   0.09817
 Alpha virt. eigenvalues --    0.12243   0.12386   0.14311   0.16419   0.20021

 Mulliken charges:
               1
     1  C    0.068115
     2  C    0.065865
     3  C   -0.276512
     4  O   -0.503460
     5  H    0.139991
     6  H    0.157629
     7  H    0.176493
     8  H    0.171879
 Sum of Mulliken charges =  -0.00000

 Dipole moment (field-independent basis, Debye):
    X=             -2.9067    Y=              2.4079    Z=              0.0065  Tot=              3.7745
 Quadrupole moment (field-independent basis, Debye-Ang):
   XX=            -24.0022   YY=            -22.4371   ZZ=            -25.1885
   XY=              4.1161   XZ=              0.0123   YZ=             -0.0118

 Normal termination of Gaussian 16 at Fri Sep 22 17:11:35 2023.
