 Gaussian 16, Revision A.03,
 Gaussian 16:  ES64L-G16RevA.03 25-Dec-2016

 ------------------------------------------------------
 # b3lyp/6-31+g(d,p) scrf=(iefpcm,solvent=acetonitrile)
 ------------------------------------------------------

 ----------------------
 tmpdir/M2_conf_0_3.gjf
 ----------------------
 Symbolic Z-matrix:
 Charge =  0 Multiplicity = 2

                         Standard orientation:
 ---------------------------------------------------------------------
 Center     Atomic      Atomic             Coordinates (Angstroms)
 Number     Number       Type             X           Y           Z
 ---------------------------------------------------------------------
      1          6           0        0.737178   -0.348220   -0.188814
      2          6           0       -0.448349    0.527302   -0.180194
      3          6           0       -1.742705   -0.158045    0.128115
      4          1           0        0.635892   -1.398274   -0.508835
      5          8           0        1.829127    0.081510    0.202824
      6          1           0       -0.255952    1.578967   -0.300831
      7          1           0       -2.432501   -0.103145   -0.726194
      8          1           0       -1.610742   -1.206258    0.399978
      9          1           0       -2.246459    0.350410    0.958648
 ---------------------------------------------------------------------

 SCF Done:  E(UB3LYP) =  -192.510759443     A.U. after   14 cycles

 The electronic state is 2-A.
 Alpha  occ. eigenvalues --  -19.16614 -10.28128 -10.23398 -10.20083  -1.05295
 Alpha  occ. eigenvalues --   -0.79923  -0.67058  -0.58428  -0.47455  -0.47062
 Alpha  occ. eigenvalues --   -0.44010  -0.41845  -0.39487  -0.39310  -0.27589
 Alpha  occ. eigenvalues --   -0.23719
 Alpha virt. eigenvalues --   -0.02285   0.01747   0.02944   0.03173   0.05213
 Alpha virt. eigenvalues --    0.06818   0.07861   0.08491   0.09222   0.09939
 Alpha virt. eigenvalues --    0.11428   0.13750   0.15387   0.18098   0.20782

  Beta  occ. eigenvalues --  -19.15975 -10.28226 -10.22280 -10.20137  -1.04107
  Beta  occ. eigenvalues --   -0.78116  -0.66014  -0.57540  -0.46798  -0.46273
  Beta  occ. eigenvalues --   -0.42305  -0.41058  -0.39012  -0.37328  -0.26748
  Beta virt. eigenvalues --   -0.11637   0.00270   0.01837   0.03120   0.03355
  Beta virt. eigenvalues --    0.05318   0.06891   0.07875   0.08467   0.09497
  Beta virt. eigenvalues --    0.10665   0.11538   0.13899   0.15669   0.18667

 Mulliken charges and spin densities:
               1          2
     1  C    0.082213  -0.052396
     2  C    0.131308   0.871572
     3  C   -0.600559  -0.087651
     4  H    0.139639  -0.000283
     5  O   -0.472466   0.221830
     6  H    0.177963  -0.038131
     7  H    0.184621   0.054525
     8  H    0.173466   0.002641
     9  H    0.183814   0.027893
 Sum of Mulliken charges =  -0.00000   1.00000

 Dipole moment (field-independent basis, Debye):
    X=             -4.4879    Y=             -0.6212    Z=             -0.8605  Tot=              4.6117
 Quadrupole moment (field-independent basis, Debye-Ang):
   XX=            -30.6570   YY=            -22.6991   ZZ=            -24.8673
   XY=             -1.1363   XZ=             -1.6701   YZ=             -0.0700

 Normal termination of Gaussian 16 at Fri Sep 22 17:10:38 2023.
