 Gaussian 16, Revision A.03,
 Gaussian 16:  ES64L-G16RevA.03 25-Dec-2016

 ------------------------------------------------------
 # b3lyp/6-31+g(d,p) scrf=(iefpcm,solvent=acetonitrile)
 ------------------------------------------------------

 ------------------------
 tmpdir/M2_conf_0_106.gjf
 ------------------------
 Symbolic Z-matrix:
 Charge =  0 Multiplicity = 1

                         Standard orientation:
 ---------------------------------------------------------------------
 Center     Atomic      Atomic             Coordinates (Angstroms)
 Number     Number       Type             X           Y           Z
 ---------------------------------------------------------------------
      1         16           0        0.000184    0.305917    0.006291
      2          8           0        1.276114   -0.450385   -0.007428
      3          1           0       -0.020511    1.208271   -1.094607
      4          8           0       -1.273446   -0.454093   -0.005645
      5          1           0       -0.003773    1.132887    1.098537
 ---------------------------------------------------------------------

 SCF Done:  E(RB3LYP) =  -549.762237110     A.U. after   11 cycles

 The electronic state is 1-A.
 Alpha  occ. eigenvalues --  -89.12807 -19.17899 -19.17752  -8.15861  -6.12286
 Alpha  occ. eigenvalues --   -6.12212  -6.12154  -1.12318  -1.02284  -0.72841
 Alpha  occ. eigenvalues --   -0.56750  -0.51325  -0.47780  -0.36258  -0.34953
 Alpha  occ. eigenvalues --   -0.33417  -0.32673
 Alpha virt. eigenvalues --   -0.02931  -0.00385   0.00521   0.01610   0.07161
 Alpha virt. eigenvalues --    0.08663   0.09858   0.10062   0.15716   0.17956
 Alpha virt. eigenvalues --    0.18517   0.21105   0.21481   0.24763   0.25166

 Mulliken charges:
               1
     1  S    1.052064
     2  O   -0.631807
     3  H    0.107247
     4  O   -0.636937
     5  H    0.109433
 Sum of Mulliken charges =  -0.00000

 Dipole moment (field-independent basis, Debye):
    X=              0.0063    Y=              5.1660    Z=              0.1142  Tot=              5.1673
 Quadrupole moment (field-independent basis, Debye-Ang):
   XX=            -33.0886   YY=            -22.7188   ZZ=            -21.7170
   XY=             -0.0544   XZ=              0.0266   YZ=             -0.0230

 Normal termination of Gaussian 16 at Fri Sep 22 17:12:06 2023.
