 Gaussian 16, Revision A.03,
 Gaussian 16:  ES64L-G16RevA.03 25-Dec-2016

 ------------------------------------------------------
 # b3lyp/6-31+g(d,p) scrf=(iefpcm,solvent=acetonitrile)
 ------------------------------------------------------

 -----------------------
 tmpdir/M2_conf_0_10.gjf
 -----------------------
 Symbolic Z-matrix:
 Charge =  0 Multiplicity = 1

                         Standard orientation:
 ---------------------------------------------------------------------
 Center     Atomic      Atomic             Coordinates (Angstroms)
 Number     Number       Type             X           Y           Z
 ---------------------------------------------------------------------
      1          6           0       -1.760098    0.501747    0.073563
      2          6           0       -1.000325   -0.657569   -0.077455
      3         16           0        0.795720   -0.434815   -0.050988
      4          1           0       -2.767102    0.439252    0.013941
      5          1           0       -1.266871    1.451955    0.249157
      6          1           0       -1.439158   -1.550342   -0.264907
      7          8           0        1.027796    1.058247   -0.056444
      8          1           0        1.081781   -0.914879    1.292522
 ---------------------------------------------------------------------

 SCF Done:  E(RB3LYP) =  -551.948053719     A.U. after   12 cycles

 The electronic state is 1-A.
 Alpha  occ. eigenvalues --  -89.01284 -19.13986 -10.23216 -10.21386  -8.05954
 Alpha  occ. eigenvalues --   -6.02393  -6.02242  -6.01678  -1.03293  -0.80273
 Alpha  occ. eigenvalues --   -0.71044  -0.59418  -0.51541  -0.46732  -0.44855
 Alpha  occ. eigenvalues --   -0.40462  -0.39564  -0.30194  -0.29644  -0.25161
 Alpha virt. eigenvalues --   -0.05244  -0.00843  -0.00333   0.02105   0.03510
 Alpha virt. eigenvalues --    0.04356   0.05699   0.06980   0.08609   0.08975
 Alpha virt. eigenvalues --    0.10151   0.11399   0.12045   0.14096   0.15129

 Mulliken charges:
               1
     1  C   -0.235838
     2  C   -0.273831
     3  S    0.675127
     4  H    0.167773
     5  H    0.187888
     6  H    0.185413
     7  O   -0.777956
     8  H    0.071423
 Sum of Mulliken charges =  -0.00000

 Dipole moment (field-independent basis, Debye):
    X=             -2.4753    Y=             -3.9963    Z=              1.0565  Tot=              4.8181
 Quadrupole moment (field-independent basis, Debye-Ang):
   XX=            -29.6620   YY=            -32.3199   ZZ=            -32.1357
   XY=             -3.9897   XZ=              1.8068   YZ=             -0.2707

 Normal termination of Gaussian 16 at Fri Sep 22 17:10:39 2023.
