 Gaussian 16, Revision A.03,
 Gaussian 16:  ES64L-G16RevA.03 25-Dec-2016

 ------------------------------------------------------
 # b3lyp/6-31+g(d,p) scrf=(iefpcm,solvent=acetonitrile)
 ------------------------------------------------------

 -----------------------
 tmpdir/M2_conf_0_48.gjf
 -----------------------
 Symbolic Z-matrix:
 Charge =  0 Multiplicity = 1

                         Standard orientation:
 ---------------------------------------------------------------------
 Center     Atomic      Atomic             Coordinates (Angstroms)
 Number     Number       Type             X           Y           Z
 ---------------------------------------------------------------------
      1          6           0       -1.119163   -0.535577   -0.374131
      2         16           0        0.510014    0.246908   -0.472102
      3          7           0        1.313297   -1.061329    0.429212
      4          8           0       -1.960183   -0.116109    0.418280
      5          1           0       -1.341194   -1.272565   -1.031624
      6          8           0        0.429705    1.480437    0.396839
      7          1           0        0.929834   -1.359960    1.311267
      8          1           0        2.016855   -1.589865   -0.006649
 ---------------------------------------------------------------------

 SCF Done:  E(RB3LYP) =  -643.238185711     A.U. after   13 cycles

 The electronic state is 1-A.
 Alpha  occ. eigenvalues --  -89.04424 -19.20796 -19.15957 -14.37478 -10.32084
 Alpha  occ. eigenvalues --   -8.08686  -6.05175  -6.04979  -6.04427  -1.09179
 Alpha  occ. eigenvalues --   -1.04698  -0.90174  -0.74987  -0.63051  -0.55164
 Alpha  occ. eigenvalues --   -0.53048  -0.49062  -0.48135  -0.42784  -0.40934
 Alpha  occ. eigenvalues --   -0.34552  -0.31184  -0.29895  -0.26650
 Alpha virt. eigenvalues --   -0.09594  -0.00798  -0.00373   0.01716   0.03259
 Alpha virt. eigenvalues --    0.04460   0.05095   0.06865   0.08319   0.08668
 Alpha virt. eigenvalues --    0.09440   0.10773   0.11763   0.14660   0.16517

 Mulliken charges:
               1
     1  C    0.120555
     2  S    0.881774
     3  N   -0.825567
     4  O   -0.360081
     5  H    0.194413
     6  O   -0.725972
     7  H    0.356721
     8  H    0.358157
 Sum of Mulliken charges =  -0.00000

 Dipole moment (field-independent basis, Debye):
    X=              1.7869    Y=             -5.9952    Z=             -3.1162  Tot=              6.9890
 Quadrupole moment (field-independent basis, Debye-Ang):
   XX=            -38.2934   YY=            -37.3327   ZZ=            -34.0979
   XY=             -3.1939   XZ=              2.5096   YZ=             -2.6328

 Normal termination of Gaussian 16 at Fri Sep 22 17:11:06 2023.
