 Gaussian 16, Revision A.03,
 Gaussian 16:  ES64L-G16RevA.03 25-Dec-2016

 ------------------------------------------------------
 # b3lyp/6-31+g(d,p) scrf=(iefpcm,solvent=acetonitrile)
 ------------------------------------------------------

 -----------------------
 tmpdir/M2_conf_0_35.gjf
 -----------------------
 Symbolic Z-matrix:
 Charge =  0 Multiplicity = 1

                         Standard orientation:
 ---------------------------------------------------------------------
 Center     Atomic      Atomic             Coordinates (Angstroms)
 Number     Number       Type             X           Y           Z
 ---------------------------------------------------------------------
      1          6           0       -0.810723   -0.640077   -0.008263
      2          6           0        0.367172    0.127450   -0.012679
      3          6           0        1.728100   -0.525388    0.003554
      4          8           0       -1.917549   -0.105234    0.008974
      5          1           0       -0.744832   -1.724557   -0.014158
      6          8           0        0.266294    1.361076   -0.000474
      7          1           0        2.016814   -0.790920    1.028031
      8          1           0        1.734217   -1.447377   -0.585283
      9          1           0        2.496538    0.144204   -0.392270
 ---------------------------------------------------------------------

 SCF Done:  E(RB3LYP) =  -267.158974668     A.U. after   12 cycles

 The electronic state is 1-A.
 Alpha  occ. eigenvalues --  -19.19893 -19.18551 -10.30667 -10.30420 -10.20528
 Alpha  occ. eigenvalues --   -1.09574  -1.05671  -0.78956  -0.70337  -0.56709
 Alpha  occ. eigenvalues --   -0.51499  -0.48906  -0.47547  -0.44145  -0.41785
 Alpha  occ. eigenvalues --   -0.41376  -0.37271  -0.31175  -0.28521
 Alpha virt. eigenvalues --   -0.13514   0.00803   0.01963   0.02884   0.04018
 Alpha virt. eigenvalues --    0.06194   0.06312   0.07441   0.08687   0.09219
 Alpha virt. eigenvalues --    0.10341   0.12194   0.12280   0.14605   0.17843

 Mulliken charges:
               1
     1  C    0.159130
     2  C    0.449806
     3  C   -0.512211
     4  O   -0.387604
     5  H    0.164029
     6  O   -0.457261
     7  H    0.208417
     8  H    0.181955
     9  H    0.193739
 Sum of Mulliken charges =  -0.00000

 Dipole moment (field-independent basis, Debye):
    X=              3.6177    Y=             -4.5961    Z=              0.0370  Tot=              5.8493
 Quadrupole moment (field-independent basis, Debye-Ang):
   XX=            -32.8172   YY=            -31.3066   ZZ=            -27.4539
   XY=             -0.4485   XZ=              0.2345   YZ=             -0.0589

 Normal termination of Gaussian 16 at Fri Sep 22 17:11:02 2023.
