 Gaussian 16, Revision A.03,
 Gaussian 16:  ES64L-G16RevA.03 25-Dec-2016

 ------------------------------------------------------
 # b3lyp/6-31+g(d,p) scrf=(iefpcm,solvent=acetonitrile)
 ------------------------------------------------------

 -----------------------
 tmpdir/M2_conf_0_85.gjf
 -----------------------
 Symbolic Z-matrix:
 Charge =  0 Multiplicity = 2

                         Standard orientation:
 ---------------------------------------------------------------------
 Center     Atomic      Atomic             Coordinates (Angstroms)
 Number     Number       Type             X           Y           Z
 ---------------------------------------------------------------------
      1          6           0        1.168087   -0.783205   -0.015586
      2          6           0        0.019452    0.139888    0.009389
      3          7           0       -1.232427   -0.492400    0.006260
      4          1           0        1.173217   -1.747419   -0.509565
      5          1           0        2.079082   -0.410629    0.418963
      6          8           0        0.205167    1.362750   -0.013681
      7          1           0       -1.330814   -1.465678    0.424521
      8          1           0       -2.061073    0.028425   -0.231109
 ---------------------------------------------------------------------

 SCF Done:  E(UB3LYP) =  -208.573997677     A.U. after   15 cycles

 The electronic state is 2-A.
 Alpha  occ. eigenvalues --  -19.15066 -14.37147 -10.31534 -10.22721  -1.05407
 Alpha  occ. eigenvalues --   -0.90425  -0.74557  -0.59030  -0.53227  -0.49744
 Alpha  occ. eigenvalues --   -0.45413  -0.43467  -0.40240  -0.29333  -0.28643
 Alpha  occ. eigenvalues --   -0.25338
 Alpha virt. eigenvalues --    0.00228   0.01089   0.03603   0.04469   0.06583
 Alpha virt. eigenvalues --    0.07080   0.07882   0.09583   0.10659   0.12671
 Alpha virt. eigenvalues --    0.12815   0.15158   0.18461   0.20274   0.22409

  Beta  occ. eigenvalues --  -19.14702 -14.37084 -10.31637 -10.21466  -1.04773
  Beta  occ. eigenvalues --   -0.90148  -0.71652  -0.58365  -0.52983  -0.49037
  Beta  occ. eigenvalues --   -0.44379  -0.42927  -0.39121  -0.28703  -0.27492
  Beta virt. eigenvalues --   -0.11720   0.00341   0.02141   0.03789   0.04569
  Beta virt. eigenvalues --    0.07096   0.07428   0.08055   0.10703   0.10941
  Beta virt. eigenvalues --    0.12834   0.12949   0.15302   0.18512   0.21370

 Mulliken charges and spin densities:
               1          2
     1  C   -0.233495   1.025154
     2  C    0.395579  -0.090026
     3  N   -0.599228   0.029835
     4  H    0.182076  -0.044763
     5  H    0.171932  -0.045809
     6  O   -0.585951   0.126128
     7  H    0.338004  -0.000878
     8  H    0.331083   0.000359
 Sum of Mulliken charges =  -0.00000   1.00000

 Dipole moment (field-independent basis, Debye):
    X=             -1.4377    Y=             -4.7840    Z=              0.3292  Tot=              5.0062
 Quadrupole moment (field-independent basis, Debye-Ang):
   XX=            -18.5497   YY=            -26.6558   ZZ=            -25.2434
   XY=             -0.5924   XZ=              0.2439   YZ=             -0.6374

 1\1\GINC-NODE62\SP\UB3LYP\6-31+G(d,p)\C2H4N1O1(2)\YANZ\22-Sep-2023\0\\
 # b3lyp/6-31+g(d,p) scrf=(iefpcm,solvent=acetonitrile)\\tmpdir/M2_conf
 _0_85.gjf\\0,2\C,0,0.,0.,0.\C,0,1.4738,0.,0.\N,0,2.0534,0.,1.27713\H,0
 ,-0.61629,0.47599,0.75324\H,0,-0.46928,-0.43381,-0.86553\O,0,2.09459,0
 .04444,-1.06914\H,0,1.52757,-0.43553,2.09304\H,0,3.02141,0.25265,1.392
 81\\Version=ES64L-G16RevA.03\State=2-A\HF=-208.5739977\S2=0.755704\S2-
 1=0.\S2A=0.750022\RMSD=2.494e-09\Dipole=-0.7358467,-0.1604737,1.819899
 2\Quadrupole=1.7172398,-1.2888433,-0.4283965,0.4605728,2.8567041,-0.21

 Normal termination of Gaussian 16 at Fri Sep 22 17:11:57 2023.
