 Gaussian 16, Revision A.03,
 Gaussian 16:  ES64L-G16RevA.03 25-Dec-2016

 ------------------------------------------------------
 # b3lyp/6-31+g(d,p) scrf=(iefpcm,solvent=acetonitrile)
 ------------------------------------------------------

 ------------------------
 tmpdir/M2_conf_0_122.gjf
 ------------------------
 Symbolic Z-matrix:
 Charge =  0 Multiplicity = 1

                         Standard orientation:
 ---------------------------------------------------------------------
 Center     Atomic      Atomic             Coordinates (Angstroms)
 Number     Number       Type             X           Y           Z
 ---------------------------------------------------------------------
      1          6           0        1.402893   -0.481108    0.001904
      2          6           0        0.587476    0.654694   -0.001781
      3          6           0       -0.798619    0.485360   -0.000891
      4          1           0        2.519684   -0.350072   -0.008585
      5          1           0        1.017131   -1.416809    0.003380
      6          1           0        1.027216    1.645997    0.007472
      7          8           0       -1.283613   -0.648687   -0.000087
      8          1           0       -1.445628    1.356705    0.003037
 ---------------------------------------------------------------------

 SCF Done:  E(RB3LYP) =  -191.918224493     A.U. after   12 cycles

 The electronic state is 1-A.
 Alpha  occ. eigenvalues --  -19.15770 -10.28042 -10.22780 -10.21228  -1.05029
 Alpha  occ. eigenvalues --   -0.79919  -0.67750  -0.55678  -0.52259  -0.46241
 Alpha  occ. eigenvalues --   -0.41894  -0.41068  -0.39843  -0.28559  -0.27370
 Alpha virt. eigenvalues --   -0.09718   0.01359   0.03113   0.03914   0.04156
 Alpha virt. eigenvalues --    0.06273   0.06522   0.07440   0.09642   0.09803
 Alpha virt. eigenvalues --    0.12185   0.12361   0.14144   0.16450   0.19739

 Mulliken charges:
               1
     1  C   -0.276962
     2  C    0.065307
     3  C    0.069529
     4  H    0.169437
     5  H    0.178433
     6  H    0.160511
     7  O   -0.504330
     8  H    0.138074
 Sum of Mulliken charges =  -0.00000

 Dipole moment (field-independent basis, Debye):
    X=              2.9228    Y=              2.3875    Z=              0.0041  Tot=              3.7740
 Quadrupole moment (field-independent basis, Debye-Ang):
   XX=            -24.1784   YY=            -22.3363   ZZ=            -25.2183
   XY=             -4.0125   XZ=             -0.0092   YZ=              0.0135

 Normal termination of Gaussian 16 at Fri Sep 22 17:12:25 2023.
