 Gaussian 16, Revision A.03,
 Gaussian 16:  ES64L-G16RevA.03 25-Dec-2016

 ------------------------------------------------------
 # b3lyp/6-31+g(d,p) scrf=(iefpcm,solvent=acetonitrile)
 ------------------------------------------------------

 ------------------------
 tmpdir/M2_conf_0_130.gjf
 ------------------------
 Symbolic Z-matrix:
 Charge =  0 Multiplicity = 1

                         Standard orientation:
 ---------------------------------------------------------------------
 Center     Atomic      Atomic             Coordinates (Angstroms)
 Number     Number       Type             X           Y           Z
 ---------------------------------------------------------------------
      1          6           0        0.698882   -0.008610   -0.000498
      2          6           0       -0.699117   -0.007886   -0.000409
      3          1           0        1.205710   -0.883272   -0.000038
      4          1           0        1.246118    0.928619    0.002870
      5          1           0       -1.212279   -0.880818    0.002855
      6          1           0       -1.238139    0.934444   -0.000245
 ---------------------------------------------------------------------

 SCF Done:  E(RB3LYP) =  -78.5887929190     A.U. after    9 cycles

 The electronic state is 1-A.
 Alpha  occ. eigenvalues --  -10.19592 -10.19532  -0.75834  -0.59949  -0.48016
 Alpha  occ. eigenvalues --   -0.41417  -0.37806  -0.27093
 Alpha virt. eigenvalues --   -0.02233   0.02536   0.03704   0.05220   0.06701
 Alpha virt. eigenvalues --    0.08824   0.09088   0.12410   0.16011   0.18267
 Alpha virt. eigenvalues --    0.21971   0.25653   0.32528   0.35448   0.58381

 Mulliken charges:
               1
     1  C   -0.298480
     2  C   -0.298424
     3  H    0.148556
     4  H    0.149843
     5  H    0.149060
     6  H    0.149444
 Sum of Mulliken charges =  -0.00000

 Dipole moment (field-independent basis, Debye):
    X=              0.0019    Y=             -0.0397    Z=              0.0071  Tot=              0.0404
 Quadrupole moment (field-independent basis, Debye-Ang):
   XX=            -12.2479   YY=            -12.2337   ZZ=            -16.1838
   XY=              0.0148   XZ=              0.0004   YZ=             -0.0002

 Normal termination of Gaussian 16 at Fri Sep 22 17:12:09 2023.
