 Gaussian 16, Revision A.03,
 Gaussian 16:  ES64L-G16RevA.03 25-Dec-2016

 ------------------------------------------------------
 # b3lyp/6-31+g(d,p) scrf=(iefpcm,solvent=acetonitrile)
 ------------------------------------------------------

 -----------------------
 tmpdir/M2_conf_0_80.gjf
 -----------------------
 Symbolic Z-matrix:
 Charge =  0 Multiplicity = 1

                         Standard orientation:
 ---------------------------------------------------------------------
 Center     Atomic      Atomic             Coordinates (Angstroms)
 Number     Number       Type             X           Y           Z
 ---------------------------------------------------------------------
      1          6           0        0.551452   -0.013120   -0.000284
      2          1           0        1.109484    0.918309    0.000577
      3          1           0        1.042448   -0.897682    0.000620
      4          8           0       -0.682580    0.007262    0.000063
 ---------------------------------------------------------------------

 SCF Done:  E(RB3LYP) =  -114.510776870     A.U. after    9 cycles

 The electronic state is 1-A.
 Alpha  occ. eigenvalues --  -19.18383 -10.28876  -1.06061  -0.65719  -0.51390
 Alpha  occ. eigenvalues --   -0.46009  -0.40344  -0.28332
 Alpha virt. eigenvalues --   -0.06566   0.02131   0.04260   0.05284   0.07328
 Alpha virt. eigenvalues --    0.16943   0.19453   0.20750   0.21404   0.25937
 Alpha virt. eigenvalues --    0.27408   0.35491   0.63228   0.65910   0.72422

 Mulliken charges:
               1
     1  C    0.125904
     2  H    0.141520
     3  H    0.147598
     4  O   -0.415022
 Sum of Mulliken charges =   0.00000

 Dipole moment (field-independent basis, Debye):
    X=              3.2714    Y=             -0.0964    Z=              0.0002  Tot=              3.2728
 Quadrupole moment (field-independent basis, Debye-Ang):
   XX=            -12.2811   YY=            -11.4777   ZZ=            -11.7046
   XY=             -0.0295   XZ=              0.0006   YZ=              0.0000

 Normal termination of Gaussian 16 at Fri Sep 22 17:11:38 2023.
