 Gaussian 16, Revision A.03,
 Gaussian 16:  ES64L-G16RevA.03 25-Dec-2016

 ------------------------------------------------------
 # b3lyp/6-31+g(d,p) scrf=(iefpcm,solvent=acetonitrile)
 ------------------------------------------------------

 -----------------------
 tmpdir/M2_conf_0_47.gjf
 -----------------------
 Symbolic Z-matrix:
 Charge =  0 Multiplicity = 1

                         Standard orientation:
 ---------------------------------------------------------------------
 Center     Atomic      Atomic             Coordinates (Angstroms)
 Number     Number       Type             X           Y           Z
 ---------------------------------------------------------------------
      1          6           0       -1.097064   -0.458725   -0.076698
      2         16           0        0.712880   -0.462637   -0.063065
      3          8           0        1.190896    0.970252   -0.025148
      4          8           0       -1.714601    0.591438    0.087605
      5          1           0       -1.580191   -1.321776   -0.292277
      6          1           0        0.946129   -1.017197    1.261844
 ---------------------------------------------------------------------

 SCF Done:  E(RB3LYP) =  -587.870071886     A.U. after   13 cycles

 The electronic state is 1-A.
 Alpha  occ. eigenvalues --  -89.02214 -19.21260 -19.15219 -10.32741  -8.07130
 Alpha  occ. eigenvalues --   -6.03542  -6.03396  -6.02852  -1.09415  -1.03934
 Alpha  occ. eigenvalues --   -0.77396  -0.63754  -0.53913  -0.49215  -0.47618
 Alpha  occ. eigenvalues --   -0.42958  -0.40668  -0.34088  -0.30023  -0.26534
 Alpha virt. eigenvalues --   -0.09839  -0.02397  -0.01144   0.01732   0.03281
 Alpha virt. eigenvalues --    0.05024   0.06219   0.08278   0.08794   0.09561
 Alpha virt. eigenvalues --    0.12047   0.14402   0.17321   0.18615   0.21184

 Mulliken charges:
               1
     1  C    0.086415
     2  S    0.702285
     3  O   -0.747724
     4  O   -0.351320
     5  H    0.197814
     6  H    0.112531
 Sum of Mulliken charges =  -0.00000

 Dipole moment (field-independent basis, Debye):
    X=             -0.8355    Y=             -6.6569    Z=              0.6556  Tot=              6.7411
 Quadrupole moment (field-independent basis, Debye-Ang):
   XX=            -34.3482   YY=            -31.4736   ZZ=            -28.0043
   XY=             -0.1213   XZ=              2.2519   YZ=             -1.3807

 Normal termination of Gaussian 16 at Fri Sep 22 17:11:04 2023.
