 Gaussian 16, Revision A.03,
 Gaussian 16:  ES64L-G16RevA.03 25-Dec-2016

 ------------------------------------------------------
 # b3lyp/6-31+g(d,p) scrf=(iefpcm,solvent=acetonitrile)
 ------------------------------------------------------

 ------------------------
 tmpdir/M2_conf_0_137.gjf
 ------------------------
 Symbolic Z-matrix:
 Charge =  0 Multiplicity = 1

                         Standard orientation:
 ---------------------------------------------------------------------
 Center     Atomic      Atomic             Coordinates (Angstroms)
 Number     Number       Type             X           Y           Z
 ---------------------------------------------------------------------
      1          6           0       -1.424689   -0.475046   -0.001871
      2          6           0       -0.589979    0.644788   -0.001032
      3          6           0        0.799524    0.483759   -0.000832
      4          1           0       -1.003220   -1.395212   -0.001086
      5          1           0       -2.503422   -0.364945    0.009985
      6          1           0       -1.025677    1.638779    0.004074
      7          8           0        1.297449   -0.644662    0.001017
      8          1           0        1.443591    1.357667    0.001302
 ---------------------------------------------------------------------

 SCF Done:  E(RB3LYP) =  -191.920201701     A.U. after   12 cycles

 The electronic state is 1-A.
 Alpha  occ. eigenvalues --  -19.15861 -10.28120 -10.22384 -10.21201  -1.05065
 Alpha  occ. eigenvalues --   -0.79991  -0.67957  -0.55682  -0.52417  -0.46091
 Alpha  occ. eigenvalues --   -0.42713  -0.41072  -0.39706  -0.28608  -0.27420
 Alpha virt. eigenvalues --   -0.09719   0.01410   0.03138   0.03961   0.04169
 Alpha virt. eigenvalues --    0.06272   0.06545   0.07532   0.09689   0.09806
 Alpha virt. eigenvalues --    0.12254   0.12395   0.14287   0.16404   0.20028

 Mulliken charges:
               1
     1  C   -0.279758
     2  C    0.069563
     3  C    0.068093
     4  H    0.175387
     5  H    0.172959
     6  H    0.157919
     7  O   -0.502955
     8  H    0.138791
 Sum of Mulliken charges =  -0.00000

 Dipole moment (field-independent basis, Debye):
    X=             -2.9576    Y=              2.3784    Z=              0.0107  Tot=              3.7953
 Quadrupole moment (field-independent basis, Debye-Ang):
   XX=            -24.0463   YY=            -22.4630   ZZ=            -25.1792
   XY=              4.0404   XZ=             -0.0346   YZ=              0.0076

 Normal termination of Gaussian 16 at Fri Sep 22 17:12:51 2023.
