 Gaussian 16, Revision A.03,
 Gaussian 16:  ES64L-G16RevA.03 25-Dec-2016

 ------------------------------------------------------
 # b3lyp/6-31+g(d,p) scrf=(iefpcm,solvent=acetonitrile)
 ------------------------------------------------------

 ------------------------
 tmpdir/M2_conf_0_101.gjf
 ------------------------
 Symbolic Z-matrix:
 Charge =  0 Multiplicity = 2

                         Standard orientation:
 ---------------------------------------------------------------------
 Center     Atomic      Atomic             Coordinates (Angstroms)
 Number     Number       Type             X           Y           Z
 ---------------------------------------------------------------------
      1          6           0        0.807377   -0.003266   -0.008805
      2          6           0       -0.678867    0.008002   -0.015126
      3          1           0       -1.132987   -0.661396   -0.753763
      4          1           0        1.279728    0.951497    0.051043
      5          1           0        1.329101   -0.952185    0.024535
      6          1           0       -1.081135    1.012243   -0.152492
      7          1           0       -1.165764   -0.378572    0.974262
 ---------------------------------------------------------------------

 SCF Done:  E(UB3LYP) =  -79.1666093559     A.U. after   12 cycles

 The electronic state is 2-A.
 Alpha  occ. eigenvalues --  -10.19690 -10.18874  -0.75789  -0.60961  -0.46167
 Alpha  occ. eigenvalues --   -0.39998  -0.39187  -0.36394  -0.20587
 Alpha virt. eigenvalues --    0.02026   0.03188   0.05314   0.05905   0.08367
 Alpha virt. eigenvalues --    0.08961   0.09880   0.14782   0.16592   0.19135
 Alpha virt. eigenvalues --    0.20935   0.27531   0.29487   0.30659   0.60806

  Beta  occ. eigenvalues --  -10.18969 -10.18366  -0.74051  -0.58717  -0.45487
  Beta  occ. eigenvalues --   -0.38399  -0.38331  -0.35965
  Beta virt. eigenvalues --   -0.06137   0.02168   0.03405   0.05321   0.06313
  Beta virt. eigenvalues --    0.08340   0.08939   0.11212   0.15061   0.17352
  Beta virt. eigenvalues --    0.19951   0.22194   0.28591   0.29949   0.31060

 Mulliken charges and spin densities:
               1          2
     1  C   -0.252604   1.122510
     2  C   -0.517546  -0.145340
     3  H    0.162102   0.038076
     4  H    0.152202  -0.049765
     5  H    0.149717  -0.048468
     6  H    0.157359   0.003766
     7  H    0.148770   0.079220
 Sum of Mulliken charges =  -0.00000   1.00000

 Dipole moment (field-independent basis, Debye):
    X=             -0.3585    Y=             -0.0060    Z=              0.0773  Tot=              0.3668
 Quadrupole moment (field-independent basis, Debye-Ang):
   XX=            -14.7028   YY=            -13.5230   ZZ=            -15.8828
   XY=              0.0166   XZ=              0.1645   YZ=              0.0627

 Normal termination of Gaussian 16 at Fri Sep 22 17:12:24 2023.
