 Gaussian 16, Revision A.03,
 Gaussian 16:  ES64L-G16RevA.03 25-Dec-2016

 ------------------------------------------------------
 # b3lyp/6-31+g(d,p) scrf=(iefpcm,solvent=acetonitrile)
 ------------------------------------------------------

 -----------------------
 tmpdir/M2_conf_0_74.gjf
 -----------------------
 Symbolic Z-matrix:
 Charge =  0 Multiplicity = 1

                         Standard orientation:
 ---------------------------------------------------------------------
 Center     Atomic      Atomic             Coordinates (Angstroms)
 Number     Number       Type             X           Y           Z
 ---------------------------------------------------------------------
      1          6           0       -0.698768    0.507539    0.000025
      2          6           0        0.698831    0.506346   -0.001487
      3          1           0        1.245975    1.444204    0.001148
      4          8           0       -1.316411   -0.560997   -0.000183
      5          1           0       -1.241572    1.448038    0.003515
      6          8           0        1.315813   -0.560947    0.000697
 ---------------------------------------------------------------------

 SCF Done:  E(RB3LYP) =  -227.825833752     A.U. after   10 cycles

 The electronic state is 1-A.
 Alpha  occ. eigenvalues --  -19.20212 -19.20190 -10.30671 -10.30611  -1.10075
 Alpha  occ. eigenvalues --   -1.06284  -0.75918  -0.58059  -0.55911  -0.48777
 Alpha  occ. eigenvalues --   -0.46099  -0.45721  -0.38985  -0.31911  -0.29347
 Alpha virt. eigenvalues --   -0.14573   0.01294   0.02147   0.03497   0.03839
 Alpha virt. eigenvalues --    0.06083   0.07349   0.08865   0.10210   0.15334
 Alpha virt. eigenvalues --    0.15859   0.19866   0.20282   0.21591   0.24051

 Mulliken charges:
               1
     1  C    0.223175
     2  C    0.222455
     3  H    0.167698
     4  O   -0.391150
     5  H    0.168251
     6  O   -0.390430
 Sum of Mulliken charges =  -0.00000

 Dipole moment (field-independent basis, Debye):
    X=              0.0030    Y=              4.9796    Z=             -0.0009  Tot=              4.9796
 Quadrupole moment (field-independent basis, Debye-Ang):
   XX=            -27.0218   YY=            -21.5477   ZZ=            -21.3009
   XY=             -0.0034   XZ=             -0.0042   YZ=              0.0020

 Normal termination of Gaussian 16 at Fri Sep 22 17:11:41 2023.
