 Gaussian 16, Revision A.03,
 Gaussian 16:  ES64L-G16RevA.03 25-Dec-2016

 ------------------------------------------------------
 # b3lyp/6-31+g(d,p) scrf=(iefpcm,solvent=acetonitrile)
 ------------------------------------------------------

 ------------------------
 tmpdir/M2_conf_0_136.gjf
 ------------------------
 Symbolic Z-matrix:
 Charge =  0 Multiplicity = 1

                         Standard orientation:
 ---------------------------------------------------------------------
 Center     Atomic      Atomic             Coordinates (Angstroms)
 Number     Number       Type             X           Y           Z
 ---------------------------------------------------------------------
      1          6           0        0.550261   -0.012979   -0.000612
      2          1           0        1.101769    0.921746    0.001241
      3          8           0       -0.680985    0.006609    0.000137
      4          1           0        1.044547   -0.896744    0.001337
 ---------------------------------------------------------------------

 SCF Done:  E(RB3LYP) =  -114.510952658     A.U. after    9 cycles

 The electronic state is 1-A.
 Alpha  occ. eigenvalues --  -19.18354 -10.28833  -1.06198  -0.65654  -0.51444
 Alpha  occ. eigenvalues --   -0.46027  -0.40419  -0.28304
 Alpha virt. eigenvalues --   -0.06488   0.02132   0.04273   0.05278   0.07330
 Alpha virt. eigenvalues --    0.16928   0.19458   0.20751   0.21415   0.25976
 Alpha virt. eigenvalues --    0.27439   0.35608   0.63227   0.66108   0.72553

 Mulliken charges:
               1
     1  C    0.126005
     2  H    0.140517
     3  O   -0.413695
     4  H    0.147173
 Sum of Mulliken charges =  -0.00000

 Dipole moment (field-independent basis, Debye):
    X=              3.2558    Y=             -0.0940    Z=              0.0005  Tot=              3.2571
 Quadrupole moment (field-independent basis, Debye-Ang):
   XX=            -12.2948   YY=            -11.4713   ZZ=            -11.6973
   XY=             -0.0412   XZ=              0.0013   YZ=              0.0001

 Normal termination of Gaussian 16 at Fri Sep 22 17:12:32 2023.
