 Gaussian 16, Revision A.03,
 Gaussian 16:  ES64L-G16RevA.03 25-Dec-2016

 ------------------------------------------------------
 # b3lyp/6-31+g(d,p) scrf=(iefpcm,solvent=acetonitrile)
 ------------------------------------------------------

 -----------------------
 tmpdir/M2_conf_0_73.gjf
 -----------------------
 Symbolic Z-matrix:
 Charge =  0 Multiplicity = 1

                         Standard orientation:
 ---------------------------------------------------------------------
 Center     Atomic      Atomic             Coordinates (Angstroms)
 Number     Number       Type             X           Y           Z
 ---------------------------------------------------------------------
      1          6           0        0.698287   -0.007450   -0.000559
      2          6           0       -0.700012   -0.007324   -0.000660
      3          1           0       -1.237897    0.935885   -0.000916
      4          1           0        1.200158   -0.887506   -0.001090
      5          1           0        1.255251    0.922971    0.004466
      6          1           0       -1.207162   -0.882707    0.004855
 ---------------------------------------------------------------------

 SCF Done:  E(RB3LYP) =  -78.5888663780     A.U. after    9 cycles

 The electronic state is 1-A.
 Alpha  occ. eigenvalues --  -10.19595 -10.19537  -0.75833  -0.59927  -0.48016
 Alpha  occ. eigenvalues --   -0.41398  -0.37820  -0.27089
 Alpha virt. eigenvalues --   -0.02236   0.02539   0.03703   0.05219   0.06701
 Alpha virt. eigenvalues --    0.08822   0.09085   0.12408   0.16010   0.18264
 Alpha virt. eigenvalues --    0.21955   0.25640   0.32525   0.35432   0.58389

 Mulliken charges:
               1
     1  C   -0.298772
     2  C   -0.298456
     3  H    0.149559
     4  H    0.148361
     5  H    0.150263
     6  H    0.149044
 Sum of Mulliken charges =  -0.00000

 Dipole moment (field-independent basis, Debye):
    X=              0.0062    Y=             -0.0416    Z=              0.0095  Tot=              0.0431
 Quadrupole moment (field-independent basis, Debye-Ang):
   XX=            -12.2548   YY=            -12.2289   ZZ=            -16.1863
   XY=              0.0292   XZ=             -0.0006   YZ=             -0.0003

 Normal termination of Gaussian 16 at Fri Sep 22 17:11:29 2023.
