 Gaussian 16, Revision A.03,
 Gaussian 16:  ES64L-G16RevA.03 25-Dec-2016

 ------------------------------------------------------
 # b3lyp/6-31+g(d,p) scrf=(iefpcm,solvent=acetonitrile)
 ------------------------------------------------------

 ------------------------
 tmpdir/M2_conf_0_123.gjf
 ------------------------
 Symbolic Z-matrix:
 Charge =  0 Multiplicity = 1

                         Standard orientation:
 ---------------------------------------------------------------------
 Center     Atomic      Atomic             Coordinates (Angstroms)
 Number     Number       Type             X           Y           Z
 ---------------------------------------------------------------------
      1          6           0        0.696069   -0.014680    0.001718
      2          6           0       -0.702106   -0.007079   -0.001852
      3          1           0       -1.244035    0.932258    0.008482
      4          1           0        1.246265    0.965978   -0.007921
      5          1           0        1.226521   -0.876636    0.002373
      6          1           0       -1.192530   -0.891047   -0.002128
 ---------------------------------------------------------------------

 SCF Done:  E(RB3LYP) =  -78.5876275334     A.U. after    9 cycles

 The electronic state is 1-A.
 Alpha  occ. eigenvalues --  -10.19942 -10.19590  -0.75759  -0.59712  -0.47908
 Alpha  occ. eigenvalues --   -0.41332  -0.37536  -0.27114
 Alpha virt. eigenvalues --   -0.02242   0.02523   0.03679   0.05164   0.06688
 Alpha virt. eigenvalues --    0.08780   0.09059   0.12397   0.15911   0.17661
 Alpha virt. eigenvalues --    0.21918   0.25129   0.32515   0.35320   0.58365

 Mulliken charges:
               1
     1  C   -0.297318
     2  C   -0.300293
     3  H    0.151893
     4  H    0.146531
     5  H    0.150788
     6  H    0.148399
 Sum of Mulliken charges =  -0.00000

 Dipole moment (field-independent basis, Debye):
    X=             -0.0112    Y=             -0.0535    Z=              0.0012  Tot=              0.0547
 Quadrupole moment (field-independent basis, Debye-Ang):
   XX=            -12.3102   YY=            -12.2157   ZZ=            -16.2291
   XY=             -0.0916   XZ=             -0.0179   YZ=              0.0004

 Normal termination of Gaussian 16 at Fri Sep 22 17:11:53 2023.
