 Gaussian 16, Revision A.03,
 Gaussian 16:  ES64L-G16RevA.03 25-Dec-2016

 ------------------------------------------------------
 # b3lyp/6-31+g(d,p) scrf=(iefpcm,solvent=acetonitrile)
 ------------------------------------------------------

 -----------------------
 tmpdir/M2_conf_0_49.gjf
 -----------------------
 Symbolic Z-matrix:
 Charge =  0 Multiplicity = 1

                         Standard orientation:
 ---------------------------------------------------------------------
 Center     Atomic      Atomic             Coordinates (Angstroms)
 Number     Number       Type             X           Y           Z
 ---------------------------------------------------------------------
      1          8           0       -1.222206    0.660979   -0.002957
      2         16           0       -0.212239   -0.460187   -0.080887
      3          7           0        1.387427    0.316608    0.001490
      4          1           0       -0.243966   -1.083172    1.148399
      5          1           0        1.623924    0.874092    0.806182
      6          1           0        2.081516    0.067983   -0.647158
 ---------------------------------------------------------------------

 SCF Done:  E(RB3LYP) =  -529.919293891     A.U. after   11 cycles

 The electronic state is 1-A.
 Alpha  occ. eigenvalues --  -89.03632 -19.14470 -14.36156  -8.07844  -6.04347
 Alpha  occ. eigenvalues --   -6.04166  -6.03557  -1.03951  -0.88612  -0.70281
 Alpha  occ. eigenvalues --   -0.53566  -0.51103  -0.45979  -0.40354  -0.31524
 Alpha  occ. eigenvalues --   -0.28556  -0.26181
 Alpha virt. eigenvalues --   -0.02313  -0.01011   0.00820   0.03952   0.05947
 Alpha virt. eigenvalues --    0.07760   0.08839   0.11195   0.12303   0.14539
 Alpha virt. eigenvalues --    0.16484   0.19716   0.20149   0.22959   0.24242

 Mulliken charges:
               1
     1  O   -0.745930
     2  S    0.803308
     3  N   -0.828964
     4  H    0.075271
     5  H    0.348911
     6  H    0.347405
 Sum of Mulliken charges =   0.00000

 Dipole moment (field-independent basis, Debye):
    X=              4.1941    Y=             -3.0012    Z=              1.1738  Tot=              5.2892
 Quadrupole moment (field-independent basis, Debye-Ang):
   XX=            -25.7673   YY=            -26.3701   ZZ=            -23.5724
   XY=              4.1595   XZ=             -0.6020   YZ=              0.2890

 Normal termination of Gaussian 16 at Fri Sep 22 17:11:16 2023.
