 Gaussian 16, Revision A.03,
 Gaussian 16:  ES64L-G16RevA.03 25-Dec-2016

 ------------------------------------------------------
 # b3lyp/6-31+g(d,p) scrf=(iefpcm,solvent=acetonitrile)
 ------------------------------------------------------

 -----------------------
 tmpdir/M2_conf_0_30.gjf
 -----------------------
 Symbolic Z-matrix:
 Charge =  0 Multiplicity = 1

                         Standard orientation:
 ---------------------------------------------------------------------
 Center     Atomic      Atomic             Coordinates (Angstroms)
 Number     Number       Type             X           Y           Z
 ---------------------------------------------------------------------
      1          6           0        0.698238   -0.009909    0.000531
      2          6           0       -0.696159   -0.006916   -0.000774
      3          1           0       -1.221197    0.944304   -0.001967
      4          1           0        1.188192   -0.895727   -0.004228
      5          1           0        1.244544    0.929372    0.002647
      6          1           0       -1.224013   -0.877000    0.005006
 ---------------------------------------------------------------------

 SCF Done:  E(RB3LYP) =  -78.5897270228     A.U. after    9 cycles

 The electronic state is 1-A.
 Alpha  occ. eigenvalues --  -10.19566 -10.19499  -0.75890  -0.59767  -0.48102
 Alpha  occ. eigenvalues --   -0.41306  -0.37761  -0.27137
 Alpha virt. eigenvalues --   -0.02152   0.02549   0.03717   0.05191   0.06693
 Alpha virt. eigenvalues --    0.08803   0.09085   0.12434   0.15997   0.18112
 Alpha virt. eigenvalues --    0.21982   0.25559   0.32703   0.35433   0.58286

 Mulliken charges:
               1
     1  C   -0.298259
     2  C   -0.298417
     3  H    0.148308
     4  H    0.147918
     5  H    0.150665
     6  H    0.149787
 Sum of Mulliken charges =  -0.00000

 Dipole moment (field-independent basis, Debye):
    X=             -0.0022    Y=             -0.0372    Z=              0.0019  Tot=              0.0373
 Quadrupole moment (field-independent basis, Debye-Ang):
   XX=            -12.3192   YY=            -12.1949   ZZ=            -16.1810
   XY=              0.0638   XZ=             -0.0067   YZ=              0.0000

 Normal termination of Gaussian 16 at Fri Sep 22 17:10:08 2023.
