 Gaussian 16, Revision A.03,
 Gaussian 16:  ES64L-G16RevA.03 25-Dec-2016

 ------------------------------------------------------
 # b3lyp/6-31+g(d,p) scrf=(iefpcm,solvent=acetonitrile)
 ------------------------------------------------------

 ------------------------
 tmpdir/M2_conf_0_114.gjf
 ------------------------
 Symbolic Z-matrix:
 Charge =  0 Multiplicity = 1

                         Standard orientation:
 ---------------------------------------------------------------------
 Center     Atomic      Atomic             Coordinates (Angstroms)
 Number     Number       Type             X           Y           Z
 ---------------------------------------------------------------------
      1          8           0       -1.504415   -0.908504   -0.319813
      2         16           0       -0.505292    0.034405    0.239258
      3          6           0        1.133021   -0.657819   -0.031231
      4          1           0       -0.641769    0.024140    1.656263
      5          8           0       -0.510034    1.434423   -0.239746
      6          8           0        2.101151    0.103197   -0.087224
      7          1           0        1.234702   -1.660632   -0.122735
 ---------------------------------------------------------------------

 SCF Done:  E(RB3LYP) =  -663.071480120     A.U. after   13 cycles

 The electronic state is 1-A.
 Alpha  occ. eigenvalues --  -89.13206 -19.23776 -19.18678 -19.18548 -10.34758
 Alpha  occ. eigenvalues --   -8.16361  -6.12766  -6.12703  -6.12652  -1.13838
 Alpha  occ. eigenvalues --   -1.10593  -1.03089  -0.77653  -0.65994  -0.57960
 Alpha  occ. eigenvalues --   -0.52841  -0.51404  -0.48025  -0.44689  -0.38932
 Alpha  occ. eigenvalues --   -0.36108  -0.35620  -0.33973  -0.30954
 Alpha virt. eigenvalues --   -0.12800  -0.01904   0.00101   0.01358   0.02455
 Alpha virt. eigenvalues --    0.04830   0.06520   0.07317   0.08226   0.09099
 Alpha virt. eigenvalues --    0.09501   0.11653   0.14048   0.15476   0.17399

 Mulliken charges:
               1
     1  O   -0.612964
     2  S    1.138505
     3  C    0.046813
     4  H    0.118099
     5  O   -0.618048
     6  O   -0.294738
     7  H    0.222333
 Sum of Mulliken charges =  -0.00000

 Dipole moment (field-independent basis, Debye):
    X=              1.7466    Y=             -3.3671    Z=              3.4512  Tot=              5.1282
 Quadrupole moment (field-independent basis, Debye-Ang):
   XX=            -43.4200   YY=            -39.1347   ZZ=            -31.5163
   XY=             -5.0548   XZ=             -2.7407   YZ=              0.3571

 Normal termination of Gaussian 16 at Fri Sep 22 17:12:07 2023.
