 Gaussian 16, Revision A.03,
 Gaussian 16:  ES64L-G16RevA.03 25-Dec-2016

 ------------------------------------------------------
 # b3lyp/6-31+g(d,p) scrf=(iefpcm,solvent=acetonitrile)
 ------------------------------------------------------

 -----------------------
 tmpdir/M2_conf_0_70.gjf
 -----------------------
 Symbolic Z-matrix:
 Charge =  0 Multiplicity = 1

                         Standard orientation:
 ---------------------------------------------------------------------
 Center     Atomic      Atomic             Coordinates (Angstroms)
 Number     Number       Type             X           Y           Z
 ---------------------------------------------------------------------
      1          6           0        0.699586    0.486158   -0.001488
      2          6           0       -0.699513    0.487490    0.000057
      3          6           0        1.399277   -0.724494    0.000878
      4          1           0        1.247312    1.423679    0.001203
      5          6           0       -1.400198   -0.724440   -0.000252
      6          1           0       -1.242224    1.428038    0.003628
 ---------------------------------------------------------------------

 SCF Done:  E(RB3LYP) =  -153.324503903     A.U. after   13 cycles

 The electronic state is 1-A.
 Alpha  occ. eigenvalues --  -10.29066 -10.29029 -10.24123 -10.24064  -0.85659
 Alpha  occ. eigenvalues --   -0.72916  -0.61399  -0.50161  -0.49165  -0.36844
 Alpha  occ. eigenvalues --   -0.33638  -0.31478  -0.25355
 Alpha virt. eigenvalues --   -0.14518  -0.11470  -0.08342   0.02251   0.03746
 Alpha virt. eigenvalues --    0.04161   0.04494   0.05823   0.06098   0.08898
 Alpha virt. eigenvalues --    0.09203   0.09353   0.10640   0.12171   0.12883

 Mulliken charges:
               1
     1  C    0.185495
     2  C    0.182893
     3  C   -0.420529
     4  H    0.234666
     5  C   -0.416943
     6  H    0.234419
 Sum of Mulliken charges =  -0.00000

 Dipole moment (field-independent basis, Debye):
    X=             -0.0000    Y=              4.7504    Z=              0.0064  Tot=              4.7504
 Quadrupole moment (field-independent basis, Debye-Ang):
   XX=            -26.3051   YY=            -24.4384   ZZ=            -26.9312
   XY=              0.0106   XZ=             -0.0112   YZ=              0.0130

 Normal termination of Gaussian 16 at Fri Sep 22 17:11:29 2023.
