 Gaussian 16, Revision A.03,
 Gaussian 16:  ES64L-G16RevA.03 25-Dec-2016

 ------------------------------------------------------
 # b3lyp/6-31+g(d,p) scrf=(iefpcm,solvent=acetonitrile)
 ------------------------------------------------------

 -----------------------
 tmpdir/M2_conf_0_66.gjf
 -----------------------
 Symbolic Z-matrix:
 Charge =  0 Multiplicity = 1

                         Standard orientation:
 ---------------------------------------------------------------------
 Center     Atomic      Atomic             Coordinates (Angstroms)
 Number     Number       Type             X           Y           Z
 ---------------------------------------------------------------------
      1          6           0        0.552444   -0.013108   -0.000995
      2          1           0        1.106300    0.919178    0.002031
      3          8           0       -0.682183    0.007435    0.000220
      4          1           0        1.036503   -0.900010    0.002175
 ---------------------------------------------------------------------

 SCF Done:  E(RB3LYP) =  -114.510460040     A.U. after    9 cycles

 The electronic state is 1-A.
 Alpha  occ. eigenvalues --  -19.18354 -10.28849  -1.06023  -0.65712  -0.51486
 Alpha  occ. eigenvalues --   -0.45957  -0.40316  -0.28324
 Alpha virt. eigenvalues --   -0.06572   0.02133   0.04277   0.05279   0.07329
 Alpha virt. eigenvalues --    0.16906   0.19440   0.20751   0.21404   0.25936
 Alpha virt. eigenvalues --    0.27494   0.35467   0.63237   0.65887   0.72568

 Mulliken charges:
               1
     1  C    0.126118
     2  H    0.142077
     3  O   -0.415739
     4  H    0.147544
 Sum of Mulliken charges =  -0.00000

 Dipole moment (field-independent basis, Debye):
    X=              3.2744    Y=             -0.0954    Z=              0.0008  Tot=              3.2758
 Quadrupole moment (field-independent basis, Debye-Ang):
   XX=            -12.2938   YY=            -11.4599   ZZ=            -11.7051
   XY=             -0.0236   XZ=              0.0021   YZ=              0.0002

 Normal termination of Gaussian 16 at Fri Sep 22 17:10:50 2023.
