 Gaussian 16, Revision A.03,
 Gaussian 16:  ES64L-G16RevA.03 25-Dec-2016

 ------------------------------------------------------
 # b3lyp/6-31+g(d,p) scrf=(iefpcm,solvent=acetonitrile)
 ------------------------------------------------------

 -----------------------
 tmpdir/M2_conf_0_56.gjf
 -----------------------
 Symbolic Z-matrix:
 Charge =  0 Multiplicity = 1

                         Standard orientation:
 ---------------------------------------------------------------------
 Center     Atomic      Atomic             Coordinates (Angstroms)
 Number     Number       Type             X           Y           Z
 ---------------------------------------------------------------------
      1          6           0        0.695713   -0.015527   -0.001675
      2          6           0       -0.703437   -0.003955    0.001114
      3          1           0        1.288211    0.947366    0.004774
      4          1           0        1.201297   -0.893449    0.001561
      5          1           0       -1.209459   -0.878512    0.000255
      6          1           0       -1.233705    0.941485   -0.003222
 ---------------------------------------------------------------------

 SCF Done:  E(RB3LYP) =  -78.5874173028     A.U. after    9 cycles

 The electronic state is 1-A.
 Alpha  occ. eigenvalues --  -10.20035 -10.19619  -0.75724  -0.59725  -0.47792
 Alpha  occ. eigenvalues --   -0.41350  -0.37539  -0.27109
 Alpha virt. eigenvalues --   -0.02270   0.02517   0.03655   0.05171   0.06687
 Alpha virt. eigenvalues --    0.08788   0.09048   0.12386   0.15907   0.17636
 Alpha virt. eigenvalues --    0.21758   0.25130   0.32472   0.35265   0.58395

 Mulliken charges:
               1
     1  C   -0.297516
     2  C   -0.300986
     3  H    0.148441
     4  H    0.149687
     5  H    0.149544
     6  H    0.150831
 Sum of Mulliken charges =  -0.00000

 Dipole moment (field-independent basis, Debye):
    X=             -0.0074    Y=             -0.0600    Z=              0.0042  Tot=              0.0606
 Quadrupole moment (field-independent basis, Debye-Ang):
   XX=            -12.2654   YY=            -12.2433   ZZ=            -16.2391
   XY=              0.0086   XZ=              0.0141   YZ=             -0.0004

 Normal termination of Gaussian 16 at Fri Sep 22 17:11:25 2023.
