 Gaussian 16, Revision A.03,
 Gaussian 16:  ES64L-G16RevA.03 25-Dec-2016

 ------------------------------------------------------
 # b3lyp/6-31+g(d,p) scrf=(iefpcm,solvent=acetonitrile)
 ------------------------------------------------------

 ------------------------
 tmpdir/M2_conf_0_139.gjf
 ------------------------
 Symbolic Z-matrix:
 Charge =  0 Multiplicity = 1

                         Standard orientation:
 ---------------------------------------------------------------------
 Center     Atomic      Atomic             Coordinates (Angstroms)
 Number     Number       Type             X           Y           Z
 ---------------------------------------------------------------------
      1          6           0        0.697611    0.505498   -0.001172
      2          6           0       -0.701188    0.504405   -0.000350
      3          1           0       -1.248987    1.441296    0.004705
      4          8           0        1.322953   -0.557618    0.000699
      5          1           0        1.236066    1.448153    0.000149
      6          8           0       -1.318656   -0.560990   -0.000164
 ---------------------------------------------------------------------

 SCF Done:  E(RB3LYP) =  -227.826213405     A.U. after   10 cycles

 The electronic state is 1-A.
 Alpha  occ. eigenvalues --  -19.20225 -19.20201 -10.30671 -10.30612  -1.10108
 Alpha  occ. eigenvalues --   -1.06373  -0.75906  -0.58063  -0.55916  -0.48799
 Alpha  occ. eigenvalues --   -0.46116  -0.45754  -0.39045  -0.31966  -0.29314
 Alpha virt. eigenvalues --   -0.14548   0.01285   0.02170   0.03504   0.03839
 Alpha virt. eigenvalues --    0.06085   0.07351   0.08875   0.10201   0.15331
 Alpha virt. eigenvalues --    0.15881   0.19876   0.20254   0.21598   0.24054

 Mulliken charges:
               1
     1  C    0.223452
     2  C    0.223330
     3  H    0.167641
     4  O   -0.391727
     5  H    0.167241
     6  O   -0.389937
 Sum of Mulliken charges =  -0.00000

 Dipole moment (field-independent basis, Debye):
    X=             -0.0275    Y=              4.9613    Z=             -0.0010  Tot=              4.9613
 Quadrupole moment (field-independent basis, Debye-Ang):
   XX=            -27.0530   YY=            -21.5674   ZZ=            -21.2964
   XY=             -0.0216   XZ=             -0.0057   YZ=              0.0020

 Normal termination of Gaussian 16 at Fri Sep 22 17:12:33 2023.
