 Gaussian 16, Revision A.03,
 Gaussian 16:  ES64L-G16RevA.03 25-Dec-2016

 ------------------------------------------------------
 # b3lyp/6-31+g(d,p) scrf=(iefpcm,solvent=acetonitrile)
 ------------------------------------------------------

 ------------------------
 tmpdir/M2_conf_0_140.gjf
 ------------------------
 Symbolic Z-matrix:
 Charge =  0 Multiplicity = 1

                         Standard orientation:
 ---------------------------------------------------------------------
 Center     Atomic      Atomic             Coordinates (Angstroms)
 Number     Number       Type             X           Y           Z
 ---------------------------------------------------------------------
      1          6           0       -0.550798   -0.013023   -0.000482
      2          1           0       -1.105162    0.920361    0.000976
      3          8           0        0.682446    0.006502    0.000108
      4          1           0       -1.049619   -0.894237    0.001052
 ---------------------------------------------------------------------

 SCF Done:  E(RB3LYP) =  -114.510954462     A.U. after    9 cycles

 The electronic state is 1-A.
 Alpha  occ. eigenvalues --  -19.18390 -10.28876  -1.06103  -0.65720  -0.51361
 Alpha  occ. eigenvalues --   -0.46037  -0.40371  -0.28330
 Alpha virt. eigenvalues --   -0.06549   0.02130   0.04257   0.05287   0.07328
 Alpha virt. eigenvalues --    0.16957   0.19483   0.20744   0.21406   0.25944
 Alpha virt. eigenvalues --    0.27380   0.35526   0.63225   0.65948   0.72372

 Mulliken charges:
               1
     1  C    0.125876
     2  H    0.140833
     3  O   -0.414488
     4  H    0.147779
 Sum of Mulliken charges =   0.00000

 Dipole moment (field-independent basis, Debye):
    X=             -3.2674    Y=             -0.0941    Z=              0.0004  Tot=              3.2688
 Quadrupole moment (field-independent basis, Debye-Ang):
   XX=            -12.2775   YY=            -11.4850   ZZ=            -11.7023
   XY=              0.0441   XZ=             -0.0010   YZ=              0.0001

 Normal termination of Gaussian 16 at Fri Sep 22 17:12:38 2023.
