 Gaussian 16, Revision A.03,
 Gaussian 16:  ES64L-G16RevA.03 25-Dec-2016

 ------------------------------------------------------
 # b3lyp/6-31+g(d,p) scrf=(iefpcm,solvent=acetonitrile)
 ------------------------------------------------------

 -----------------------
 tmpdir/M2_conf_0_32.gjf
 -----------------------
 Symbolic Z-matrix:
 Charge =  0 Multiplicity = 1

                         Standard orientation:
 ---------------------------------------------------------------------
 Center     Atomic      Atomic             Coordinates (Angstroms)
 Number     Number       Type             X           Y           Z
 ---------------------------------------------------------------------
      1          6           0        0.228089    0.439049   -0.005461
      2          6           0       -1.160111   -0.141216   -0.001955
      3          8           0        1.224707   -0.295020    0.001168
      4          1           0        0.368869    1.446826    0.011241
      5          1           0       -1.554331   -0.193194    1.020446
      6          1           0       -1.850382    0.474815   -0.585801
      7          1           0       -1.169679   -1.155282   -0.410735
 ---------------------------------------------------------------------

 SCF Done:  E(RB3LYP) =  -153.844882134     A.U. after   10 cycles

 The electronic state is 1-A.
 Alpha  occ. eigenvalues --  -19.16876 -10.28906 -10.19625  -1.05147  -0.75447
 Alpha  occ. eigenvalues --   -0.60854  -0.48832  -0.44536  -0.44409  -0.39868
 Alpha  occ. eigenvalues --   -0.36916  -0.27406
 Alpha virt. eigenvalues --   -0.04932   0.01661   0.03361   0.04698   0.05798
 Alpha virt. eigenvalues --    0.08051   0.08409   0.09669   0.14575   0.16634
 Alpha virt. eigenvalues --    0.16726   0.21560   0.22341   0.24759   0.25435

 Mulliken charges:
               1
     1  C    0.273400
     2  C   -0.511459
     3  O   -0.464942
     4  H    0.145273
     5  H    0.196390
     6  H    0.177052
     7  H    0.184285
 Sum of Mulliken charges =  -0.00000

 Dipole moment (field-independent basis, Debye):
    X=             -3.3716    Y=              1.8187    Z=              0.0803  Tot=              3.8317
 Quadrupole moment (field-independent basis, Debye-Ang):
   XX=            -21.6753   YY=            -17.7545   ZZ=            -17.9333
   XY=              1.5879   XZ=             -0.1451   YZ=             -0.0216

 Normal termination of Gaussian 16 at Fri Sep 22 17:10:31 2023.
