 Gaussian 16, Revision A.03,
 Gaussian 16:  ES64L-G16RevA.03 25-Dec-2016

 ------------------------------------------------------
 # b3lyp/6-31+g(d,p) scrf=(iefpcm,solvent=acetonitrile)
 ------------------------------------------------------

 -----------------------
 tmpdir/M2_conf_0_11.gjf
 -----------------------
 Symbolic Z-matrix:
 Charge =  0 Multiplicity = 1

                         Standard orientation:
 ---------------------------------------------------------------------
 Center     Atomic      Atomic             Coordinates (Angstroms)
 Number     Number       Type             X           Y           Z
 ---------------------------------------------------------------------
      1          6           0       -1.494710   -0.620396   -0.057132
      2          6           0       -0.404038    0.246294    0.064554
      3         16           0        1.197976   -0.592628   -0.011852
      4          8           0       -2.630840   -0.151235   -0.080077
      5          1           0       -1.348011   -1.694798   -0.126791
      6          8           0       -0.562999    1.463888    0.122691
      7          8           0        2.229359    0.498974   -0.178526
      8          1           0        1.288725   -1.071551    1.359176
 ---------------------------------------------------------------------

 SCF Done:  E(RB3LYP) =  -701.178938857     A.U. after   15 cycles

 The electronic state is 1-A.
 Alpha  occ. eigenvalues --  -89.03524 -19.22554 -19.21201 -19.16028 -10.34053
 Alpha  occ. eigenvalues --  -10.32106  -8.08389  -6.04796  -6.04656  -6.04136
 Alpha  occ. eigenvalues --   -1.12160  -1.08162  -1.04869  -0.81991  -0.71478
 Alpha  occ. eigenvalues --   -0.58805  -0.56299  -0.50895  -0.50128  -0.47594
 Alpha  occ. eigenvalues --   -0.46236  -0.42318  -0.40296  -0.35324  -0.32823
 Alpha  occ. eigenvalues --   -0.30309  -0.27340
 Alpha virt. eigenvalues --   -0.16134  -0.04433  -0.02522   0.00367   0.01662
 Alpha virt. eigenvalues --    0.02473   0.04355   0.05244   0.06064   0.07587
 Alpha virt. eigenvalues --    0.08283   0.09667   0.10204   0.12429   0.12673

 Mulliken charges:
               1
     1  C    0.192108
     2  C    0.199319
     3  S    0.754792
     4  O   -0.372866
     5  H    0.182420
     6  O   -0.347274
     7  O   -0.734965
     8  H    0.126466
 Sum of Mulliken charges =  -0.00000

 Dipole moment (field-independent basis, Debye):
    X=             -0.3489    Y=             -6.5541    Z=              1.5851  Tot=              6.7520
 Quadrupole moment (field-independent basis, Debye-Ang):
   XX=            -58.2337   YY=            -41.6149   ZZ=            -37.2700
   XY=             -2.7325   XZ=              2.6818   YZ=             -1.7537

 Normal termination of Gaussian 16 at Fri Sep 22 17:11:16 2023.
