 Gaussian 16, Revision A.03,
 Gaussian 16:  ES64L-G16RevA.03 25-Dec-2016

 ------------------------------------------------------
 # b3lyp/6-31+g(d,p) scrf=(iefpcm,solvent=acetonitrile)
 ------------------------------------------------------

 -----------------------
 tmpdir/M2_conf_0_91.gjf
 -----------------------
 Symbolic Z-matrix:
 Charge =  0 Multiplicity = 2

                         Standard orientation:
 ---------------------------------------------------------------------
 Center     Atomic      Atomic             Coordinates (Angstroms)
 Number     Number       Type             X           Y           Z
 ---------------------------------------------------------------------
      1          6           0        0.794868    0.006096    0.013447
      2          6           0       -0.701754    0.009138   -0.001440
      3          1           0       -1.092301   -0.409464    0.937131
      4          1           0        1.403903    0.881472   -0.019090
      5          1           0        1.318859   -0.932284   -0.035873
      6          1           0       -1.120163    1.006058   -0.146855
      7          1           0       -1.068981   -0.637190   -0.807352
 ---------------------------------------------------------------------

 SCF Done:  E(UB3LYP) =  -79.1697649197     A.U. after   11 cycles

 The electronic state is 2-A.
 Alpha  occ. eigenvalues --  -10.19408 -10.18528  -0.75814  -0.61384  -0.45244
 Alpha  occ. eigenvalues --   -0.41601  -0.39359  -0.36100  -0.20491
 Alpha virt. eigenvalues --    0.02094   0.03157   0.05464   0.05916   0.08418
 Alpha virt. eigenvalues --    0.09035   0.09836   0.15072   0.17090   0.19205
 Alpha virt. eigenvalues --    0.22506   0.26310   0.29319   0.31070   0.61176

  Beta  occ. eigenvalues --  -10.18605 -10.18069  -0.74138  -0.59030  -0.44607
  Beta  occ. eigenvalues --   -0.40168  -0.38514  -0.35640
  Beta virt. eigenvalues --   -0.05779   0.02248   0.03347   0.05468   0.06371
  Beta virt. eigenvalues --    0.08393   0.09015   0.11262   0.15297   0.17526
  Beta virt. eigenvalues --    0.20128   0.23886   0.27157   0.29782   0.31428

 Mulliken charges and spin densities:
               1          2
     1  C   -0.257028   1.136845
     2  C   -0.522145  -0.130771
     3  H    0.164238   0.050939
     4  H    0.151026  -0.049171
     5  H    0.143627  -0.048864
     6  H    0.158146   0.002860
     7  H    0.162136   0.038162
 Sum of Mulliken charges =  -0.00000   1.00000

 Dipole moment (field-independent basis, Debye):
    X=             -0.3717    Y=             -0.0476    Z=             -0.0852  Tot=              0.3843
 Quadrupole moment (field-independent basis, Debye-Ang):
   XX=            -14.5336   YY=            -13.7607   ZZ=            -15.6015
   XY=              0.0627   XZ=             -0.1168   YZ=             -0.0085

 Normal termination of Gaussian 16 at Fri Sep 22 17:11:42 2023.
