 Gaussian 16, Revision A.03,
 Gaussian 16:  ES64L-G16RevA.03 25-Dec-2016

 ------------------------------------------------------
 # b3lyp/6-31+g(d,p) scrf=(iefpcm,solvent=acetonitrile)
 ------------------------------------------------------

 ------------------------
 tmpdir/M2_conf_0_132.gjf
 ------------------------
 Symbolic Z-matrix:
 Charge =  0 Multiplicity = 1

                         Standard orientation:
 ---------------------------------------------------------------------
 Center     Atomic      Atomic             Coordinates (Angstroms)
 Number     Number       Type             X           Y           Z
 ---------------------------------------------------------------------
      1          6           0        0.809698    0.485263   -0.002172
      2          6           0       -0.576911    0.650334   -0.000853
      3          6           0       -1.417852   -0.467706   -0.000126
      4          8           0        1.269904   -0.658307    0.000535
      5          1           0        1.472582    1.343531    0.007323
      6          1           0       -0.998197    1.650518    0.003555
      7          1           0       -1.028213   -1.402339    0.002190
      8          1           0       -2.495013   -0.332605    0.001559
 ---------------------------------------------------------------------

 SCF Done:  E(RB3LYP) =  -191.918590080     A.U. after   12 cycles

 The electronic state is 1-A.
 Alpha  occ. eigenvalues --  -19.15746 -10.28039 -10.22381 -10.21165  -1.05104
 Alpha  occ. eigenvalues --   -0.79819  -0.67953  -0.55765  -0.52339  -0.46149
 Alpha  occ. eigenvalues --   -0.42547  -0.41097  -0.39700  -0.28471  -0.27357
 Alpha virt. eigenvalues --   -0.09728   0.01431   0.03129   0.03963   0.04155
 Alpha virt. eigenvalues --    0.06272   0.06546   0.07508   0.09672   0.09826
 Alpha virt. eigenvalues --    0.12252   0.12395   0.14333   0.16430   0.20090

 Mulliken charges:
               1
     1  C    0.071227
     2  C    0.061484
     3  C   -0.276159
     4  O   -0.501469
     5  H    0.140944
     6  H    0.156638
     7  H    0.176496
     8  H    0.170838
 Sum of Mulliken charges =  -0.00000

 Dipole moment (field-independent basis, Debye):
    X=             -2.8210    Y=              2.4211    Z=              0.0070  Tot=              3.7174
 Quadrupole moment (field-independent basis, Debye-Ang):
   XX=            -23.9409   YY=            -22.4486   ZZ=            -25.1849
   XY=              4.1418   XZ=             -0.0095   YZ=              0.0068

 Normal termination of Gaussian 16 at Fri Sep 22 17:12:30 2023.
