 Gaussian 16, Revision A.03,
 Gaussian 16:  ES64L-G16RevA.03 25-Dec-2016

 ------------------------------------------------------
 # b3lyp/6-31+g(d,p) scrf=(iefpcm,solvent=acetonitrile)
 ------------------------------------------------------

 ------------------------
 tmpdir/M2_conf_0_111.gjf
 ------------------------
 Symbolic Z-matrix:
 Charge =  0 Multiplicity = 1

                         Standard orientation:
 ---------------------------------------------------------------------
 Center     Atomic      Atomic             Coordinates (Angstroms)
 Number     Number       Type             X           Y           Z
 ---------------------------------------------------------------------
      1          6           0        1.225311    1.451264   -0.176478
      2         16           0        0.353760   -0.186024    0.055833
      3          6           0       -1.292230   -0.041400   -0.655644
      4          1           0        2.163539    1.530021    0.344176
      5          1           0        0.507006    2.201367    0.156056
      6          1           0        1.358086    1.502280   -1.262603
      7          8           0        0.167854   -0.436867    1.502221
      8          8           0        1.072068   -1.201282   -0.752360
      9          8           0       -2.222608    0.330823    0.062269
     10          1           0       -1.425784   -0.257862   -1.635263
 ---------------------------------------------------------------------

 SCF Done:  E(RB3LYP) =  -702.406398977     A.U. after   13 cycles

 The electronic state is 1-A.
 Alpha  occ. eigenvalues --  -89.12175 -19.23330 -19.17446 -19.17425 -10.34324
 Alpha  occ. eigenvalues --  -10.24338  -8.15295  -6.11709  -6.11655  -6.11562
 Alpha  occ. eigenvalues --   -1.13143  -1.10083  -1.02187  -0.79745  -0.73207
 Alpha  occ. eigenvalues --   -0.62851  -0.55316  -0.51209  -0.50820  -0.48324
 Alpha  occ. eigenvalues --   -0.45478  -0.44567  -0.43975  -0.38038  -0.34875
 Alpha  occ. eigenvalues --   -0.34357  -0.32793  -0.30067
 Alpha virt. eigenvalues --   -0.12426  -0.00241   0.01514   0.02173   0.03260
 Alpha virt. eigenvalues --    0.04165   0.04860   0.05883   0.06945   0.07757
 Alpha virt. eigenvalues --    0.08105   0.08465   0.10203   0.11032   0.11556

 Mulliken charges:
               1
     1  C   -0.478850
     2  S    0.984577
     3  C    0.133118
     4  H    0.239278
     5  H    0.221011
     6  H    0.220702
     7  O   -0.616917
     8  O   -0.615451
     9  O   -0.304030
    10  H    0.216562
 Sum of Mulliken charges =  -0.00000

 Dipole moment (field-independent basis, Debye):
    X=              0.4367    Y=              4.6456    Z=             -4.0682  Tot=              6.1905
 Quadrupole moment (field-independent basis, Debye-Ang):
   XX=            -44.7270   YY=            -41.2926   ZZ=            -45.1848
   XY=              7.6999   XZ=              4.7356   YZ=             -0.8668

 Normal termination of Gaussian 16 at Fri Sep 22 17:12:24 2023.
