 Gaussian 16, Revision A.03,
 Gaussian 16:  ES64L-G16RevA.03 25-Dec-2016

 ------------------------------------------------------
 # b3lyp/6-31+g(d,p) scrf=(iefpcm,solvent=acetonitrile)
 ------------------------------------------------------

 -----------------------
 tmpdir/M2_conf_0_31.gjf
 -----------------------
 Symbolic Z-matrix:
 Charge =  0 Multiplicity = 1

                         Standard orientation:
 ---------------------------------------------------------------------
 Center     Atomic      Atomic             Coordinates (Angstroms)
 Number     Number       Type             X           Y           Z
 ---------------------------------------------------------------------
      1          6           0       -0.711468    0.512346   -0.003108
      2          6           0        0.694407    0.503924   -0.002803
      3          1           0        1.232281    1.447937   -0.000947
      4          8           0       -1.306900   -0.572824   -0.000107
      5          1           0       -1.262552    1.455624    0.019669
      6          8           0        1.323480   -0.552324    0.002200
 ---------------------------------------------------------------------

 SCF Done:  E(RB3LYP) =  -227.826939473     A.U. after   11 cycles

 The electronic state is 1-A.
 Alpha  occ. eigenvalues --  -19.20252 -19.20146 -10.30844 -10.30621  -1.10037
 Alpha  occ. eigenvalues --   -1.06268  -0.75653  -0.58022  -0.55746  -0.48741
 Alpha  occ. eigenvalues --   -0.46028  -0.45738  -0.39001  -0.31940  -0.29292
 Alpha virt. eigenvalues --   -0.14481   0.01313   0.02010   0.03470   0.03826
 Alpha virt. eigenvalues --    0.06093   0.07311   0.08856   0.10190   0.15320
 Alpha virt. eigenvalues --    0.15833   0.19846   0.20295   0.21528   0.23901

 Mulliken charges:
               1
     1  C    0.224365
     2  C    0.219000
     3  H    0.163681
     4  O   -0.389266
     5  H    0.172904
     6  O   -0.390684
 Sum of Mulliken charges =   0.00000

 Dipole moment (field-independent basis, Debye):
    X=             -0.1084    Y=              4.9960    Z=             -0.0032  Tot=              4.9972
 Quadrupole moment (field-independent basis, Debye-Ang):
   XX=            -27.0106   YY=            -21.5342   ZZ=            -21.3211
   XY=             -0.1751   XZ=             -0.0213   YZ=              0.0092

 Normal termination of Gaussian 16 at Fri Sep 22 17:10:20 2023.
