 Gaussian 16, Revision A.03,
 Gaussian 16:  ES64L-G16RevA.03 25-Dec-2016

 ------------------------------------------------------
 # b3lyp/6-31+g(d,p) scrf=(iefpcm,solvent=acetonitrile)
 ------------------------------------------------------

 -----------------------
 tmpdir/M2_conf_0_68.gjf
 -----------------------
 Symbolic Z-matrix:
 Charge =  0 Multiplicity = 1

                         Standard orientation:
 ---------------------------------------------------------------------
 Center     Atomic      Atomic             Coordinates (Angstroms)
 Number     Number       Type             X           Y           Z
 ---------------------------------------------------------------------
      1          6           0        0.696369   -0.015604   -0.001655
      2          6           0       -0.704280   -0.003982    0.001133
      3          1           0       -1.233037    0.942301   -0.003281
      4          1           0        1.288892    0.947274    0.004720
      5          1           0        1.201930   -0.893539    0.001500
      6          1           0       -1.210326   -0.878520    0.000190
 ---------------------------------------------------------------------

 SCF Done:  E(RB3LYP) =  -78.5872368776     A.U. after    9 cycles

 The electronic state is 1-A.
 Alpha  occ. eigenvalues --  -10.20056 -10.19641  -0.75697  -0.59736  -0.47789
 Alpha  occ. eigenvalues --   -0.41326  -0.37562  -0.27089
 Alpha virt. eigenvalues --   -0.02297   0.02516   0.03653   0.05173   0.06689
 Alpha virt. eigenvalues --    0.08788   0.09045   0.12377   0.15904   0.17631
 Alpha virt. eigenvalues --    0.21760   0.25116   0.32403   0.35252   0.58432

 Mulliken charges:
               1
     1  C   -0.297753
     2  C   -0.301165
     3  H    0.150917
     4  H    0.148548
     5  H    0.149776
     6  H    0.149676
 Sum of Mulliken charges =  -0.00000

 Dipole moment (field-independent basis, Debye):
    X=             -0.0068    Y=             -0.0595    Z=              0.0039  Tot=              0.0600
 Quadrupole moment (field-independent basis, Debye-Ang):
   XX=            -12.2651   YY=            -12.2423   ZZ=            -16.2459
   XY=              0.0103   XZ=              0.0141   YZ=             -0.0004

 Normal termination of Gaussian 16 at Fri Sep 22 17:11:18 2023.
