 Gaussian 16, Revision A.03,
 Gaussian 16:  ES64L-G16RevA.03 25-Dec-2016

 ------------------------------------------------------
 # b3lyp/6-31+g(d,p) scrf=(iefpcm,solvent=acetonitrile)
 ------------------------------------------------------

 ----------------------
 tmpdir/M2_conf_0_2.gjf
 ----------------------
 Symbolic Z-matrix:
 Charge =  0 Multiplicity = 2

                         Standard orientation:
 ---------------------------------------------------------------------
 Center     Atomic      Atomic             Coordinates (Angstroms)
 Number     Number       Type             X           Y           Z
 ---------------------------------------------------------------------
      1          6           0        0.816381   -0.001305   -0.006765
      2          6           0       -0.691968    0.007575   -0.015398
      3          1           0        1.287088    0.954815    0.043595
      4          1           0        1.339607   -0.948949    0.037536
      5          1           0       -1.095682    1.009639   -0.163979
      6          1           0       -1.097872   -0.684036   -0.761597
      7          1           0       -1.179624   -0.369092    0.977424
 ---------------------------------------------------------------------

 SCF Done:  E(UB3LYP) =  -79.1665623976     A.U. after   12 cycles

 The electronic state is 2-A.
 Alpha  occ. eigenvalues --  -10.19834 -10.19029  -0.75382  -0.60992  -0.46041
 Alpha  occ. eigenvalues --   -0.40057  -0.38626  -0.36615  -0.20704
 Alpha virt. eigenvalues --    0.02034   0.03150   0.05350   0.05936   0.08360
 Alpha virt. eigenvalues --    0.08936   0.09850   0.14746   0.16589   0.19151
 Alpha virt. eigenvalues --    0.20862   0.26509   0.29173   0.30623   0.61365

  Beta  occ. eigenvalues --  -10.19120 -10.18500  -0.73655  -0.58724  -0.45365
  Beta  occ. eigenvalues --   -0.38550  -0.37818  -0.36155
  Beta virt. eigenvalues --   -0.06130   0.02177   0.03373   0.05356   0.06353
  Beta virt. eigenvalues --    0.08333   0.08915   0.11210   0.15020   0.17368
  Beta virt. eigenvalues --    0.19881   0.22137   0.27592   0.29627   0.30993

 Mulliken charges and spin densities:
               1          2
     1  C   -0.256806   1.128652
     2  C   -0.515240  -0.141216
     3  H    0.152225  -0.049801
     4  H    0.150706  -0.048626
     5  H    0.158090   0.003753
     6  H    0.161950   0.034380
     7  H    0.149076   0.072859
 Sum of Mulliken charges =  -0.00000   1.00000

 Dipole moment (field-independent basis, Debye):
    X=             -0.3420    Y=             -0.0072    Z=              0.0727  Tot=              0.3497
 Quadrupole moment (field-independent basis, Debye-Ang):
   XX=            -14.7508   YY=            -13.5096   ZZ=            -15.8731
   XY=             -0.0303   XZ=              0.1260   YZ=              0.0709

 Normal termination of Gaussian 16 at Fri Sep 22 17:10:45 2023.
