 Gaussian 16, Revision A.03,
 Gaussian 16:  ES64L-G16RevA.03 25-Dec-2016

 ------------------------------------------------------
 # b3lyp/6-31+g(d,p) scrf=(iefpcm,solvent=acetonitrile)
 ------------------------------------------------------

 -----------------------
 tmpdir/M2_conf_0_52.gjf
 -----------------------
 Symbolic Z-matrix:
 Charge =  0 Multiplicity = 1

                         Standard orientation:
 ---------------------------------------------------------------------
 Center     Atomic      Atomic             Coordinates (Angstroms)
 Number     Number       Type             X           Y           Z
 ---------------------------------------------------------------------
      1         16           0       -1.139860   -0.412361    0.213446
      2          7           0        0.427242   -0.568598   -0.616550
      3          6           0        1.456669    0.387761   -0.308903
      4          1           0       -0.703567   -0.331212    1.518564
      5          8           0       -1.695302    0.951985   -0.122954
      6          1           0        0.623585   -1.379912   -1.133790
      7          1           0        1.437231    1.285496   -0.778018
      8          8           0        2.339028    0.132643    0.516377
 ---------------------------------------------------------------------

 SCF Done:  E(RB3LYP) =  -643.227344258     A.U. after   13 cycles

 The electronic state is 1-A.
 Alpha  occ. eigenvalues --  -89.04811 -19.19338 -19.15609 -14.38215 -10.33371
 Alpha  occ. eigenvalues --   -8.09025  -6.05553  -6.05323  -6.04724  -1.08101
 Alpha  occ. eigenvalues --   -1.05016  -0.91978  -0.72838  -0.65431  -0.55244
 Alpha  occ. eigenvalues --   -0.53607  -0.48285  -0.47591  -0.41806  -0.40910
 Alpha  occ. eigenvalues --   -0.32967  -0.31435  -0.29481  -0.26823
 Alpha virt. eigenvalues --   -0.08569  -0.01854  -0.00673   0.00122   0.02966
 Alpha virt. eigenvalues --    0.03671   0.05088   0.06644   0.07693   0.09077
 Alpha virt. eigenvalues --    0.09985   0.11971   0.13710   0.15642   0.17974

 Mulliken charges:
               1
     1  S    0.874931
     2  N   -0.689656
     3  C    0.289987
     4  H    0.086982
     5  O   -0.731197
     6  H    0.377975
     7  H    0.175079
     8  O   -0.384102
 Sum of Mulliken charges =  -0.00000

 Dipole moment (field-independent basis, Debye):
    X=              0.4426    Y=             -3.1664    Z=             -0.5532  Tot=              3.2447
 Quadrupole moment (field-independent basis, Debye-Ang):
   XX=            -47.6471   YY=            -35.7615   ZZ=            -33.1739
   XY=              5.5803   XZ=             -7.5361   YZ=              1.0055

 Normal termination of Gaussian 16 at Fri Sep 22 17:11:18 2023.
