 Gaussian 16, Revision A.03,
 Gaussian 16:  ES64L-G16RevA.03 25-Dec-2016

 ------------------------------------------------------
 # b3lyp/6-31+g(d,p) scrf=(iefpcm,solvent=acetonitrile)
 ------------------------------------------------------

 -----------------------
 tmpdir/M2_conf_0_17.gjf
 -----------------------
 Symbolic Z-matrix:
 Charge =  0 Multiplicity = 1

                         Standard orientation:
 ---------------------------------------------------------------------
 Center     Atomic      Atomic             Coordinates (Angstroms)
 Number     Number       Type             X           Y           Z
 ---------------------------------------------------------------------
      1          6           0        0.693648   -0.009696    0.000530
      2          6           0       -0.691049   -0.006842   -0.000771
      3          1           0        1.183678   -0.895472   -0.004224
      4          1           0        1.239873    0.929638    0.002646
      5          1           0       -1.218829   -0.876969    0.004999
      6          1           0       -1.220314    0.942031   -0.001973
 ---------------------------------------------------------------------

 SCF Done:  E(RB3LYP) =  -78.5906702430     A.U. after    9 cycles

 The electronic state is 1-A.
 Alpha  occ. eigenvalues --  -10.19419 -10.19351  -0.76071  -0.59676  -0.48161
 Alpha  occ. eigenvalues --   -0.41422  -0.37622  -0.27262
 Alpha virt. eigenvalues --   -0.01971   0.02559   0.03734   0.05174   0.06681
 Alpha virt. eigenvalues --    0.08804   0.09102   0.12496   0.16016   0.18123
 Alpha virt. eigenvalues --    0.21982   0.25643   0.33140   0.35519   0.58043

 Mulliken charges:
               1
     1  C   -0.296826
     2  C   -0.297046
     3  H    0.147235
     4  H    0.149978
     5  H    0.149005
     6  H    0.147654
 Sum of Mulliken charges =  -0.00000

 Dipole moment (field-independent basis, Debye):
    X=             -0.0037    Y=             -0.0389    Z=              0.0019  Tot=              0.0391
 Quadrupole moment (field-independent basis, Debye-Ang):
   XX=            -12.3347   YY=            -12.1925   ZZ=            -16.1369
   XY=              0.0591   XZ=             -0.0067   YZ=              0.0001

 Normal termination of Gaussian 16 at Fri Sep 22 17:10:26 2023.
