 Gaussian 16, Revision A.03,
 Gaussian 16:  ES64L-G16RevA.03 25-Dec-2016

 ------------------------------------------------------
 # b3lyp/6-31+g(d,p) scrf=(iefpcm,solvent=acetonitrile)
 ------------------------------------------------------

 ------------------------
 tmpdir/M2_conf_0_142.gjf
 ------------------------
 Symbolic Z-matrix:
 Charge =  0 Multiplicity = 1

                         Standard orientation:
 ---------------------------------------------------------------------
 Center     Atomic      Atomic             Coordinates (Angstroms)
 Number     Number       Type             X           Y           Z
 ---------------------------------------------------------------------
      1          6           0        0.699403   -0.008591   -0.000497
      2          6           0       -0.699597   -0.007880   -0.000409
      3          1           0       -1.238958    0.934254   -0.000245
      4          1           0        1.206239   -0.883249   -0.000039
      5          1           0        1.246630    0.928641    0.002867
      6          1           0       -1.212750   -0.880820    0.002853
 ---------------------------------------------------------------------

 SCF Done:  E(RB3LYP) =  -78.5886849382     A.U. after    9 cycles

 The electronic state is 1-A.
 Alpha  occ. eigenvalues --  -10.19608 -10.19548  -0.75816  -0.59960  -0.48006
 Alpha  occ. eigenvalues --   -0.41410  -0.37818  -0.27081
 Alpha virt. eigenvalues --   -0.02252   0.02535   0.03701   0.05223   0.06702
 Alpha virt. eigenvalues --    0.08824   0.09086   0.12404   0.16010   0.18269
 Alpha virt. eigenvalues --    0.21967   0.25645   0.32482   0.35438   0.58406

 Mulliken charges:
               1
     1  C   -0.298625
     2  C   -0.298574
     3  H    0.149520
     4  H    0.148636
     5  H    0.149914
     6  H    0.149129
 Sum of Mulliken charges =  -0.00000

 Dipole moment (field-independent basis, Debye):
    X=              0.0017    Y=             -0.0396    Z=              0.0070  Tot=              0.0403
 Quadrupole moment (field-independent basis, Debye-Ang):
   XX=            -12.2444   YY=            -12.2352   ZZ=            -16.1882
   XY=              0.0144   XZ=              0.0004   YZ=             -0.0002

 Normal termination of Gaussian 16 at Fri Sep 22 17:12:42 2023.
