 Gaussian 16, Revision A.03,
 Gaussian 16:  ES64L-G16RevA.03 25-Dec-2016

 ------------------------------------------------------
 # b3lyp/6-31+g(d,p) scrf=(iefpcm,solvent=acetonitrile)
 ------------------------------------------------------

 -----------------------
 tmpdir/M2_conf_0_58.gjf
 -----------------------
 Symbolic Z-matrix:
 Charge =  0 Multiplicity = 1

                         Standard orientation:
 ---------------------------------------------------------------------
 Center     Atomic      Atomic             Coordinates (Angstroms)
 Number     Number       Type             X           Y           Z
 ---------------------------------------------------------------------
      1          7           0       -1.192800   -0.148399   -0.011860
      2          6           0        0.087213    0.507535   -0.029512
      3          6           0        1.262418   -0.252770    0.023243
      4          1           0       -1.718779   -0.239326    0.908450
      5          1           0       -1.500801   -0.649140   -0.798449
      6          1           0        0.110397    1.519581   -0.069398
      7          1           0        2.158822    0.213394    0.015604
      8          1           0        1.202169   -1.334309    0.064424
 ---------------------------------------------------------------------

 SCF Done:  E(RB3LYP) =  -133.935252182     A.U. after   11 cycles

 The electronic state is 1-A.
 Alpha  occ. eigenvalues --  -14.32759 -10.22713 -10.18669  -0.87915  -0.73072
 Alpha  occ. eigenvalues --   -0.59417  -0.49788  -0.48748  -0.43233  -0.39526
 Alpha  occ. eigenvalues --   -0.26899  -0.23184
 Alpha virt. eigenvalues --   -0.01921   0.00944   0.03686   0.03941   0.06270
 Alpha virt. eigenvalues --    0.07584   0.09153   0.10532   0.11192   0.13278
 Alpha virt. eigenvalues --    0.14469   0.16903   0.20154   0.21766   0.23929

 Mulliken charges:
               1
     1  N   -0.721966
     2  C   -0.055207
     3  C   -0.292065
     4  H    0.321024
     5  H    0.322817
     6  H    0.137057
     7  H    0.139119
     8  H    0.149221
 Sum of Mulliken charges =  -0.00000

 Dipole moment (field-independent basis, Debye):
    X=             -0.2732    Y=             -0.3877    Z=              0.2150  Tot=              0.5208
 Quadrupole moment (field-independent basis, Debye-Ang):
   XX=            -18.1540   YY=            -18.9761   ZZ=            -19.8211
   XY=              1.7085   XZ=             -0.7393   YZ=              0.7087

 Normal termination of Gaussian 16 at Fri Sep 22 17:11:24 2023.
