 Gaussian 16, Revision A.03,
 Gaussian 16:  ES64L-G16RevA.03 25-Dec-2016

 ------------------------------------------------------
 # b3lyp/6-31+g(d,p) scrf=(iefpcm,solvent=acetonitrile)
 ------------------------------------------------------

 -----------------------
 tmpdir/M2_conf_0_59.gjf
 -----------------------
 Symbolic Z-matrix:
 Charge =  0 Multiplicity = 1

                         Standard orientation:
 ---------------------------------------------------------------------
 Center     Atomic      Atomic             Coordinates (Angstroms)
 Number     Number       Type             X           Y           Z
 ---------------------------------------------------------------------
      1          6           0        0.806217    0.483028   -0.000969
      2          6           0       -0.584253    0.641756   -0.000861
      3          6           0       -1.428236   -0.476125    0.000129
      4          8           0        1.291623   -0.650185    0.001684
      5          1           0        1.442268    1.361271   -0.007843
      6          1           0       -1.006651    1.690419    0.010730
      7          1           0       -1.027496   -1.403635   -0.005361
      8          1           0       -2.503468   -0.338528   -0.000789
 ---------------------------------------------------------------------

 SCF Done:  E(RB3LYP) =  -191.918236063     A.U. after   12 cycles

 The electronic state is 1-A.
 Alpha  occ. eigenvalues --  -19.15902 -10.28120 -10.22475 -10.21650  -1.05131
 Alpha  occ. eigenvalues --   -0.79749  -0.68042  -0.55527  -0.51971  -0.46185
 Alpha  occ. eigenvalues --   -0.42669  -0.41105  -0.39437  -0.28552  -0.27438
 Alpha virt. eigenvalues --   -0.09776   0.01360   0.03060   0.03909   0.04143
 Alpha virt. eigenvalues --    0.06255   0.06516   0.07522   0.09578   0.09808
 Alpha virt. eigenvalues --    0.12160   0.12354   0.14283   0.16371   0.19390

 Mulliken charges:
               1
     1  C    0.068013
     2  C    0.069586
     3  C   -0.283872
     4  O   -0.502622
     5  H    0.140142
     6  H    0.159467
     7  H    0.176654
     8  H    0.172631
 Sum of Mulliken charges =   0.00000

 Dipole moment (field-independent basis, Debye):
    X=             -2.8918    Y=              2.3767    Z=             -0.0033  Tot=              3.7432
 Quadrupole moment (field-independent basis, Debye-Ang):
   XX=            -24.0969   YY=            -22.4098   ZZ=            -25.2458
   XY=              4.1098   XZ=             -0.0187   YZ=              0.0258

 Normal termination of Gaussian 16 at Fri Sep 22 17:11:43 2023.
