 Gaussian 16, Revision A.03,
 Gaussian 16:  ES64L-G16RevA.03 25-Dec-2016

 ------------------------------------------------------
 # b3lyp/6-31+g(d,p) scrf=(iefpcm,solvent=acetonitrile)
 ------------------------------------------------------

 -----------------------
 tmpdir/M2_conf_0_79.gjf
 -----------------------
 Symbolic Z-matrix:
 Charge =  0 Multiplicity = 1

                         Standard orientation:
 ---------------------------------------------------------------------
 Center     Atomic      Atomic             Coordinates (Angstroms)
 Number     Number       Type             X           Y           Z
 ---------------------------------------------------------------------
      1          6           0        0.700382   -0.007966   -0.000274
      2          6           0       -0.699518   -0.008259    0.000233
      3          1           0       -1.245895    0.930056    0.001006
      4          1           0        1.206106   -0.884191    0.001917
      5          1           0        1.242804    0.932759   -0.000885
      6          1           0       -1.208196   -0.881275   -0.001796
 ---------------------------------------------------------------------

 SCF Done:  E(RB3LYP) =  -78.5884008199     A.U. after    9 cycles

 The electronic state is 1-A.
 Alpha  occ. eigenvalues --  -10.19615 -10.19556  -0.75807  -0.59963  -0.48017
 Alpha  occ. eigenvalues --   -0.41379  -0.37845  -0.27069
 Alpha virt. eigenvalues --   -0.02267   0.02536   0.03702   0.05222   0.06703
 Alpha virt. eigenvalues --    0.08823   0.09083   0.12399   0.16008   0.18248
 Alpha virt. eigenvalues --    0.21998   0.25630   0.32446   0.35438   0.58421

 Mulliken charges:
               1
     1  C   -0.298606
     2  C   -0.298702
     3  H    0.149712
     4  H    0.148875
     5  H    0.149957
     6  H    0.148764
 Sum of Mulliken charges =  -0.00000

 Dipole moment (field-independent basis, Debye):
    X=             -0.0029    Y=             -0.0408    Z=              0.0003  Tot=              0.0409
 Quadrupole moment (field-independent basis, Debye-Ang):
   XX=            -12.2501   YY=            -12.2302   ZZ=            -16.1918
   XY=              0.0010   XZ=              0.0026   YZ=             -0.0000

 Normal termination of Gaussian 16 at Fri Sep 22 17:11:33 2023.
