 Gaussian 16, Revision A.03,
 Gaussian 16:  ES64L-G16RevA.03 25-Dec-2016

 ------------------------------------------------------
 # b3lyp/6-31+g(d,p) scrf=(iefpcm,solvent=acetonitrile)
 ------------------------------------------------------

 -----------------------
 tmpdir/M2_conf_0_97.gjf
 -----------------------
 Symbolic Z-matrix:
 Charge =  0 Multiplicity = 1

                         Standard orientation:
 ---------------------------------------------------------------------
 Center     Atomic      Atomic             Coordinates (Angstroms)
 Number     Number       Type             X           Y           Z
 ---------------------------------------------------------------------
      1          6           0       -0.025522   -0.000152   -0.000753
      2          1           0       -0.023575    0.994018    0.456777
      3          1           0       -0.944209   -0.204128   -0.522253
      4          1           0        0.195044   -0.767851    0.748837
      5          1           0        0.925870   -0.021130   -0.678842
 ---------------------------------------------------------------------

 SCF Done:  E(RB3LYP) =  -40.5215670430     A.U. after    8 cycles

 The electronic state is 1-A.
 Alpha  occ. eigenvalues --  -10.17819  -0.69146  -0.40554  -0.39527  -0.37067
 Alpha virt. eigenvalues --    0.01591   0.06086   0.06183   0.06376   0.15618
 Alpha virt. eigenvalues --    0.18393   0.19118   0.27202   0.63405   0.63774
 Alpha virt. eigenvalues --    0.65000   0.87569   0.91379   0.92773   1.04162

 Mulliken charges:
               1
     1  C   -0.620937
     2  H    0.158208
     3  H    0.163298
     4  H    0.157352
     5  H    0.142078
 Sum of Mulliken charges =   0.00000

 Dipole moment (field-independent basis, Debye):
    X=              0.0140    Y=             -0.0023    Z=              0.0583  Tot=              0.0600
 Quadrupole moment (field-independent basis, Debye-Ang):
   XX=             -8.3486   YY=             -8.5212   ZZ=             -8.8082
   XY=              0.0187   XZ=              0.1748   YZ=              0.0109

 Normal termination of Gaussian 16 at Fri Sep 22 17:11:42 2023.
