 Gaussian 16, Revision A.03,
 Gaussian 16:  ES64L-G16RevA.03 25-Dec-2016

 ------------------------------------------------------
 # b3lyp/6-31+g(d,p) scrf=(iefpcm,solvent=acetonitrile)
 ------------------------------------------------------

 -----------------------
 tmpdir/M2_conf_0_26.gjf
 -----------------------
 Symbolic Z-matrix:
 Charge =  0 Multiplicity = 1

                         Standard orientation:
 ---------------------------------------------------------------------
 Center     Atomic      Atomic             Coordinates (Angstroms)
 Number     Number       Type             X           Y           Z
 ---------------------------------------------------------------------
      1          6           0        0.702499   -0.008972   -0.003419
      2          6           0       -0.701495   -0.006795   -0.000056
      3          1           0       -1.230305    0.942433   -0.003782
      4          1           0        1.185325   -0.904828    0.002166
      5          1           0        1.265794    0.927187    0.013849
      6          1           0       -1.226836   -0.870194    0.008621
 ---------------------------------------------------------------------

 SCF Done:  E(RB3LYP) =  -78.5884034253     A.U. after    9 cycles

 The electronic state is 1-A.
 Alpha  occ. eigenvalues --  -10.19789 -10.19640  -0.75700  -0.59872  -0.47951
 Alpha  occ. eigenvalues --   -0.41281  -0.37822  -0.27022
 Alpha virt. eigenvalues --   -0.02342   0.02533   0.03687   0.05210   0.06704
 Alpha virt. eigenvalues --    0.08805   0.09066   0.12370   0.15974   0.18080
 Alpha virt. eigenvalues --    0.21895   0.25433   0.32272   0.35305   0.58534

 Mulliken charges:
               1
     1  C   -0.299650
     2  C   -0.300101
     3  H    0.148724
     4  H    0.148708
     5  H    0.152102
     6  H    0.150217
 Sum of Mulliken charges =   0.00000

 Dipole moment (field-independent basis, Debye):
    X=             -0.0056    Y=             -0.0417    Z=              0.0272  Tot=              0.0501
 Quadrupole moment (field-independent basis, Debye-Ang):
   XX=            -12.2730   YY=            -12.2199   ZZ=            -16.2276
   XY=              0.0902   XZ=              0.0170   YZ=             -0.0007

 Normal termination of Gaussian 16 at Fri Sep 22 17:10:42 2023.
