 Gaussian 16, Revision A.03,
 Gaussian 16:  ES64L-G16RevA.03 25-Dec-2016

 ------------------------------------------------------
 # b3lyp/6-31+g(d,p) scrf=(iefpcm,solvent=acetonitrile)
 ------------------------------------------------------

 ------------------------
 tmpdir/M2_conf_0_143.gjf
 ------------------------
 Symbolic Z-matrix:
 Charge =  0 Multiplicity = 1

                         Standard orientation:
 ---------------------------------------------------------------------
 Center     Atomic      Atomic             Coordinates (Angstroms)
 Number     Number       Type             X           Y           Z
 ---------------------------------------------------------------------
      1          6           0       -0.701195    0.504398   -0.000351
      2          6           0        0.697605    0.505480   -0.001171
      3          1           0        1.235897    1.448225    0.000146
      4          8           0       -1.318671   -0.560991   -0.000164
      5          1           0       -1.248496    1.441578    0.004705
      6          8           0        1.322938   -0.557643    0.000699
 ---------------------------------------------------------------------

 SCF Done:  E(RB3LYP) =  -227.826218273     A.U. after   10 cycles

 The electronic state is 1-A.
 Alpha  occ. eigenvalues --  -19.20225 -19.20202 -10.30670 -10.30612  -1.10108
 Alpha  occ. eigenvalues --   -1.06373  -0.75907  -0.58062  -0.55914  -0.48799
 Alpha  occ. eigenvalues --   -0.46116  -0.45755  -0.39046  -0.31968  -0.29314
 Alpha virt. eigenvalues --   -0.14548   0.01286   0.02171   0.03503   0.03839
 Alpha virt. eigenvalues --    0.06085   0.07351   0.08876   0.10201   0.15331
 Alpha virt. eigenvalues --    0.15880   0.19876   0.20259   0.21598   0.24052

 Mulliken charges:
               1
     1  C    0.223403
     2  C    0.223475
     3  H    0.167237
     4  O   -0.389994
     5  H    0.167638
     6  O   -0.391760
 Sum of Mulliken charges =  -0.00000

 Dipole moment (field-independent basis, Debye):
    X=             -0.0274    Y=              4.9613    Z=             -0.0010  Tot=              4.9614
 Quadrupole moment (field-independent basis, Debye-Ang):
   XX=            -27.0547   YY=            -21.5664   ZZ=            -21.2963
   XY=             -0.0212   XZ=             -0.0057   YZ=              0.0020

 Normal termination of Gaussian 16 at Fri Sep 22 17:12:53 2023.
