 Gaussian 16, Revision A.03,
 Gaussian 16:  ES64L-G16RevA.03 25-Dec-2016

 ------------------------------------------------------
 # b3lyp/6-31+g(d,p) scrf=(iefpcm,solvent=acetonitrile)
 ------------------------------------------------------

 -----------------------
 tmpdir/M2_conf_0_83.gjf
 -----------------------
 Symbolic Z-matrix:
 Charge =  0 Multiplicity = 1

                         Standard orientation:
 ---------------------------------------------------------------------
 Center     Atomic      Atomic             Coordinates (Angstroms)
 Number     Number       Type             X           Y           Z
 ---------------------------------------------------------------------
      1          6           0       -0.699570   -0.008288    0.000233
      2          6           0        0.700330   -0.008020   -0.000274
      3          1           0        1.242610    0.932784   -0.000880
      4          1           0       -1.208263   -0.881287   -0.001792
      5          1           0       -1.244949    0.930607    0.001002
      6          1           0        1.206039   -0.884252    0.001914
 ---------------------------------------------------------------------

 SCF Done:  E(RB3LYP) =  -78.5883954738     A.U. after    9 cycles

 The electronic state is 1-A.
 Alpha  occ. eigenvalues --  -10.19614 -10.19555  -0.75807  -0.59960  -0.48023
 Alpha  occ. eigenvalues --   -0.41371  -0.37848  -0.27069
 Alpha virt. eigenvalues --   -0.02266   0.02536   0.03703   0.05221   0.06703
 Alpha virt. eigenvalues --    0.08823   0.09083   0.12399   0.16007   0.18243
 Alpha virt. eigenvalues --    0.22005   0.25628   0.32446   0.35439   0.58420

 Mulliken charges:
               1
     1  C   -0.298687
     2  C   -0.298604
     3  H    0.149955
     4  H    0.148776
     5  H    0.149698
     6  H    0.148862
 Sum of Mulliken charges =  -0.00000

 Dipole moment (field-independent basis, Debye):
    X=             -0.0025    Y=             -0.0406    Z=              0.0003  Tot=              0.0407
 Quadrupole moment (field-independent basis, Debye-Ang):
   XX=            -12.2531   YY=            -12.2283   ZZ=            -16.1919
   XY=              0.0020   XZ=              0.0026   YZ=             -0.0000

 Normal termination of Gaussian 16 at Fri Sep 22 17:11:53 2023.
