 Gaussian 16, Revision A.03,
 Gaussian 16:  ES64L-G16RevA.03 25-Dec-2016

 ------------------------------------------------------
 # b3lyp/6-31+g(d,p) scrf=(iefpcm,solvent=acetonitrile)
 ------------------------------------------------------

 -----------------------
 tmpdir/M2_conf_0_41.gjf
 -----------------------
 Symbolic Z-matrix:
 Charge =  0 Multiplicity = 1

                         Standard orientation:
 ---------------------------------------------------------------------
 Center     Atomic      Atomic             Coordinates (Angstroms)
 Number     Number       Type             X           Y           Z
 ---------------------------------------------------------------------
      1          6           0        0.229413    0.439596   -0.005576
      2          6           0       -1.163615   -0.141824   -0.001963
      3          1           0       -1.159139   -1.155271   -0.412375
      4          8           0        1.225645   -0.294997    0.001583
      5          1           0        0.370718    1.447313    0.010627
      6          1           0       -1.558015   -0.193059    1.020405
      7          1           0       -1.853513    0.474359   -0.586084
 ---------------------------------------------------------------------

 SCF Done:  E(RB3LYP) =  -153.844916622     A.U. after   10 cycles

 The electronic state is 1-A.
 Alpha  occ. eigenvalues --  -19.16904 -10.28931 -10.19652  -1.05156  -0.75357
 Alpha  occ. eigenvalues --   -0.60845  -0.48808  -0.44483  -0.44348  -0.39934
 Alpha  occ. eigenvalues --   -0.36947  -0.27405
 Alpha virt. eigenvalues --   -0.04940   0.01666   0.03365   0.04697   0.05806
 Alpha virt. eigenvalues --    0.08039   0.08408   0.09665   0.14561   0.16658
 Alpha virt. eigenvalues --    0.16722   0.21502   0.22320   0.24676   0.25423

 Mulliken charges:
               1
     1  C    0.272235
     2  C   -0.510648
     3  H    0.183830
     4  O   -0.463854
     5  H    0.145226
     6  H    0.196140
     7  H    0.177071
 Sum of Mulliken charges =   0.00000

 Dipole moment (field-independent basis, Debye):
    X=             -3.3577    Y=              1.8242    Z=              0.0780  Tot=              3.8220
 Quadrupole moment (field-independent basis, Debye-Ang):
   XX=            -21.6876   YY=            -17.7583   ZZ=            -17.9372
   XY=              1.5627   XZ=             -0.1535   YZ=             -0.0171

 Normal termination of Gaussian 16 at Fri Sep 22 17:11:00 2023.
