 Gaussian 16, Revision A.03,
 Gaussian 16:  ES64L-G16RevA.03 25-Dec-2016

 ------------------------------------------------------
 # b3lyp/6-31+g(d,p) scrf=(iefpcm,solvent=acetonitrile)
 ------------------------------------------------------

 -----------------------
 tmpdir/M2_conf_0_23.gjf
 -----------------------
 Symbolic Z-matrix:
 Charge =  0 Multiplicity = 1

                         Standard orientation:
 ---------------------------------------------------------------------
 Center     Atomic      Atomic             Coordinates (Angstroms)
 Number     Number       Type             X           Y           Z
 ---------------------------------------------------------------------
      1          6           0       -0.552519   -0.013764   -0.000421
      2          1           0       -1.103010    0.923418    0.000844
      3          1           0       -1.062907   -0.886132    0.000924
      4          8           0        0.685129    0.005662    0.000095
 ---------------------------------------------------------------------

 SCF Done:  E(RB3LYP) =  -114.510569006     A.U. after    9 cycles

 The electronic state is 1-A.
 Alpha  occ. eigenvalues --  -19.18445 -10.28951  -1.05890  -0.65858  -0.51249
 Alpha  occ. eigenvalues --   -0.46023  -0.40258  -0.28373
 Alpha virt. eigenvalues --   -0.06678   0.02125   0.04234   0.05299   0.07323
 Alpha virt. eigenvalues --    0.16975   0.19522   0.20720   0.21389   0.25865
 Alpha virt. eigenvalues --    0.27335   0.35351   0.63224   0.65594   0.72111

 Mulliken charges:
               1
     1  C    0.125665
     2  H    0.141011
     3  H    0.149627
     4  O   -0.416302
 Sum of Mulliken charges =  -0.00000

 Dipole moment (field-independent basis, Debye):
    X=             -3.2914    Y=             -0.0951    Z=              0.0003  Tot=              3.2928
 Quadrupole moment (field-independent basis, Debye-Ang):
   XX=            -12.2524   YY=            -11.5016   ZZ=            -11.7134
   XY=              0.0690   XZ=             -0.0009   YZ=              0.0001

 Normal termination of Gaussian 16 at Fri Sep 22 17:10:20 2023.
