 Gaussian 16, Revision A.03,
 Gaussian 16:  ES64L-G16RevA.03 25-Dec-2016

 ------------------------------------------------------
 # b3lyp/6-31+g(d,p) scrf=(iefpcm,solvent=acetonitrile)
 ------------------------------------------------------

 -----------------------
 tmpdir/M2_conf_0_27.gjf
 -----------------------
 Symbolic Z-matrix:
 Charge =  0 Multiplicity = 1

                         Standard orientation:
 ---------------------------------------------------------------------
 Center     Atomic      Atomic             Coordinates (Angstroms)
 Number     Number       Type             X           Y           Z
 ---------------------------------------------------------------------
      1          6           0        0.696315    0.484601   -0.002685
      2          6           0       -0.714368    0.491436   -0.003102
      3          6           0        1.411191   -0.712596    0.002681
      4          1           0        1.237716    1.426596   -0.000504
      5          6           0       -1.388335   -0.740220   -0.000129
      6          1           0       -1.266534    1.434082    0.019916
 ---------------------------------------------------------------------

 SCF Done:  E(RB3LYP) =  -153.325442301     A.U. after   14 cycles

 The electronic state is 1-A.
 Alpha  occ. eigenvalues --  -10.29211 -10.28917 -10.24349 -10.24124  -0.85453
 Alpha  occ. eigenvalues --   -0.72927  -0.61223  -0.49970  -0.49191  -0.36714
 Alpha  occ. eigenvalues --   -0.33627  -0.31520  -0.25419
 Alpha virt. eigenvalues --   -0.14507  -0.11510  -0.08281   0.02257   0.03737
 Alpha virt. eigenvalues --    0.04004   0.04473   0.05810   0.06099   0.08875
 Alpha virt. eigenvalues --    0.09195   0.09338   0.10651   0.12163   0.12866

 Mulliken charges:
               1
     1  C    0.185575
     2  C    0.177274
     3  C   -0.432055
     4  H    0.236576
     5  C   -0.401527
     6  H    0.234157
 Sum of Mulliken charges =  -0.00000

 Dipole moment (field-independent basis, Debye):
    X=             -0.1623    Y=              4.7671    Z=              0.0261  Tot=              4.7700
 Quadrupole moment (field-independent basis, Debye-Ang):
   XX=            -26.2283   YY=            -24.4474   ZZ=            -26.9646
   XY=              0.0710   XZ=             -0.0728   YZ=              0.0509

 Normal termination of Gaussian 16 at Fri Sep 22 17:10:17 2023.
