 Gaussian 16, Revision A.03,
 Gaussian 16:  ES64L-G16RevA.03 25-Dec-2016

 ------------------------------------------------------
 # b3lyp/6-31+g(d,p) scrf=(iefpcm,solvent=acetonitrile)
 ------------------------------------------------------

 ------------------------
 tmpdir/M2_conf_0_119.gjf
 ------------------------
 Symbolic Z-matrix:
 Charge =  0 Multiplicity = 1

                         Standard orientation:
 ---------------------------------------------------------------------
 Center     Atomic      Atomic             Coordinates (Angstroms)
 Number     Number       Type             X           Y           Z
 ---------------------------------------------------------------------
      1          6           0       -1.437516   -0.465189   -0.000818
      2          6           0       -0.574856    0.635166    0.000090
      3          6           0        0.815031    0.483789   -0.000530
      4          1           0       -1.039374   -1.394381   -0.000094
      5          1           0       -2.512190   -0.320009    0.010631
      6          1           0       -1.012809    1.670827   -0.010496
      7          8           0        1.285750   -0.654085   -0.000595
      8          1           0        1.462420    1.353642    0.012269
 ---------------------------------------------------------------------

 SCF Done:  E(RB3LYP) =  -191.918102431     A.U. after   12 cycles

 The electronic state is 1-A.
 Alpha  occ. eigenvalues --  -19.15912 -10.28169 -10.22384 -10.21511  -1.05268
 Alpha  occ. eigenvalues --   -0.79717  -0.68025  -0.55611  -0.52086  -0.46105
 Alpha  occ. eigenvalues --   -0.42939  -0.41189  -0.39184  -0.28536  -0.27463
 Alpha virt. eigenvalues --   -0.09754   0.01371   0.03107   0.03916   0.04166
 Alpha virt. eigenvalues --    0.06222   0.06550   0.07503   0.09613   0.09806
 Alpha virt. eigenvalues --    0.12232   0.12406   0.14274   0.16358   0.19467

 Mulliken charges:
               1
     1  C   -0.281666
     2  C    0.063728
     3  C    0.070735
     4  H    0.174585
     5  H    0.173409
     6  H    0.156644
     7  O   -0.499628
     8  H    0.142191
 Sum of Mulliken charges =  -0.00000

 Dipole moment (field-independent basis, Debye):
    X=             -2.8270    Y=              2.3927    Z=              0.0059  Tot=              3.7037
 Quadrupole moment (field-independent basis, Debye-Ang):
   XX=            -23.8838   YY=            -22.5569   ZZ=            -25.2318
   XY=              4.1467   XZ=             -0.0047   YZ=             -0.0168

 Normal termination of Gaussian 16 at Fri Sep 22 17:13:16 2023.
