 Gaussian 16, Revision A.03,
 Gaussian 16:  ES64L-G16RevA.03 25-Dec-2016

 ------------------------------------------------------
 # b3lyp/6-31+g(d,p) scrf=(iefpcm,solvent=acetonitrile)
 ------------------------------------------------------

 -----------------------
 tmpdir/M2_conf_0_65.gjf
 -----------------------
 Symbolic Z-matrix:
 Charge =  0 Multiplicity = 1

                         Standard orientation:
 ---------------------------------------------------------------------
 Center     Atomic      Atomic             Coordinates (Angstroms)
 Number     Number       Type             X           Y           Z
 ---------------------------------------------------------------------
      1          6           0       -0.700925    0.488218   -0.002808
      2          6           0        0.696168    0.487837    0.001764
      3          6           0       -1.392717   -0.729712    0.002010
      4          1           0       -1.253454    1.420837   -0.002548
      5          6           0        1.400872   -0.721749   -0.001558
      6          1           0        1.233064    1.431601    0.006103
 ---------------------------------------------------------------------

 SCF Done:  E(RB3LYP) =  -153.323765962     A.U. after   14 cycles

 The electronic state is 1-A.
 Alpha  occ. eigenvalues --  -10.29076 -10.29049 -10.24105 -10.24052  -0.85692
 Alpha  occ. eigenvalues --   -0.72857  -0.61435  -0.50182  -0.49170  -0.36857
 Alpha  occ. eigenvalues --   -0.33655  -0.31466  -0.25316
 Alpha virt. eigenvalues --   -0.14555  -0.11432  -0.08382   0.02253   0.03741
 Alpha virt. eigenvalues --    0.04160   0.04500   0.05827   0.06100   0.08893
 Alpha virt. eigenvalues --    0.09203   0.09353   0.10632   0.12174   0.12891

 Mulliken charges:
               1
     1  C    0.181260
     2  C    0.182463
     3  C   -0.413528
     4  H    0.233818
     5  C   -0.418643
     6  H    0.234630
 Sum of Mulliken charges =  -0.00000

 Dipole moment (field-independent basis, Debye):
    X=             -0.0494    Y=              4.7517    Z=              0.0046  Tot=              4.7519
 Quadrupole moment (field-independent basis, Debye-Ang):
   XX=            -26.2615   YY=            -24.4572   ZZ=            -26.9294
   XY=              0.0038   XZ=              0.0388   YZ=              0.0098

 Normal termination of Gaussian 16 at Fri Sep 22 17:11:20 2023.
