 Gaussian 16, Revision A.03,
 Gaussian 16:  ES64L-G16RevA.03 25-Dec-2016

 ------------------------------------------------------
 # b3lyp/6-31+g(d,p) scrf=(iefpcm,solvent=acetonitrile)
 ------------------------------------------------------

 -----------------------
 tmpdir/M2_conf_0_18.gjf
 -----------------------
 Symbolic Z-matrix:
 Charge =  0 Multiplicity = 1

                         Standard orientation:
 ---------------------------------------------------------------------
 Center     Atomic      Atomic             Coordinates (Angstroms)
 Number     Number       Type             X           Y           Z
 ---------------------------------------------------------------------
      1          6           0       -0.549817   -0.013004   -0.000517
      2          1           0       -1.110050    0.917336    0.001059
      3          1           0       -1.026220   -0.906191    0.001125
      4          8           0        0.679397    0.008360    0.000115
 ---------------------------------------------------------------------

 SCF Done:  E(RB3LYP) =  -114.510844474     A.U. after    9 cycles

 The electronic state is 1-A.
 Alpha  occ. eigenvalues --  -19.18313 -10.28792  -1.06295  -0.65558  -0.51538
 Alpha  occ. eigenvalues --   -0.46006  -0.40466  -0.28276
 Alpha virt. eigenvalues --   -0.06422   0.02136   0.04289   0.05267   0.07332
 Alpha virt. eigenvalues --    0.16892   0.19378   0.20775   0.21423   0.25996
 Alpha virt. eigenvalues --    0.27511   0.35687   0.63229   0.66303   0.72790

 Mulliken charges:
               1
     1  C    0.126088
     2  H    0.141096
     3  H    0.145785
     4  O   -0.412969
 Sum of Mulliken charges =  -0.00000

 Dipole moment (field-independent basis, Debye):
    X=             -3.2436    Y=             -0.0988    Z=              0.0004  Tot=              3.2451
 Quadrupole moment (field-independent basis, Debye-Ang):
   XX=            -12.3152   YY=            -11.4537   ZZ=            -11.6934
   XY=              0.0063   XZ=             -0.0011   YZ=              0.0001

 Normal termination of Gaussian 16 at Fri Sep 22 17:10:06 2023.
