 Gaussian 16, Revision A.03,
 Gaussian 16:  ES64L-G16RevA.03 25-Dec-2016

 ------------------------------------------------------
 # b3lyp/6-31+g(d,p) scrf=(iefpcm,solvent=acetonitrile)
 ------------------------------------------------------

 ------------------------
 tmpdir/M2_conf_0_120.gjf
 ------------------------
 Symbolic Z-matrix:
 Charge =  0 Multiplicity = 1

                         Standard orientation:
 ---------------------------------------------------------------------
 Center     Atomic      Atomic             Coordinates (Angstroms)
 Number     Number       Type             X           Y           Z
 ---------------------------------------------------------------------
      1          6           0        0.705070    0.489756   -0.002357
      2          6           0       -0.692029    0.490579   -0.000702
      3          6           0        1.376012   -0.736943    0.000844
      4          1           0        1.262399    1.420045    0.006781
      5          6           0       -1.394780   -0.719112    0.000483
      6          1           0       -1.228038    1.434272    0.003609
 ---------------------------------------------------------------------

 SCF Done:  E(RB3LYP) =  -153.323691044     A.U. after   13 cycles

 The electronic state is 1-A.
 Alpha  occ. eigenvalues --  -10.29047 -10.28999 -10.24093 -10.24040  -0.85795
 Alpha  occ. eigenvalues --   -0.72835  -0.61455  -0.50186  -0.49188  -0.36907
 Alpha  occ. eigenvalues --   -0.33686  -0.31448  -0.25303
 Alpha virt. eigenvalues --   -0.14621  -0.11308  -0.08362   0.02263   0.03735
 Alpha virt. eigenvalues --    0.04174   0.04497   0.05844   0.06096   0.08870
 Alpha virt. eigenvalues --    0.09202   0.09330   0.10633   0.12182   0.12910

 Mulliken charges:
               1
     1  C    0.183517
     2  C    0.180154
     3  C   -0.412479
     4  H    0.233728
     5  C   -0.419987
     6  H    0.235068
 Sum of Mulliken charges =  -0.00000

 Dipole moment (field-independent basis, Debye):
    X=              0.1076    Y=              4.7839    Z=              0.0138  Tot=              4.7851
 Quadrupole moment (field-independent basis, Debye-Ang):
   XX=            -26.0854   YY=            -24.5126   ZZ=            -26.9129
   XY=             -0.0206   XZ=              0.0088   YZ=              0.0274

 Normal termination of Gaussian 16 at Fri Sep 22 17:12:01 2023.
