 Gaussian 16, Revision A.03,
 Gaussian 16:  ES64L-G16RevA.03 25-Dec-2016

 ------------------------------------------------------
 # b3lyp/6-31+g(d,p) scrf=(iefpcm,solvent=acetonitrile)
 ------------------------------------------------------

 -----------------------
 tmpdir/M2_conf_0_33.gjf
 -----------------------
 Symbolic Z-matrix:
 Charge =  0 Multiplicity = 1

                         Standard orientation:
 ---------------------------------------------------------------------
 Center     Atomic      Atomic             Coordinates (Angstroms)
 Number     Number       Type             X           Y           Z
 ---------------------------------------------------------------------
      1          6           0       -1.405475   -0.488581   -0.000684
      2          6           0       -0.599103    0.660755   -0.003288
      3          6           0        0.795420    0.482274   -0.002606
      4          1           0       -0.998958   -1.413915    0.002516
      5          1           0       -2.487030   -0.383987    0.001018
      6          1           0       -1.043374    1.658788    0.019921
      7          8           0        1.292060   -0.642334    0.002017
      8          1           0        1.447828    1.351096   -0.000117
 ---------------------------------------------------------------------

 SCF Done:  E(RB3LYP) =  -191.919609761     A.U. after   12 cycles

 The electronic state is 1-A.
 Alpha  occ. eigenvalues --  -19.15816 -10.28095 -10.22468 -10.21461  -1.05224
 Alpha  occ. eigenvalues --   -0.79813  -0.67741  -0.55710  -0.52281  -0.46203
 Alpha  occ. eigenvalues --   -0.42165  -0.41101  -0.40072  -0.28534  -0.27353
 Alpha virt. eigenvalues --   -0.09646   0.01416   0.03104   0.03936   0.04077
 Alpha virt. eigenvalues --    0.06304   0.06485   0.07526   0.09615   0.09812
 Alpha virt. eigenvalues --    0.12178   0.12298   0.14339   0.16432   0.19942

 Mulliken charges:
               1
     1  C   -0.281407
     2  C    0.065474
     3  C    0.069135
     4  H    0.178085
     5  H    0.169956
     6  H    0.162617
     7  O   -0.499158
     8  H    0.135300
 Sum of Mulliken charges =  -0.00000

 Dipole moment (field-independent basis, Debye):
    X=             -2.9450    Y=              2.3421    Z=              0.0182  Tot=              3.7628
 Quadrupole moment (field-independent basis, Debye-Ang):
   XX=            -24.1884   YY=            -22.3149   ZZ=            -25.2152
   XY=              3.9533   XZ=             -0.0430   YZ=              0.0369

 Normal termination of Gaussian 16 at Fri Sep 22 17:10:20 2023.
