 Gaussian 16, Revision A.03,
 Gaussian 16:  ES64L-G16RevA.03 25-Dec-2016

 ------------------------------------------------------
 # b3lyp/6-31+g(d,p) scrf=(iefpcm,solvent=acetonitrile)
 ------------------------------------------------------

 -----------------------
 tmpdir/M2_conf_0_21.gjf
 -----------------------
 Symbolic Z-matrix:
 Charge =  0 Multiplicity = 1

                         Standard orientation:
 ---------------------------------------------------------------------
 Center     Atomic      Atomic             Coordinates (Angstroms)
 Number     Number       Type             X           Y           Z
 ---------------------------------------------------------------------
      1          6           0       -0.695383   -0.007306   -0.000772
      2          6           0        0.699014   -0.009823    0.000532
      3          1           0        1.236777    0.934377    0.002641
      4          1           0       -1.222941   -0.877567    0.005003
      5          1           0       -1.224891    0.941434   -0.001977
      6          1           0        1.189271   -0.895472   -0.004223
 ---------------------------------------------------------------------

 SCF Done:  E(RB3LYP) =  -78.5896981002     A.U. after    9 cycles

 The electronic state is 1-A.
 Alpha  occ. eigenvalues --  -10.19559 -10.19498  -0.75892  -0.59755  -0.48124
 Alpha  occ. eigenvalues --   -0.41274  -0.37775  -0.27136
 Alpha virt. eigenvalues --   -0.02150   0.02550   0.03720   0.05189   0.06693
 Alpha virt. eigenvalues --    0.08800   0.09085   0.12435   0.15995   0.18089
 Alpha virt. eigenvalues --    0.22014   0.25546   0.32702   0.35441   0.58283

 Mulliken charges:
               1
     1  C   -0.298484
     2  C   -0.298139
     3  H    0.150563
     4  H    0.149588
     5  H    0.148359
     6  H    0.148113
 Sum of Mulliken charges =  -0.00000

 Dipole moment (field-independent basis, Debye):
    X=             -0.0070    Y=             -0.0364    Z=              0.0019  Tot=              0.0371
 Quadrupole moment (field-independent basis, Debye-Ang):
   XX=            -12.3305   YY=            -12.1877   ZZ=            -16.1814
   XY=              0.0496   XZ=             -0.0067   YZ=              0.0001

 Normal termination of Gaussian 16 at Fri Sep 22 17:10:08 2023.
