 Gaussian 16, Revision A.03,
 Gaussian 16:  ES64L-G16RevA.03 25-Dec-2016

 ------------------------------------------------------
 # b3lyp/6-31+g(d,p) scrf=(iefpcm,solvent=acetonitrile)
 ------------------------------------------------------

 -----------------------
 tmpdir/M2_conf_0_50.gjf
 -----------------------
 Symbolic Z-matrix:
 Charge =  0 Multiplicity = 1

                         Standard orientation:
 ---------------------------------------------------------------------
 Center     Atomic      Atomic             Coordinates (Angstroms)
 Number     Number       Type             X           Y           Z
 ---------------------------------------------------------------------
      1          7           0       -1.128400   -0.111259   -0.010024
      2          6           0        0.201389    0.426333   -0.041960
      3          1           0       -1.665626   -0.117764    0.908250
      4          1           0       -1.475040   -0.614582   -0.778679
      5          1           0        0.314457    1.429901   -0.122174
      6          8           0        1.189585   -0.309592    0.039317
 ---------------------------------------------------------------------

 SCF Done:  E(RB3LYP) =  -169.874433367     A.U. after   10 cycles

 The electronic state is 1-A.
 Alpha  occ. eigenvalues --  -19.17813 -14.34494 -10.32007  -1.06518  -0.88397
 Alpha  occ. eigenvalues --   -0.64080  -0.52258  -0.52170  -0.46784  -0.39344
 Alpha  occ. eigenvalues --   -0.29929  -0.26168
 Alpha virt. eigenvalues --   -0.05817   0.00830   0.03649   0.04687   0.05803
 Alpha virt. eigenvalues --    0.10496   0.11893   0.13938   0.15963   0.20036
 Alpha virt. eigenvalues --    0.21974   0.23021   0.25034   0.25257   0.27366

 Mulliken charges:
               1
     1  N   -0.707265
     2  C    0.296359
     3  H    0.342266
     4  H    0.338109
     5  H    0.154440
     6  O   -0.423909
 Sum of Mulliken charges =  -0.00000

 Dipole moment (field-independent basis, Debye):
    X=             -3.1425    Y=              1.4578    Z=              0.0338  Tot=              3.4643
 Quadrupole moment (field-independent basis, Debye-Ang):
   XX=            -19.9479   YY=            -18.1444   ZZ=            -15.5805
   XY=              3.1596   XZ=             -0.9926   YZ=              1.0163

 Normal termination of Gaussian 16 at Fri Sep 22 17:11:25 2023.
