 Gaussian 16, Revision A.03,
 Gaussian 16:  ES64L-G16RevA.03 25-Dec-2016

 ------------------------------------------------------
 # b3lyp/6-31+g(d,p) scrf=(iefpcm,solvent=acetonitrile)
 ------------------------------------------------------

 -----------------------
 tmpdir/M2_conf_0_86.gjf
 -----------------------
 Symbolic Z-matrix:
 Charge =  0 Multiplicity = 2

                         Standard orientation:
 ---------------------------------------------------------------------
 Center     Atomic      Atomic             Coordinates (Angstroms)
 Number     Number       Type             X           Y           Z
 ---------------------------------------------------------------------
      1          6           0        1.206120   -0.147102   -0.001871
      2          6           0       -0.156479    0.411473   -0.060220
      3          8           0       -1.172087   -0.285121    0.056897
      4          1           0        2.063105    0.361731    0.422877
      5          1           0        1.310019   -1.166203   -0.330794
      6          1           0       -0.294274    1.499216   -0.174716
 ---------------------------------------------------------------------

 SCF Done:  E(UB3LYP) =  -153.186132128     A.U. after   13 cycles

 The electronic state is 2-A.
 Alpha  occ. eigenvalues --  -19.17596 -10.29321 -10.23874  -1.06092  -0.75910
 Alpha  occ. eigenvalues --   -0.59318  -0.50028  -0.46055  -0.44231  -0.40596
 Alpha  occ. eigenvalues --   -0.28448  -0.26667
 Alpha virt. eigenvalues --   -0.02914   0.01981   0.03227   0.04635   0.06118
 Alpha virt. eigenvalues --    0.08072   0.08735   0.10352   0.14872   0.17716
 Alpha virt. eigenvalues --    0.18747   0.20660   0.23492   0.24248   0.24875

  Beta  occ. eigenvalues --  -19.16966 -10.29461 -10.22693  -1.04920  -0.73011
  Beta  occ. eigenvalues --   -0.58489  -0.49342  -0.45258  -0.42952  -0.38400
  Beta  occ. eigenvalues --   -0.27615
  Beta virt. eigenvalues --   -0.13411  -0.00476   0.02179   0.03336   0.04736
  Beta virt. eigenvalues --    0.06590   0.08245   0.08861   0.11325   0.15053
  Beta virt. eigenvalues --    0.18309   0.19106   0.21302   0.24167   0.24677

 Mulliken charges and spin densities:
               1          2
     1  C   -0.197930   0.958090
     2  C    0.136343  -0.101849
     3  O   -0.450500   0.225080
     4  H    0.188667  -0.041970
     5  H    0.182757  -0.041459
     6  H    0.140663   0.002109
 Sum of Mulliken charges =   0.00000   1.00000

 Dipole moment (field-independent basis, Debye):
    X=              3.6198    Y=              1.4405    Z=             -0.2069  Tot=              3.9014
 Quadrupole moment (field-independent basis, Debye-Ang):
   XX=            -19.5274   YY=            -16.9933   ZZ=            -18.3629
   XY=             -1.5038   XZ=              0.7481   YZ=              0.5125

 Normal termination of Gaussian 16 at Fri Sep 22 17:12:12 2023.
