 Gaussian 16, Revision A.03,
 Gaussian 16:  ES64L-G16RevA.03 25-Dec-2016

 ------------------------------------------------------
 # b3lyp/6-31+g(d,p) scrf=(iefpcm,solvent=acetonitrile)
 ------------------------------------------------------

 -----------------------
 tmpdir/M2_conf_0_81.gjf
 -----------------------
 Symbolic Z-matrix:
 Charge =  0 Multiplicity = 1

                         Standard orientation:
 ---------------------------------------------------------------------
 Center     Atomic      Atomic             Coordinates (Angstroms)
 Number     Number       Type             X           Y           Z
 ---------------------------------------------------------------------
      1          6           0        0.802959    0.482978   -0.001574
      2          6           0       -0.584894    0.647746   -0.000279
      3          6           0       -1.424066   -0.472754   -0.000069
      4          8           0        1.290777   -0.649200    0.001186
      5          1           0        1.456567    1.350007    0.000719
      6          1           0       -1.013885    1.645318    0.002696
      7          1           0       -1.030432   -1.403299   -0.005421
      8          1           0       -2.502459   -0.346247    0.004047
 ---------------------------------------------------------------------

 SCF Done:  E(RB3LYP) =  -191.919446568     A.U. after   12 cycles

 The electronic state is 1-A.
 Alpha  occ. eigenvalues --  -19.15809 -10.28075 -10.22446 -10.21257  -1.05076
 Alpha  occ. eigenvalues --   -0.79910  -0.67974  -0.55755  -0.52355  -0.46143
 Alpha  occ. eigenvalues --   -0.42569  -0.41075  -0.39794  -0.28555  -0.27380
 Alpha virt. eigenvalues --   -0.09745   0.01405   0.03129   0.03961   0.04160
 Alpha virt. eigenvalues --    0.06272   0.06540   0.07526   0.09677   0.09810
 Alpha virt. eigenvalues --    0.12244   0.12380   0.14306   0.16406   0.19990

 Mulliken charges:
               1
     1  C    0.068462
     2  C    0.066893
     3  C   -0.277889
     4  O   -0.502281
     5  H    0.138772
     6  H    0.158254
     7  H    0.175991
     8  H    0.171798
 Sum of Mulliken charges =  -0.00000

 Dipole moment (field-independent basis, Debye):
    X=             -2.9342    Y=              2.3856    Z=             -0.0027  Tot=              3.7816
 Quadrupole moment (field-independent basis, Debye-Ang):
   XX=            -24.0241   YY=            -22.4357   ZZ=            -25.1878
   XY=              4.0856   XZ=             -0.0136   YZ=              0.0125

 Normal termination of Gaussian 16 at Fri Sep 22 17:11:35 2023.
