 Gaussian 16, Revision A.03,
 Gaussian 16:  ES64L-G16RevA.03 25-Dec-2016

 ------------------------------------------------------
 # b3lyp/6-31+g(d,p) scrf=(iefpcm,solvent=acetonitrile)
 ------------------------------------------------------

 -----------------------
 tmpdir/M2_conf_0_94.gjf
 -----------------------
 Symbolic Z-matrix:
 Charge =  0 Multiplicity = 1

                         Standard orientation:
 ---------------------------------------------------------------------
 Center     Atomic      Atomic             Coordinates (Angstroms)
 Number     Number       Type             X           Y           Z
 ---------------------------------------------------------------------
      1          1           0       -0.378840   -0.548793    0.864671
      2          6           0        0.009416    0.009747    0.000975
      3          1           0       -0.645484    0.867234   -0.159921
      4          1           0        1.046391    0.285984    0.149752
      5          1           0       -0.078563   -0.662905   -0.860352
 ---------------------------------------------------------------------

 SCF Done:  E(RB3LYP) =  -40.5256799693     A.U. after    7 cycles

 The electronic state is 1-A.
 Alpha  occ. eigenvalues --  -10.17132  -0.69532  -0.40131  -0.39112  -0.38606
 Alpha virt. eigenvalues --    0.01705   0.06161   0.06240   0.06279   0.17743
 Alpha virt. eigenvalues --    0.18099   0.18946   0.27900   0.63665   0.63912
 Alpha virt. eigenvalues --    0.64074   0.90132   0.90801   0.92450   1.05366

 Mulliken charges:
               1
     1  H    0.153876
     2  C   -0.624105
     3  H    0.156743
     4  H    0.159166
     5  H    0.154320
 Sum of Mulliken charges =   0.00000

 Dipole moment (field-independent basis, Debye):
    X=             -0.0288    Y=             -0.0323    Z=             -0.0061  Tot=              0.0437
 Quadrupole moment (field-independent basis, Debye-Ang):
   XX=             -8.3404   YY=             -8.5366   ZZ=             -8.6321
   XY=              0.0013   XZ=              0.0151   YZ=              0.0024

 Normal termination of Gaussian 16 at Fri Sep 22 17:11:42 2023.
