 Gaussian 16, Revision A.03,
 Gaussian 16:  ES64L-G16RevA.03 25-Dec-2016

 ------------------------------------------------------
 # b3lyp/6-31+g(d,p) scrf=(iefpcm,solvent=acetonitrile)
 ------------------------------------------------------

 -----------------------
 tmpdir/M2_conf_0_55.gjf
 -----------------------
 Symbolic Z-matrix:
 Charge =  0 Multiplicity = 1

                         Standard orientation:
 ---------------------------------------------------------------------
 Center     Atomic      Atomic             Coordinates (Angstroms)
 Number     Number       Type             X           Y           Z
 ---------------------------------------------------------------------
      1          6           0       -0.697206    0.482499   -0.000853
      2          6           0        0.702388    0.486517   -0.000647
      3          1           0       -1.238669    1.474933    0.011353
      4          6           0       -1.402745   -0.727534   -0.000918
      5          6           0        1.398672   -0.726099    0.001614
      6          1           0        1.232015    1.432767   -0.006533
 ---------------------------------------------------------------------

 SCF Done:  E(RB3LYP) =  -153.323274258     A.U. after   14 cycles

 The electronic state is 1-A.
 Alpha  occ. eigenvalues --  -10.29061 -10.29054 -10.24466 -10.24077  -0.85578
 Alpha  occ. eigenvalues --   -0.72717  -0.61411  -0.49887  -0.48544  -0.36827
 Alpha  occ. eigenvalues --   -0.33643  -0.31497  -0.25335
 Alpha virt. eigenvalues --   -0.14569  -0.11521  -0.08345   0.02176   0.03704
 Alpha virt. eigenvalues --    0.04172   0.04465   0.05782   0.06089   0.08839
 Alpha virt. eigenvalues --    0.09199   0.09342   0.10619   0.12140   0.12848

 Mulliken charges:
               1
     1  C    0.195480
     2  C    0.174123
     3  H    0.239769
     4  C   -0.430411
     5  C   -0.412981
     6  H    0.234020
 Sum of Mulliken charges =  -0.00000

 Dipole moment (field-independent basis, Debye):
    X=              0.0310    Y=              4.8141    Z=              0.0062  Tot=              4.8142
 Quadrupole moment (field-independent basis, Debye-Ang):
   XX=            -26.3876   YY=            -24.3129   ZZ=            -26.9861
   XY=             -0.0766   XZ=             -0.0628   YZ=              0.0138

 Normal termination of Gaussian 16 at Fri Sep 22 17:11:19 2023.
