 Gaussian 16, Revision A.03,
 Gaussian 16:  ES64L-G16RevA.03 25-Dec-2016

 ------------------------------------------------------
 # b3lyp/6-31+g(d,p) scrf=(iefpcm,solvent=acetonitrile)
 ------------------------------------------------------

 -----------------------
 tmpdir/M2_conf_0_46.gjf
 -----------------------
 Symbolic Z-matrix:
 Charge =  0 Multiplicity = 1

                         Standard orientation:
 ---------------------------------------------------------------------
 Center     Atomic      Atomic             Coordinates (Angstroms)
 Number     Number       Type             X           Y           Z
 ---------------------------------------------------------------------
      1         16           0       -0.213000   -0.453618   -0.080793
      2          7           0        1.405046    0.315049    0.000715
      3          1           0       -0.234642   -1.078509    1.147740
      4          8           0       -1.242025    0.650027   -0.002058
      5          1           0        1.647552    0.869329    0.805829
      6          1           0        2.095963    0.061514   -0.649419
 ---------------------------------------------------------------------

 SCF Done:  E(RB3LYP) =  -529.918707210     A.U. after   11 cycles

 The electronic state is 1-A.
 Alpha  occ. eigenvalues --  -89.03653 -19.14690 -14.36139  -8.07861  -6.04363
 Alpha  occ. eigenvalues --   -6.04182  -6.03572  -1.03998  -0.88433  -0.70310
 Alpha  occ. eigenvalues --   -0.53418  -0.50917  -0.46063  -0.40432  -0.31612
 Alpha  occ. eigenvalues --   -0.28549  -0.26244
 Alpha virt. eigenvalues --   -0.02423  -0.01000   0.00706   0.03946   0.05846
 Alpha virt. eigenvalues --    0.07688   0.08863   0.11188   0.12243   0.14445
 Alpha virt. eigenvalues --    0.16536   0.19690   0.20140   0.22852   0.24177

 Mulliken charges:
               1
     1  S    0.800703
     2  N   -0.833058
     3  H    0.076066
     4  O   -0.739181
     5  H    0.348173
     6  H    0.347297
 Sum of Mulliken charges =  -0.00000

 Dipole moment (field-independent basis, Debye):
    X=              4.1740    Y=             -2.9571    Z=              1.1825  Tot=              5.2503
 Quadrupole moment (field-independent basis, Debye-Ang):
   XX=            -25.8303   YY=            -26.3645   ZZ=            -23.5770
   XY=              4.0863   XZ=             -0.5779   YZ=              0.2902

 Normal termination of Gaussian 16 at Fri Sep 22 17:10:49 2023.
