 Gaussian 16, Revision A.03,
 Gaussian 16:  ES64L-G16RevA.03 25-Dec-2016

 ------------------------------------------------------
 # b3lyp/6-31+g(d,p) scrf=(iefpcm,solvent=acetonitrile)
 ------------------------------------------------------

 ------------------------
 tmpdir/M2_conf_0_124.gjf
 ------------------------
 Symbolic Z-matrix:
 Charge =  0 Multiplicity = 1

                         Standard orientation:
 ---------------------------------------------------------------------
 Center     Atomic      Atomic             Coordinates (Angstroms)
 Number     Number       Type             X           Y           Z
 ---------------------------------------------------------------------
      1          6           0       -0.692086    0.509974   -0.000764
      2          6           0        0.704313    0.510776   -0.002356
      3          1           0        1.262350    1.440646    0.006647
      4          8           0       -1.310412   -0.557243    0.000419
      5          1           0       -1.229193    1.453040    0.003371
      6          8           0        1.297097   -0.570030    0.000668
 ---------------------------------------------------------------------

 SCF Done:  E(RB3LYP) =  -227.825132589     A.U. after   11 cycles

 The electronic state is 1-A.
 Alpha  occ. eigenvalues --  -19.20139 -19.20129 -10.30600 -10.30546  -1.10134
 Alpha  occ. eigenvalues --   -1.06208  -0.75862  -0.58070  -0.55938  -0.48743
 Alpha  occ. eigenvalues --   -0.46118  -0.45697  -0.38920  -0.31796  -0.29364
 Alpha virt. eigenvalues --   -0.14524   0.01328   0.02156   0.03495   0.03841
 Alpha virt. eigenvalues --    0.06081   0.07359   0.08848   0.10231   0.15341
 Alpha virt. eigenvalues --    0.15818   0.19856   0.20444   0.21603   0.24046

 Mulliken charges:
               1
     1  C    0.221321
     2  C    0.223136
     3  H    0.170069
     4  O   -0.392225
     5  H    0.166349
     6  O   -0.388650
 Sum of Mulliken charges =  -0.00000

 Dipole moment (field-independent basis, Debye):
    X=              0.0873    Y=              5.0057    Z=             -0.0018  Tot=              5.0065
 Quadrupole moment (field-independent basis, Debye-Ang):
   XX=            -26.9279   YY=            -21.5175   ZZ=            -21.2929
   XY=              0.0984   XZ=              0.0017   YZ=              0.0043

 Normal termination of Gaussian 16 at Fri Sep 22 17:12:06 2023.
