 Gaussian 16, Revision A.03,
 Gaussian 16:  ES64L-G16RevA.03 25-Dec-2016

 ------------------------------------------------------
 # b3lyp/6-31+g(d,p) scrf=(iefpcm,solvent=acetonitrile)
 ------------------------------------------------------

 ------------------------
 tmpdir/M2_conf_0_138.gjf
 ------------------------
 Symbolic Z-matrix:
 Charge =  0 Multiplicity = 1

                         Standard orientation:
 ---------------------------------------------------------------------
 Center     Atomic      Atomic             Coordinates (Angstroms)
 Number     Number       Type             X           Y           Z
 ---------------------------------------------------------------------
      1          6           0       -0.698522   -0.007582   -0.001706
      2          6           0        0.698176   -0.006232   -0.000448
      3          1           0        1.233994    0.937576    0.000529
      4          1           0       -1.183549   -0.895884    0.002812
      5          1           0       -1.255828    0.922626    0.005751
      6          1           0        1.207459   -0.881433    0.003831
 ---------------------------------------------------------------------

 SCF Done:  E(RB3LYP) =  -78.5888960519     A.U. after    9 cycles

 The electronic state is 1-A.
 Alpha  occ. eigenvalues --  -10.19550 -10.19492  -0.75884  -0.59849  -0.48107
 Alpha  occ. eigenvalues --   -0.41311  -0.37848  -0.27105
 Alpha virt. eigenvalues --   -0.02195   0.02550   0.03716   0.05204   0.06699
 Alpha virt. eigenvalues --    0.08814   0.09084   0.12421   0.16009   0.18194
 Alpha virt. eigenvalues --    0.22038   0.25626   0.32611   0.35458   0.58333

 Mulliken charges:
               1
     1  C   -0.298296
     2  C   -0.298375
     3  H    0.149070
     4  H    0.147709
     5  H    0.150864
     6  H    0.149027
 Sum of Mulliken charges =  -0.00000

 Dipole moment (field-independent basis, Debye):
    X=             -0.0015    Y=             -0.0424    Z=              0.0168  Tot=              0.0456
 Quadrupole moment (field-independent basis, Debye-Ang):
   XX=            -12.3011   YY=            -12.1995   ZZ=            -16.1803
   XY=             -0.0533   XZ=             -0.0063   YZ=             -0.0005

 Normal termination of Gaussian 16 at Fri Sep 22 17:12:21 2023.
