 Gaussian 16, Revision A.03,
 Gaussian 16:  ES64L-G16RevA.03 25-Dec-2016

 ------------------------------------------------------
 # b3lyp/6-31+g(d,p) scrf=(iefpcm,solvent=acetonitrile)
 ------------------------------------------------------

 -----------------------
 tmpdir/M2_conf_0_57.gjf
 -----------------------
 Symbolic Z-matrix:
 Charge =  0 Multiplicity = 1

                         Standard orientation:
 ---------------------------------------------------------------------
 Center     Atomic      Atomic             Coordinates (Angstroms)
 Number     Number       Type             X           Y           Z
 ---------------------------------------------------------------------
      1          7           0        1.661575   -0.533388   -0.012360
      2          6           0        0.380081    0.119863   -0.006781
      3          6           0       -0.787635   -0.651465   -0.016504
      4          1           0        2.068199   -0.890329    0.903683
      5          1           0        2.226309   -0.503740   -0.815186
      6          8           0        0.291340    1.351186    0.019557
      7          8           0       -1.887474   -0.094914    0.003381
      8          1           0       -0.711141   -1.732773   -0.045772
 ---------------------------------------------------------------------

 SCF Done:  E(RB3LYP) =  -283.187905336     A.U. after   13 cycles

 The electronic state is 1-A.
 Alpha  occ. eigenvalues --  -19.20032 -19.19213 -14.35460 -10.33591 -10.30656
 Alpha  occ. eigenvalues --   -1.10195  -1.06242  -0.89845  -0.74179  -0.57574
 Alpha  occ. eigenvalues --   -0.55500  -0.53458  -0.49035  -0.46190  -0.44833
 Alpha  occ. eigenvalues --   -0.38443  -0.32788  -0.29953  -0.26925
 Alpha virt. eigenvalues --   -0.14044   0.00068   0.02012   0.02913   0.04042
 Alpha virt. eigenvalues --    0.06307   0.06630   0.08733   0.09016   0.10837
 Alpha virt. eigenvalues --    0.12266   0.13133   0.16052   0.18214   0.21587

 Mulliken charges:
               1
     1  N   -0.710156
     2  C    0.358976
     3  C    0.279091
     4  H    0.352446
     5  H    0.346296
     6  O   -0.413141
     7  O   -0.385594
     8  H    0.172082
 Sum of Mulliken charges =  -0.00000

 Dipole moment (field-independent basis, Debye):
    X=              3.7222    Y=             -4.3149    Z=              0.1231  Tot=              5.6998
 Quadrupole moment (field-independent basis, Debye-Ang):
   XX=            -30.3957   YY=            -31.8738   ZZ=            -24.9736
   XY=             -1.4779   XZ=              0.0495   YZ=             -1.0383

 Normal termination of Gaussian 16 at Fri Sep 22 17:11:09 2023.
