 Gaussian 16, Revision A.03,
 Gaussian 16:  ES64L-G16RevA.03 25-Dec-2016

 ------------------------------------------------------
 # b3lyp/6-31+g(d,p) scrf=(iefpcm,solvent=acetonitrile)
 ------------------------------------------------------

 -----------------------
 tmpdir/M2_conf_0_14.gjf
 -----------------------
 Symbolic Z-matrix:
 Charge =  0 Multiplicity = 1

                         Standard orientation:
 ---------------------------------------------------------------------
 Center     Atomic      Atomic             Coordinates (Angstroms)
 Number     Number       Type             X           Y           Z
 ---------------------------------------------------------------------
      1          6           0       -1.429464   -0.473842   -0.011293
      2          6           0       -0.590179    0.639520   -0.001449
      3          6           0        0.797126    0.482205   -0.001076
      4          1           0       -1.052911   -1.413402    0.002233
      5          1           0       -2.551602   -0.341392    0.046438
      6          1           0       -1.016185    1.637225    0.008951
      7          8           0        1.315555   -0.641781    0.003338
      8          1           0        1.431355    1.364517   -0.001421
 ---------------------------------------------------------------------

 SCF Done:  E(RB3LYP) =  -191.919434586     A.U. after   12 cycles

 The electronic state is 1-A.
 Alpha  occ. eigenvalues --  -19.15903 -10.28153 -10.22932 -10.21305  -1.04810
 Alpha  occ. eigenvalues --   -0.80068  -0.67901  -0.55691  -0.52166  -0.46199
 Alpha  occ. eigenvalues --   -0.42206  -0.40966  -0.39683  -0.28728  -0.27424
 Alpha virt. eigenvalues --   -0.09816   0.01293   0.03107   0.03917   0.04158
 Alpha virt. eigenvalues --    0.06225   0.06546   0.07457   0.09696   0.09765
 Alpha virt. eigenvalues --    0.12192   0.12391   0.14035   0.16391   0.19404

 Mulliken charges:
               1
     1  C   -0.278412
     2  C    0.072988
     3  C    0.064911
     4  H    0.176781
     5  H    0.172216
     6  H    0.159678
     7  O   -0.506648
     8  H    0.138486
 Sum of Mulliken charges =  -0.00000

 Dipole moment (field-independent basis, Debye):
    X=             -3.0564    Y=              2.3777    Z=              0.0464  Tot=              3.8726
 Quadrupole moment (field-independent basis, Debye-Ang):
   XX=            -24.2008   YY=            -22.3965   ZZ=            -25.2245
   XY=              4.0833   XZ=             -0.1492   YZ=              0.0032

 Normal termination of Gaussian 16 at Fri Sep 22 17:10:40 2023.
