 Gaussian 16, Revision A.03,
 Gaussian 16:  ES64L-G16RevA.03 25-Dec-2016

 ------------------------------------------------------
 # b3lyp/6-31+g(d,p) scrf=(iefpcm,solvent=acetonitrile)
 ------------------------------------------------------

 -----------------------
 tmpdir/M2_conf_0_82.gjf
 -----------------------
 Symbolic Z-matrix:
 Charge =  0 Multiplicity = 1

                         Standard orientation:
 ---------------------------------------------------------------------
 Center     Atomic      Atomic             Coordinates (Angstroms)
 Number     Number       Type             X           Y           Z
 ---------------------------------------------------------------------
      1          6           0        0.698796    0.506297   -0.001485
      2          6           0       -0.698802    0.507561    0.000023
      3          1           0       -1.240238    1.448846    0.003511
      4          8           0        1.315724   -0.561036    0.000696
      5          1           0        1.246478    1.443846    0.001151
      6          8           0       -1.316500   -0.560944   -0.000182
 ---------------------------------------------------------------------

 SCF Done:  E(RB3LYP) =  -227.825837308     A.U. after   10 cycles

 The electronic state is 1-A.
 Alpha  occ. eigenvalues --  -19.20216 -19.20187 -10.30672 -10.30609  -1.10075
 Alpha  occ. eigenvalues --   -1.06283  -0.75920  -0.58058  -0.55909  -0.48777
 Alpha  occ. eigenvalues --   -0.46098  -0.45722  -0.38985  -0.31913  -0.29347
 Alpha virt. eigenvalues --   -0.14574   0.01294   0.02147   0.03496   0.03840
 Alpha virt. eigenvalues --    0.06083   0.07349   0.08866   0.10210   0.15334
 Alpha virt. eigenvalues --    0.15858   0.19866   0.20287   0.21590   0.24043

 Mulliken charges:
               1
     1  C    0.222378
     2  C    0.223371
     3  H    0.168252
     4  O   -0.390415
     5  H    0.167692
     6  O   -0.391278
 Sum of Mulliken charges =  -0.00000

 Dipole moment (field-independent basis, Debye):
    X=              0.0037    Y=              4.9797    Z=             -0.0009  Tot=              4.9797
 Quadrupole moment (field-independent basis, Debye-Ang):
   XX=            -27.0239   YY=            -21.5464   ZZ=            -21.3009
   XY=             -0.0014   XZ=             -0.0042   YZ=              0.0020

 Normal termination of Gaussian 16 at Fri Sep 22 17:11:46 2023.
