 Gaussian 16, Revision A.03,
 Gaussian 16:  ES64L-G16RevA.03 25-Dec-2016

 ------------------------------------------------------
 # b3lyp/6-31+g(d,p) scrf=(iefpcm,solvent=acetonitrile)
 ------------------------------------------------------

 -----------------------
 tmpdir/M2_conf_0_12.gjf
 -----------------------
 Symbolic Z-matrix:
 Charge =  0 Multiplicity = 1

                         Standard orientation:
 ---------------------------------------------------------------------
 Center     Atomic      Atomic             Coordinates (Angstroms)
 Number     Number       Type             X           Y           Z
 ---------------------------------------------------------------------
      1          6           0       -0.703058    0.483010    0.001781
      2          6           0        0.677120    0.489308   -0.002879
      3          6           0       -1.373905   -0.739296   -0.002335
      4          1           0       -1.267810    1.409275    0.011468
      5          6           0        1.410554   -0.707878    0.002823
      6          1           0        1.203545    1.439859   -0.007805
 ---------------------------------------------------------------------

 SCF Done:  E(RB3LYP) =  -153.321922755     A.U. after   14 cycles

 The electronic state is 1-A.
 Alpha  occ. eigenvalues --  -10.29036 -10.28991 -10.23984 -10.23852  -0.86035
 Alpha  occ. eigenvalues --   -0.72808  -0.61656  -0.50440  -0.48948  -0.37079
 Alpha  occ. eigenvalues --   -0.33678  -0.31395  -0.25216
 Alpha virt. eigenvalues --   -0.14588  -0.11323  -0.08452   0.02224   0.03747
 Alpha virt. eigenvalues --    0.04402   0.04513   0.05839   0.06098   0.08905
 Alpha virt. eigenvalues --    0.09211   0.09350   0.10612   0.12175   0.12914

 Mulliken charges:
               1
     1  C    0.197010
     2  C    0.176893
     3  C   -0.421900
     4  H    0.233371
     5  C   -0.420190
     6  H    0.234815
 Sum of Mulliken charges =  -0.00000

 Dipole moment (field-independent basis, Debye):
    X=             -0.1896    Y=              4.7484    Z=              0.0053  Tot=              4.7522
 Quadrupole moment (field-independent basis, Debye-Ang):
   XX=            -26.3257   YY=            -24.4341   ZZ=            -26.8856
   XY=              0.0088   XZ=             -0.0780   YZ=              0.0074

 Normal termination of Gaussian 16 at Fri Sep 22 17:10:16 2023.
