 Gaussian 16, Revision A.03,
 Gaussian 16:  ES64L-G16RevA.03 25-Dec-2016

 ------------------------------------------------------
 # b3lyp/6-31+g(d,p) scrf=(iefpcm,solvent=acetonitrile)
 ------------------------------------------------------

 ------------------------
 tmpdir/M2_conf_0_108.gjf
 ------------------------
 Symbolic Z-matrix:
 Charge =  0 Multiplicity = 1

                         Standard orientation:
 ---------------------------------------------------------------------
 Center     Atomic      Atomic             Coordinates (Angstroms)
 Number     Number       Type             X           Y           Z
 ---------------------------------------------------------------------
      1         16           0       -0.505665    0.034278    0.239115
      2          6           0        1.133783   -0.658132   -0.031329
      3          1           0       -0.641682    0.024000    1.656167
      4          8           0       -0.509350    1.434420   -0.239538
      5          8           0       -1.505718   -0.907778   -0.319724
      6          8           0        2.101819    0.103017   -0.087133
      7          1           0        1.235610   -1.660927   -0.122877
 ---------------------------------------------------------------------

 SCF Done:  E(RB3LYP) =  -663.071538769     A.U. after   13 cycles

 The electronic state is 1-A.
 Alpha  occ. eigenvalues --  -89.13202 -19.23777 -19.18675 -19.18553 -10.34761
 Alpha  occ. eigenvalues --   -8.16358  -6.12762  -6.12699  -6.12648  -1.13831
 Alpha  occ. eigenvalues --   -1.10593  -1.03089  -0.77630  -0.65992  -0.57948
 Alpha  occ. eigenvalues --   -0.52840  -0.51401  -0.48025  -0.44688  -0.38938
 Alpha  occ. eigenvalues --   -0.36108  -0.35618  -0.33973  -0.30948
 Alpha virt. eigenvalues --   -0.12792  -0.01906   0.00106   0.01356   0.02449
 Alpha virt. eigenvalues --    0.04815   0.06515   0.07312   0.08226   0.09088
 Alpha virt. eigenvalues --    0.09502   0.11652   0.14046   0.15476   0.17400

 Mulliken charges:
               1
     1  S    1.138050
     2  C    0.047126
     3  H    0.118042
     4  O   -0.618089
     5  O   -0.612752
     6  O   -0.294649
     7  H    0.222273
 Sum of Mulliken charges =  -0.00000

 Dipole moment (field-independent basis, Debye):
    X=              1.7473    Y=             -3.3716    Z=              3.4486  Tot=              5.1296
 Quadrupole moment (field-independent basis, Debye-Ang):
   XX=            -43.4248   YY=            -39.1307   ZZ=            -31.5180
   XY=             -5.0581   XZ=             -2.7409   YZ=              0.3579

 Normal termination of Gaussian 16 at Fri Sep 22 17:12:06 2023.
