 Gaussian 16, Revision A.03,
 Gaussian 16:  ES64L-G16RevA.03 25-Dec-2016

 ------------------------------------------------------
 # b3lyp/6-31+g(d,p) scrf=(iefpcm,solvent=acetonitrile)
 ------------------------------------------------------

 ------------------------
 tmpdir/M2_conf_0_133.gjf
 ------------------------
 Symbolic Z-matrix:
 Charge =  0 Multiplicity = 1

                         Standard orientation:
 ---------------------------------------------------------------------
 Center     Atomic      Atomic             Coordinates (Angstroms)
 Number     Number       Type             X           Y           Z
 ---------------------------------------------------------------------
      1          6           0        0.704330    0.510746   -0.002357
      2          6           0       -0.692069    0.509903   -0.000767
      3          1           0       -1.228384    1.453423    0.003370
      4          8           0        1.297147   -0.570048    0.000669
      5          1           0        1.260549    1.441702    0.006657
      6          8           0       -1.310364   -0.557330    0.000421
 ---------------------------------------------------------------------

 SCF Done:  E(RB3LYP) =  -227.825146739     A.U. after   11 cycles

 The electronic state is 1-A.
 Alpha  occ. eigenvalues --  -19.20139 -19.20133 -10.30598 -10.30544  -1.10134
 Alpha  occ. eigenvalues --   -1.06207  -0.75869  -0.58065  -0.55931  -0.48745
 Alpha  occ. eigenvalues --   -0.46118  -0.45700  -0.38921  -0.31801  -0.29363
 Alpha virt. eigenvalues --   -0.14525   0.01328   0.02156   0.03492   0.03843
 Alpha virt. eigenvalues --    0.06081   0.07359   0.08852   0.10232   0.15340
 Alpha virt. eigenvalues --    0.15814   0.19856   0.20463   0.21600   0.24040

 Mulliken charges:
               1
     1  C    0.223405
     2  C    0.221436
     3  H    0.166333
     4  O   -0.388870
     5  H    0.170064
     6  O   -0.392368
 Sum of Mulliken charges =  -0.00000

 Dipole moment (field-independent basis, Debye):
    X=              0.0869    Y=              5.0060    Z=             -0.0018  Tot=              5.0068
 Quadrupole moment (field-independent basis, Debye-Ang):
   XX=            -26.9347   YY=            -21.5135   ZZ=            -21.2927
   XY=              0.0975   XZ=              0.0017   YZ=              0.0043

 Normal termination of Gaussian 16 at Fri Sep 22 17:12:42 2023.
