 Gaussian 16, Revision A.03,
 Gaussian 16:  ES64L-G16RevA.03 25-Dec-2016

 ------------------------------------------------------
 # b3lyp/6-31+g(d,p) scrf=(iefpcm,solvent=acetonitrile)
 ------------------------------------------------------

 ----------------------
 tmpdir/M2_conf_0_8.gjf
 ----------------------
 Symbolic Z-matrix:
 Charge =  0 Multiplicity = 1

                         Standard orientation:
 ---------------------------------------------------------------------
 Center     Atomic      Atomic             Coordinates (Angstroms)
 Number     Number       Type             X           Y           Z
 ---------------------------------------------------------------------
      1          6           0       -1.112956   -0.472632   -0.076558
      2         16           0        0.748752   -0.459631   -0.063360
      3          8           0       -1.739999    0.571800    0.088277
      4          1           0       -1.588264   -1.340019   -0.292140
      5          8           0        1.152287    0.995984   -0.025284
      6          1           0        0.987654   -1.012353    1.261304
 ---------------------------------------------------------------------

 SCF Done:  E(RB3LYP) =  -587.871363001     A.U. after   13 cycles

 The electronic state is 1-A.
 Alpha  occ. eigenvalues --  -89.02072 -19.21510 -19.15135 -10.32884  -8.06953
 Alpha  occ. eigenvalues --   -6.03362  -6.03214  -6.02683  -1.09375  -1.03825
 Alpha  occ. eigenvalues --   -0.76261  -0.63896  -0.53411  -0.49139  -0.47379
 Alpha  occ. eigenvalues --   -0.42980  -0.40710  -0.34284  -0.29836  -0.26417
 Alpha virt. eigenvalues --   -0.09597  -0.02500  -0.01271   0.01105   0.03172
 Alpha virt. eigenvalues --    0.04943   0.06268   0.08023   0.08772   0.09288
 Alpha virt. eigenvalues --    0.12123   0.14372   0.17314   0.18538   0.21187

 Mulliken charges:
               1
     1  C    0.084251
     2  S    0.698865
     3  O   -0.338910
     4  H    0.196444
     5  O   -0.746089
     6  H    0.105439
 Sum of Mulliken charges =  -0.00000

 Dipole moment (field-independent basis, Debye):
    X=             -0.7283    Y=             -6.7030    Z=              0.6128  Tot=              6.7702
 Quadrupole moment (field-independent basis, Debye-Ang):
   XX=            -33.9682   YY=            -31.5290   ZZ=            -28.1029
   XY=             -0.1380   XZ=              2.2707   YZ=             -1.3087

 Normal termination of Gaussian 16 at Fri Sep 22 17:10:40 2023.
