 Gaussian 16, Revision A.03,
 Gaussian 16:  ES64L-G16RevA.03 25-Dec-2016

 ------------------------------------------------------
 # b3lyp/6-31+g(d,p) scrf=(iefpcm,solvent=acetonitrile)
 ------------------------------------------------------

 --------------------
 tmpdir/M2_ref_18.gjf
 --------------------
 Symbolic Z-matrix:
 Charge =  0 Multiplicity = 1

                         Standard orientation:
 ---------------------------------------------------------------------
 Center     Atomic      Atomic             Coordinates (Angstroms)
 Number     Number       Type             X           Y           Z
 ---------------------------------------------------------------------
      1          6           0       -0.549778   -0.013119   -0.000526
      2          1           0       -1.110383    0.917685    0.001077
      3          1           0       -1.026052   -0.906330    0.001145
      4          8           0        0.679388    0.008420    0.000117
 ---------------------------------------------------------------------

 SCF Done:  E(RB3LYP) =  -114.510851107     A.U. after    9 cycles

 The electronic state is 1-A.
 Alpha  occ. eigenvalues --  -19.18314 -10.28797  -1.06298  -0.65552  -0.51533
 Alpha  occ. eigenvalues --   -0.46006  -0.40468  -0.28275
 Alpha virt. eigenvalues --   -0.06421   0.02136   0.04288   0.05266   0.07332
 Alpha virt. eigenvalues --    0.16888   0.19367   0.20775   0.21423   0.25997
 Alpha virt. eigenvalues --    0.27506   0.35689   0.63228   0.66308   0.72798

 Mulliken charges:
               1
     1  C    0.126010
     2  H    0.141041
     3  H    0.145810
     4  O   -0.412861
 Sum of Mulliken charges =  -0.00000

 Dipole moment (field-independent basis, Debye):
    X=             -3.2430    Y=             -0.0997    Z=              0.0004  Tot=              3.2445
 Quadrupole moment (field-independent basis, Debye-Ang):
   XX=            -12.3160   YY=            -11.4537   ZZ=            -11.6939
   XY=              0.0067   XZ=             -0.0011   YZ=              0.0001

 Normal termination of Gaussian 16 at Fri Sep 22 17:06:50 2023.
