 Gaussian 16, Revision A.03,
 Gaussian 16:  ES64L-G16RevA.03 25-Dec-2016

 ------------------------------------------------------
 # b3lyp/6-31+g(d,p) scrf=(iefpcm,solvent=acetonitrile)
 ------------------------------------------------------

 ---------------------
 tmpdir/M2_ref_117.gjf
 ---------------------
 Symbolic Z-matrix:
 Charge =  0 Multiplicity = 1

                         Standard orientation:
 ---------------------------------------------------------------------
 Center     Atomic      Atomic             Coordinates (Angstroms)
 Number     Number       Type             X           Y           Z
 ---------------------------------------------------------------------
      1         16           0       -0.543766    0.037797    0.237290
      2          6           0        1.049344   -0.757215   -0.020059
      3          6           0        2.200473    0.034556   -0.075654
      4          1           0       -0.690814    0.037974    1.653300
      5          8           0       -0.454962    1.434739   -0.242531
      6          8           0       -1.597491   -0.839498   -0.328333
      7          1           0        1.087836   -1.764540   -0.110078
      8          1           0        3.094488   -0.417222   -0.211628
      9          1           0        2.129476    1.113056    0.012947
 ---------------------------------------------------------------------

 SCF Done:  E(RB3LYP) =  -627.161583144     A.U. after   12 cycles

 The electronic state is 1-A.
 Alpha  occ. eigenvalues --  -89.12456 -19.17380 -19.17133 -10.24640 -10.23844
 Alpha  occ. eigenvalues --   -8.15306  -6.11762  -6.11673  -6.11604  -1.12019
 Alpha  occ. eigenvalues --   -1.01904  -0.81715  -0.71278  -0.61999  -0.54579
 Alpha  occ. eigenvalues --   -0.51521  -0.48663  -0.46197  -0.43168  -0.35897
 Alpha  occ. eigenvalues --   -0.34494  -0.32823  -0.32151  -0.30906
 Alpha virt. eigenvalues --   -0.07255  -0.01108   0.01094   0.01735   0.03016
 Alpha virt. eigenvalues --    0.04486   0.05546   0.06822   0.07984   0.08626
 Alpha virt. eigenvalues --    0.09619   0.10261   0.11092   0.12528   0.13885

 Mulliken charges:
               1
     1  S    1.069666
     2  C   -0.318134
     3  C   -0.146697
     4  H    0.098371
     5  O   -0.643183
     6  O   -0.637433
     7  H    0.202960
     8  H    0.183133
     9  H    0.191316
 Sum of Mulliken charges =  -0.00000

 Dipole moment (field-independent basis, Debye):
    X=              5.1440    Y=             -1.6224    Z=              3.2567  Tot=              6.3007
 Quadrupole moment (field-independent basis, Debye-Ang):
   XX=            -35.1970   YY=            -40.7638   ZZ=            -35.6071
   XY=             -2.3365   XZ=             -3.6553   YZ=              0.6097

 Normal termination of Gaussian 16 at Fri Sep 22 17:08:59 2023.
