 Gaussian 16, Revision A.03,
 Gaussian 16:  ES64L-G16RevA.03 25-Dec-2016

 ------------------------------------------------------
 # b3lyp/6-31+g(d,p) scrf=(iefpcm,solvent=acetonitrile)
 ------------------------------------------------------

 -------------------
 tmpdir/M2_ref_4.gjf
 -------------------
 Symbolic Z-matrix:
 Charge =  0 Multiplicity = 2

                         Standard orientation:
 ---------------------------------------------------------------------
 Center     Atomic      Atomic             Coordinates (Angstroms)
 Number     Number       Type             X           Y           Z
 ---------------------------------------------------------------------
      1          6           0       -0.907762    0.457001   -0.116852
      2          6           0        0.522654    0.737539    0.100749
      3          6           0        1.443959   -0.415043   -0.077901
      4          1           0       -1.579257    1.270585   -0.437000
      5          8           0       -1.358723   -0.674097    0.101362
      6          1           0        0.918261    1.680413    0.458873
      7          1           0        0.947123   -1.270349   -0.536960
      8          1           0        2.335942   -0.137133   -0.649829
      9          1           0        1.894604   -0.827720    0.918051
 ---------------------------------------------------------------------

 SCF Done:  E(UB3LYP) =  -192.509121119     A.U. after   14 cycles

 The electronic state is 2-A.
 Alpha  occ. eigenvalues --  -19.16756 -10.28412 -10.23601 -10.19979  -1.05499
 Alpha  occ. eigenvalues --   -0.79333  -0.67408  -0.56474  -0.51087  -0.45402
 Alpha  occ. eigenvalues --   -0.43637  -0.40735  -0.39341  -0.38120  -0.27934
 Alpha  occ. eigenvalues --   -0.23865
 Alpha virt. eigenvalues --   -0.02312   0.01383   0.02910   0.03867   0.05092
 Alpha virt. eigenvalues --    0.06264   0.07639   0.08595   0.09144   0.10263
 Alpha virt. eigenvalues --    0.12016   0.14131   0.15106   0.18430   0.19930

  Beta  occ. eigenvalues --  -19.16137 -10.28501 -10.22507 -10.20044  -1.04346
  Beta  occ. eigenvalues --   -0.77438  -0.66500  -0.55510  -0.50545  -0.44665
  Beta  occ. eigenvalues --   -0.41633  -0.39886  -0.38331  -0.36945  -0.27118
  Beta virt. eigenvalues --   -0.12059   0.00272   0.01716   0.02948   0.03987
  Beta virt. eigenvalues --    0.05233   0.06321   0.07693   0.08593   0.09385
  Beta virt. eigenvalues --    0.11027   0.12008   0.14289   0.15288   0.19255

 Mulliken charges and spin densities:
               1          2
     1  C    0.060139  -0.050779
     2  C    0.144086   0.871412
     3  C   -0.587434  -0.100145
     4  H    0.137021  -0.000428
     5  O   -0.458081   0.221543
     6  H    0.178619  -0.038115
     7  H    0.177998   0.002560
     8  H    0.176665   0.028365
     9  H    0.170987   0.065588
 Sum of Mulliken charges =  -0.00000   1.00000

 Dipole moment (field-independent basis, Debye):
    X=              2.8021    Y=              2.8171    Z=             -0.3572  Tot=              3.9894
 Quadrupole moment (field-independent basis, Debye-Ang):
   XX=            -25.8774   YY=            -24.3018   ZZ=            -24.8806
   XY=             -3.3067   XZ=              1.0433   YZ=              0.5815

 Normal termination of Gaussian 16 at Fri Sep 22 17:08:00 2023.
