 Gaussian 16, Revision A.03,
 Gaussian 16:  ES64L-G16RevA.03 25-Dec-2016

 ------------------------------------------------------
 # b3lyp/6-31+g(d,p) scrf=(iefpcm,solvent=acetonitrile)
 ------------------------------------------------------

 --------------------
 tmpdir/M2_ref_32.gjf
 --------------------
 Symbolic Z-matrix:
 Charge =  0 Multiplicity = 1

                         Standard orientation:
 ---------------------------------------------------------------------
 Center     Atomic      Atomic             Coordinates (Angstroms)
 Number     Number       Type             X           Y           Z
 ---------------------------------------------------------------------
      1          6           0        0.230346    0.439442   -0.005451
      2          6           0       -1.163111   -0.140872   -0.001972
      3          8           0        1.226027   -0.295929    0.001171
      4          1           0        0.372405    1.447031    0.011231
      5          1           0       -1.557435   -0.192295    1.020455
      6          1           0       -1.852575    0.476164   -0.585760
      7          1           0       -1.174020   -1.154882   -0.410753
 ---------------------------------------------------------------------

 SCF Done:  E(RB3LYP) =  -153.844837227     A.U. after   10 cycles

 The electronic state is 1-A.
 Alpha  occ. eigenvalues --  -19.16906 -10.28947 -10.19650  -1.05156  -0.75351
 Alpha  occ. eigenvalues --   -0.60870  -0.48800  -0.44506  -0.44366  -0.39885
 Alpha  occ. eigenvalues --   -0.36947  -0.27409
 Alpha virt. eigenvalues --   -0.04947   0.01661   0.03355   0.04700   0.05807
 Alpha virt. eigenvalues --    0.08047   0.08409   0.09664   0.14571   0.16640
 Alpha virt. eigenvalues --    0.16728   0.21548   0.22265   0.24695   0.25422

 Mulliken charges:
               1
     1  C    0.272426
     2  C   -0.511322
     3  O   -0.463749
     4  H    0.145467
     5  H    0.196067
     6  H    0.176965
     7  H    0.184146
 Sum of Mulliken charges =  -0.00000

 Dipole moment (field-independent basis, Debye):
    X=             -3.3600    Y=              1.8238    Z=              0.0795  Tot=              3.8239
 Quadrupole moment (field-independent basis, Debye-Ang):
   XX=            -21.6734   YY=            -17.7550   ZZ=            -17.9415
   XY=              1.5964   XZ=             -0.1438   YZ=             -0.0209

 Normal termination of Gaussian 16 at Fri Sep 22 17:07:18 2023.
