 Gaussian 16, Revision A.03,
 Gaussian 16:  ES64L-G16RevA.03 25-Dec-2016

 ------------------------------------------------------
 # b3lyp/6-31+g(d,p) scrf=(iefpcm,solvent=acetonitrile)
 ------------------------------------------------------

 --------------------
 tmpdir/M2_ref_65.gjf
 --------------------
 Symbolic Z-matrix:
 Charge =  0 Multiplicity = 1

                         Standard orientation:
 ---------------------------------------------------------------------
 Center     Atomic      Atomic             Coordinates (Angstroms)
 Number     Number       Type             X           Y           Z
 ---------------------------------------------------------------------
      1          6           0       -0.700290    0.488187   -0.002810
      2          6           0        0.695481    0.487858    0.001767
      3          6           0       -1.392050   -0.729714    0.002014
      4          1           0       -1.252865    1.420767   -0.002572
      5          6           0        1.400264   -0.721730   -0.001562
      6          1           0        1.232427    1.431624    0.006120
 ---------------------------------------------------------------------

 SCF Done:  E(RB3LYP) =  -153.323601044     A.U. after   14 cycles

 The electronic state is 1-A.
 Alpha  occ. eigenvalues --  -10.29073 -10.29047 -10.24093 -10.24040  -0.85719
 Alpha  occ. eigenvalues --   -0.72849  -0.61453  -0.50197  -0.49158  -0.36873
 Alpha  occ. eigenvalues --   -0.33659  -0.31460  -0.25306
 Alpha virt. eigenvalues --   -0.14561  -0.11421  -0.08389   0.02251   0.03741
 Alpha virt. eigenvalues --    0.04177   0.04501   0.05829   0.06100   0.08893
 Alpha virt. eigenvalues --    0.09204   0.09352   0.10630   0.12174   0.12893

 Mulliken charges:
               1
     1  C    0.181510
     2  C    0.182591
     3  C   -0.413743
     4  H    0.233790
     5  C   -0.418747
     6  H    0.234600
 Sum of Mulliken charges =  -0.00000

 Dipole moment (field-independent basis, Debye):
    X=             -0.0496    Y=              4.7521    Z=              0.0046  Tot=              4.7523
 Quadrupole moment (field-independent basis, Debye-Ang):
   XX=            -26.2609   YY=            -24.4577   ZZ=            -26.9262
   XY=              0.0037   XZ=              0.0390   YZ=              0.0098

 Normal termination of Gaussian 16 at Fri Sep 22 17:07:59 2023.
