 Gaussian 16, Revision A.03,
 Gaussian 16:  ES64L-G16RevA.03 25-Dec-2016

 ------------------------------------------------------
 # b3lyp/6-31+g(d,p) scrf=(iefpcm,solvent=acetonitrile)
 ------------------------------------------------------

 --------------------
 tmpdir/M2_ref_58.gjf
 --------------------
 Symbolic Z-matrix:
 Charge =  0 Multiplicity = 1

                         Standard orientation:
 ---------------------------------------------------------------------
 Center     Atomic      Atomic             Coordinates (Angstroms)
 Number     Number       Type             X           Y           Z
 ---------------------------------------------------------------------
      1          7           0       -1.200139   -0.145736   -0.011600
      2          6           0        0.086268    0.497498   -0.029863
      3          6           0        1.270109   -0.249180    0.023328
      4          1           0       -1.727259   -0.230133    0.908645
      5          1           0       -1.512856   -0.644697   -0.797514
      6          1           0        0.119519    1.509161   -0.071285
      7          1           0        2.161110    0.227169    0.014093
      8          1           0        1.222200   -1.331256    0.066466
 ---------------------------------------------------------------------

 SCF Done:  E(RB3LYP) =  -133.935615173     A.U. after   11 cycles

 The electronic state is 1-A.
 Alpha  occ. eigenvalues --  -14.32841 -10.22716 -10.18678  -0.87924  -0.73152
 Alpha  occ. eigenvalues --   -0.59381  -0.49827  -0.48745  -0.43299  -0.39463
 Alpha  occ. eigenvalues --   -0.26917  -0.23243
 Alpha virt. eigenvalues --   -0.01895   0.00917   0.03688   0.03958   0.06277
 Alpha virt. eigenvalues --    0.07576   0.09171   0.10514   0.11239   0.13318
 Alpha virt. eigenvalues --    0.14470   0.16880   0.20112   0.21785   0.23904

 Mulliken charges:
               1
     1  N   -0.721326
     2  C   -0.056149
     3  C   -0.291033
     4  H    0.321494
     5  H    0.322886
     6  H    0.136137
     7  H    0.139614
     8  H    0.148377
 Sum of Mulliken charges =  -0.00000

 Dipole moment (field-independent basis, Debye):
    X=             -0.2907    Y=             -0.3840    Z=              0.2146  Tot=              0.5273
 Quadrupole moment (field-independent basis, Debye-Ang):
   XX=            -18.0291   YY=            -19.0565   ZZ=            -19.8210
   XY=              1.7209   XZ=             -0.7367   YZ=              0.7164

 Normal termination of Gaussian 16 at Fri Sep 22 17:08:02 2023.
