 Gaussian 16, Revision A.03,
 Gaussian 16:  ES64L-G16RevA.03 25-Dec-2016

 ------------------------------------------------------
 # b3lyp/6-31+g(d,p) scrf=(iefpcm,solvent=acetonitrile)
 ------------------------------------------------------

 -------------------
 tmpdir/M2_ref_5.gjf
 -------------------
 Symbolic Z-matrix:
 Charge =  0 Multiplicity = 2

                         Standard orientation:
 ---------------------------------------------------------------------
 Center     Atomic      Atomic             Coordinates (Angstroms)
 Number     Number       Type             X           Y           Z
 ---------------------------------------------------------------------
      1          6           0        1.295052   -0.197673    0.004141
      2          6           0        0.002190    0.556029   -0.016117
      3          6           0       -1.278098   -0.198966   -0.013558
      4          1           0        1.460951   -0.723948   -0.946706
      5          1           0        2.154864    0.444752    0.199154
      6          1           0        1.263993   -0.972729    0.778985
      7          1           0       -0.083004    1.616999    0.056763
      8          1           0       -2.141443    0.456593   -0.131899
      9          1           0       -1.286897   -0.986167   -0.775272
     10          1           0       -1.483331   -0.791843    0.972180
 ---------------------------------------------------------------------

 SCF Done:  E(UB3LYP) =  -118.490297559     A.U. after   12 cycles

 The electronic state is 2-A.
 Alpha  occ. eigenvalues --  -10.19313 -10.18426 -10.18134  -0.78356  -0.68942
 Alpha  occ. eigenvalues --   -0.57448  -0.45545  -0.42723  -0.41073  -0.37926
 Alpha  occ. eigenvalues --   -0.35583  -0.35367  -0.18497
 Alpha virt. eigenvalues --    0.01512   0.03124   0.03642   0.05284   0.06783
 Alpha virt. eigenvalues --    0.07790   0.08537   0.09084   0.10701   0.11689
 Alpha virt. eigenvalues --    0.12926   0.15001   0.18412   0.20157   0.22058

  Beta  occ. eigenvalues --  -10.18528 -10.18221 -10.17988  -0.76649  -0.68713
  Beta  occ. eigenvalues --   -0.55363  -0.45140  -0.41038  -0.40474  -0.37177
  Beta  occ. eigenvalues --   -0.35199  -0.34836
  Beta virt. eigenvalues --   -0.04721   0.01571   0.03136   0.03810   0.05339
  Beta virt. eigenvalues --    0.06809   0.07747   0.08459   0.09235   0.11664
  Beta virt. eigenvalues --    0.12428   0.13262   0.15006   0.19014   0.20513

 Mulliken charges and spin densities:
               1          2
     1  C   -0.571696  -0.100786
     2  C    0.074566   1.058761
     3  C   -0.566713  -0.114803
     4  H    0.160100   0.048820
     5  H    0.154981   0.002947
     6  H    0.155447   0.039341
     7  H    0.142130  -0.050255
     8  H    0.153973   0.003572
     9  H    0.154311   0.037561
    10  H    0.142901   0.074843
 Sum of Mulliken charges =  -0.00000   1.00000

 Dipole moment (field-independent basis, Debye):
    X=              0.0452    Y=             -0.1643    Z=              0.0500  Tot=              0.1776
 Quadrupole moment (field-independent basis, Debye-Ang):
   XX=            -20.9409   YY=            -20.8528   ZZ=            -22.2110
   XY=             -0.1729   XZ=              0.0069   YZ=              0.2446

 Normal termination of Gaussian 16 at Fri Sep 22 17:08:32 2023.
