 Gaussian 16, Revision A.03,
 Gaussian 16:  ES64L-G16RevA.03 25-Dec-2016

 ------------------------------------------------------
 # b3lyp/6-31+g(d,p) scrf=(iefpcm,solvent=acetonitrile)
 ------------------------------------------------------

 --------------------
 tmpdir/M2_ref_57.gjf
 --------------------
 Symbolic Z-matrix:
 Charge =  0 Multiplicity = 1

                         Standard orientation:
 ---------------------------------------------------------------------
 Center     Atomic      Atomic             Coordinates (Angstroms)
 Number     Number       Type             X           Y           Z
 ---------------------------------------------------------------------
      1          7           0        1.648524   -0.547648   -0.012275
      2          6           0        0.378018    0.126673   -0.006699
      3          6           0       -0.787790   -0.647481   -0.016392
      4          1           0        2.049340   -0.911055    0.903755
      5          1           0        2.213672   -0.527444   -0.815153
      6          8           0        0.309564    1.359338    0.019451
      7          8           0       -1.888995   -0.093648    0.003221
      8          1           0       -0.708606   -1.728640   -0.045505
 ---------------------------------------------------------------------

 SCF Done:  E(RB3LYP) =  -283.188301636     A.U. after   13 cycles

 The electronic state is 1-A.
 Alpha  occ. eigenvalues --  -19.20070 -19.19277 -14.35402 -10.33607 -10.30666
 Alpha  occ. eigenvalues --   -1.10161  -1.06309  -0.89872  -0.74195  -0.57584
 Alpha  occ. eigenvalues --   -0.55455  -0.53447  -0.49071  -0.46217  -0.44818
 Alpha  occ. eigenvalues --   -0.38496  -0.32876  -0.29936  -0.26920
 Alpha virt. eigenvalues --   -0.14072   0.00072   0.02010   0.02912   0.04033
 Alpha virt. eigenvalues --    0.06307   0.06626   0.08723   0.09020   0.10777
 Alpha virt. eigenvalues --    0.12248   0.13150   0.16110   0.18277   0.21555

 Mulliken charges:
               1
     1  N   -0.710157
     2  C    0.364535
     3  C    0.275735
     4  H    0.352605
     5  H    0.346280
     6  O   -0.417259
     7  O   -0.384839
     8  H    0.173099
 Sum of Mulliken charges =  -0.00000

 Dipole moment (field-independent basis, Debye):
    X=              3.6671    Y=             -4.3440    Z=              0.1226  Tot=              5.6862
 Quadrupole moment (field-independent basis, Debye-Ang):
   XX=            -30.5300   YY=            -31.8449   ZZ=            -24.9777
   XY=             -1.5764   XZ=              0.0315   YZ=             -1.0320

 Normal termination of Gaussian 16 at Fri Sep 22 17:07:49 2023.
