 Gaussian 16, Revision A.03,
 Gaussian 16:  ES64L-G16RevA.03 25-Dec-2016

 ------------------------------------------------------
 # b3lyp/6-31+g(d,p) scrf=(iefpcm,solvent=acetonitrile)
 ------------------------------------------------------

 ---------------------
 tmpdir/M2_ref_119.gjf
 ---------------------
 Symbolic Z-matrix:
 Charge =  0 Multiplicity = 1

                         Standard orientation:
 ---------------------------------------------------------------------
 Center     Atomic      Atomic             Coordinates (Angstroms)
 Number     Number       Type             X           Y           Z
 ---------------------------------------------------------------------
      1          6           0       -1.438062   -0.464952   -0.000802
      2          6           0       -0.574706    0.634915    0.000094
      3          6           0        0.815202    0.483700   -0.000533
      4          1           0       -1.040495   -1.394357   -0.000122
      5          1           0       -2.512607   -0.319087    0.010576
      6          1           0       -1.012028    1.670825   -0.010514
      7          8           0        1.286004   -0.654127   -0.000595
      8          1           0        1.462490    1.353662    0.012267
 ---------------------------------------------------------------------

 SCF Done:  E(RB3LYP) =  -191.918100870     A.U. after   12 cycles

 The electronic state is 1-A.
 Alpha  occ. eigenvalues --  -19.15913 -10.28170 -10.22386 -10.21512  -1.05269
 Alpha  occ. eigenvalues --   -0.79715  -0.68028  -0.55612  -0.52084  -0.46105
 Alpha  occ. eigenvalues --   -0.42945  -0.41189  -0.39182  -0.28537  -0.27463
 Alpha virt. eigenvalues --   -0.09756   0.01370   0.03107   0.03917   0.04166
 Alpha virt. eigenvalues --    0.06221   0.06551   0.07503   0.09615   0.09806
 Alpha virt. eigenvalues --    0.12232   0.12406   0.14273   0.16357   0.19465

 Mulliken charges:
               1
     1  C   -0.281650
     2  C    0.063774
     3  C    0.070701
     4  H    0.174553
     5  H    0.173440
     6  H    0.156580
     7  O   -0.499612
     8  H    0.142214
 Sum of Mulliken charges =  -0.00000

 Dipole moment (field-independent basis, Debye):
    X=             -2.8273    Y=              2.3929    Z=              0.0058  Tot=              3.7040
 Quadrupole moment (field-independent basis, Debye-Ang):
   XX=            -23.8825   YY=            -22.5583   ZZ=            -25.2321
   XY=              4.1487   XZ=             -0.0045   YZ=             -0.0167

 Normal termination of Gaussian 16 at Fri Sep 22 17:10:01 2023.
