 Gaussian 16, Revision A.03,
 Gaussian 16:  ES64L-G16RevA.03 25-Dec-2016

 ------------------------------------------------------
 # b3lyp/6-31+g(d,p) scrf=(iefpcm,solvent=acetonitrile)
 ------------------------------------------------------

 -------------------
 tmpdir/M2_ref_7.gjf
 -------------------
 Symbolic Z-matrix:
 Charge =  0 Multiplicity = 1

                         Standard orientation:
 ---------------------------------------------------------------------
 Center     Atomic      Atomic             Coordinates (Angstroms)
 Number     Number       Type             X           Y           Z
 ---------------------------------------------------------------------
      1          6           0        0.691624    0.479862   -0.013882
      2          6           0       -0.706663    0.485313   -0.000054
      3          6           0        1.408154   -0.716132    0.003862
      4          1           0        1.235665    1.470357    0.041184
      5          6           0       -1.388965   -0.730788    0.002417
      6          1           0       -1.260569    1.420109    0.004760
 ---------------------------------------------------------------------

 SCF Done:  E(RB3LYP) =  -153.324669924     A.U. after   14 cycles

 The electronic state is 1-A.
 Alpha  occ. eigenvalues --  -10.29005 -10.28916 -10.24400 -10.24066  -0.85695
 Alpha  occ. eigenvalues --   -0.72902  -0.61319  -0.50114  -0.48432  -0.36918
 Alpha  occ. eigenvalues --   -0.33617  -0.31471  -0.25401
 Alpha virt. eigenvalues --   -0.14516  -0.11467  -0.08244   0.02173   0.03720
 Alpha virt. eigenvalues --    0.04251   0.04442   0.05784   0.06079   0.08863
 Alpha virt. eigenvalues --    0.09184   0.09322   0.10635   0.12132   0.12855

 Mulliken charges:
               1
     1  C    0.204758
     2  C    0.182200
     3  C   -0.444595
     4  H    0.241013
     5  C   -0.417836
     6  H    0.234460
 Sum of Mulliken charges =  -0.00000

 Dipole moment (field-independent basis, Debye):
    X=             -0.1256    Y=              4.8148    Z=              0.0604  Tot=              4.8169
 Quadrupole moment (field-independent basis, Debye-Ang):
   XX=            -26.3773   YY=            -24.3299   ZZ=            -26.9552
   XY=              0.0882   XZ=              0.1043   YZ=              0.1276

 Normal termination of Gaussian 16 at Fri Sep 22 17:07:09 2023.
