 Gaussian 16, Revision A.03,
 Gaussian 16:  ES64L-G16RevA.03 25-Dec-2016

 ------------------------------------------------------
 # b3lyp/6-31+g(d,p) scrf=(iefpcm,solvent=acetonitrile)
 ------------------------------------------------------

 --------------------
 tmpdir/M2_ref_76.gjf
 --------------------
 Symbolic Z-matrix:
 Charge =  0 Multiplicity = 1

                         Standard orientation:
 ---------------------------------------------------------------------
 Center     Atomic      Atomic             Coordinates (Angstroms)
 Number     Number       Type             X           Y           Z
 ---------------------------------------------------------------------
      1          6           0        0.551085   -0.013343   -0.000240
      2          1           0        1.111825    0.916492    0.000487
      3          1           0        1.045295   -0.894610    0.000524
      4          8           0       -0.682953    0.007272    0.000054
 ---------------------------------------------------------------------

 SCF Done:  E(RB3LYP) =  -114.510640133     A.U. after    9 cycles

 The electronic state is 1-A.
 Alpha  occ. eigenvalues --  -19.18399 -10.28871  -1.06064  -0.65775  -0.51351
 Alpha  occ. eigenvalues --   -0.46039  -0.40349  -0.28342
 Alpha virt. eigenvalues --   -0.06573   0.02131   0.04252   0.05291   0.07328
 Alpha virt. eigenvalues --    0.16979   0.19499   0.20754   0.21404   0.25931
 Alpha virt. eigenvalues --    0.27397   0.35489   0.63227   0.65880   0.72285

 Mulliken charges:
               1
     1  C    0.126351
     2  H    0.141212
     3  H    0.147631
     4  O   -0.415194
 Sum of Mulliken charges =   0.00000

 Dipole moment (field-independent basis, Debye):
    X=              3.2729    Y=             -0.0982    Z=              0.0002  Tot=              3.2744
 Quadrupole moment (field-independent basis, Debye-Ang):
   XX=            -12.2689   YY=            -11.4897   ZZ=            -11.7019
   XY=             -0.0331   XZ=              0.0005   YZ=              0.0000

 Normal termination of Gaussian 16 at Fri Sep 22 17:08:04 2023.
