 Gaussian 16, Revision A.03,
 Gaussian 16:  ES64L-G16RevA.03 25-Dec-2016

 ------------------------------------------------------
 # b3lyp/6-31+g(d,p) scrf=(iefpcm,solvent=acetonitrile)
 ------------------------------------------------------

 ---------------------
 tmpdir/M2_ref_133.gjf
 ---------------------
 Symbolic Z-matrix:
 Charge =  0 Multiplicity = 1

                         Standard orientation:
 ---------------------------------------------------------------------
 Center     Atomic      Atomic             Coordinates (Angstroms)
 Number     Number       Type             X           Y           Z
 ---------------------------------------------------------------------
      1          6           0        0.704370    0.510790   -0.002346
      2          6           0       -0.692076    0.509913   -0.000757
      3          1           0       -1.229241    1.452905    0.003338
      4          8           0        1.297216   -0.570002    0.000665
      5          1           0        1.260509    1.441748    0.006625
      6          8           0       -1.310345   -0.557357    0.000418
 ---------------------------------------------------------------------

 SCF Done:  E(RB3LYP) =  -227.825150043     A.U. after   11 cycles

 The electronic state is 1-A.
 Alpha  occ. eigenvalues --  -19.20137 -19.20134 -10.30599 -10.30545  -1.10133
 Alpha  occ. eigenvalues --   -1.06207  -0.75866  -0.58068  -0.55933  -0.48744
 Alpha  occ. eigenvalues --   -0.46117  -0.45700  -0.38920  -0.31800  -0.29364
 Alpha virt. eigenvalues --   -0.14525   0.01328   0.02155   0.03493   0.03842
 Alpha virt. eigenvalues --    0.06081   0.07359   0.08851   0.10231   0.15341
 Alpha virt. eigenvalues --    0.15816   0.19856   0.20459   0.21601   0.24046

 Mulliken charges:
               1
     1  C    0.223410
     2  C    0.221315
     3  H    0.166341
     4  O   -0.388856
     5  H    0.170073
     6  O   -0.392283
 Sum of Mulliken charges =  -0.00000

 Dipole moment (field-independent basis, Debye):
    X=              0.0865    Y=              5.0062    Z=             -0.0018  Tot=              5.0069
 Quadrupole moment (field-independent basis, Debye-Ang):
   XX=            -26.9328   YY=            -21.5145   ZZ=            -21.2928
   XY=              0.0964   XZ=              0.0017   YZ=              0.0043

 Normal termination of Gaussian 16 at Fri Sep 22 17:09:28 2023.
