 Gaussian 16, Revision A.03,
 Gaussian 16:  ES64L-G16RevA.03 25-Dec-2016

 ------------------------------------------------------
 # b3lyp/6-31+g(d,p) scrf=(iefpcm,solvent=acetonitrile)
 ------------------------------------------------------

 --------------------
 tmpdir/M2_ref_45.gjf
 --------------------
 Symbolic Z-matrix:
 Charge =  0 Multiplicity = 1

                         Standard orientation:
 ---------------------------------------------------------------------
 Center     Atomic      Atomic             Coordinates (Angstroms)
 Number     Number       Type             X           Y           Z
 ---------------------------------------------------------------------
      1         16           0        0.424211   -0.011877   -0.109168
      2          8           0       -1.077750    0.011449    0.053748
      3          1           0        0.876145   -1.032128    0.700188
      4          1           0        0.958476    1.130564    0.616520
 ---------------------------------------------------------------------

 SCF Done:  E(RB3LYP) =  -474.553318802     A.U. after   10 cycles

 The electronic state is 1-A.
 Alpha  occ. eigenvalues --  -89.01184 -19.13801  -8.06057  -6.02486  -6.02333
 Alpha  occ. eigenvalues --   -6.01755  -1.03046  -0.72631  -0.50316  -0.45318
 Alpha  occ. eigenvalues --   -0.40475  -0.29998  -0.25659
 Alpha virt. eigenvalues --   -0.02976  -0.01063   0.01310   0.05144   0.05552
 Alpha virt. eigenvalues --    0.08594   0.12595   0.18238   0.19225   0.19621
 Alpha virt. eigenvalues --    0.27264   0.42173   0.45764   0.48043   0.58177

 Mulliken charges:
               1
     1  S    0.596200
     2  O   -0.777511
     3  H    0.094393
     4  H    0.086918
 Sum of Mulliken charges =  -0.00000

 Dipole moment (field-independent basis, Debye):
    X=              4.9756    Y=             -0.0742    Z=              0.8625  Tot=              5.0503
 Quadrupole moment (field-independent basis, Debye-Ang):
   XX=            -22.3527   YY=            -17.1843   ZZ=            -19.7912
   XY=              0.1030   XZ=              1.4267   YZ=             -0.1708

 Normal termination of Gaussian 16 at Fri Sep 22 17:07:24 2023.
