 Gaussian 16, Revision A.03,
 Gaussian 16:  ES64L-G16RevA.03 25-Dec-2016

 ------------------------------------------------------
 # b3lyp/6-31+g(d,p) scrf=(iefpcm,solvent=acetonitrile)
 ------------------------------------------------------

 --------------------
 tmpdir/M2_ref_47.gjf
 --------------------
 Symbolic Z-matrix:
 Charge =  0 Multiplicity = 1

                         Standard orientation:
 ---------------------------------------------------------------------
 Center     Atomic      Atomic             Coordinates (Angstroms)
 Number     Number       Type             X           Y           Z
 ---------------------------------------------------------------------
      1          6           0       -1.080793   -0.471955   -0.076534
      2         16           0        0.729162   -0.460033   -0.063346
      3          8           0        1.133342    0.995356   -0.025195
      4          8           0       -1.707467    0.572665    0.088141
      5          1           0       -1.556309   -1.339152   -0.292219
      6          1           0        0.967476   -1.012760    1.261393
 ---------------------------------------------------------------------

 SCF Done:  E(RB3LYP) =  -587.870174203     A.U. after   13 cycles

 The electronic state is 1-A.
 Alpha  occ. eigenvalues --  -89.02196 -19.21269 -19.15059 -10.32673  -8.07116
 Alpha  occ. eigenvalues --   -6.03524  -6.03381  -6.02842  -1.09409  -1.03850
 Alpha  occ. eigenvalues --   -0.77274  -0.63724  -0.53910  -0.49194  -0.47593
 Alpha  occ. eigenvalues --   -0.42933  -0.40615  -0.33865  -0.29968  -0.26579
 Alpha virt. eigenvalues --   -0.09782  -0.02444  -0.01283   0.01769   0.03291
 Alpha virt. eigenvalues --    0.05063   0.06281   0.08238   0.08796   0.09670
 Alpha virt. eigenvalues --    0.12228   0.14420   0.17292   0.18603   0.21249

 Mulliken charges:
               1
     1  C    0.081655
     2  S    0.708327
     3  O   -0.749752
     4  O   -0.346428
     5  H    0.196251
     6  H    0.109947
 Sum of Mulliken charges =  -0.00000

 Dipole moment (field-independent basis, Debye):
    X=             -0.6314    Y=             -6.7318    Z=              0.6372  Tot=              6.7913
 Quadrupole moment (field-independent basis, Debye-Ang):
   XX=            -34.0081   YY=            -31.5125   ZZ=            -28.0096
   XY=             -0.1875   XZ=              2.2508   YZ=             -1.3331

 Normal termination of Gaussian 16 at Fri Sep 22 17:07:52 2023.
