 Gaussian 16, Revision A.03,
 Gaussian 16:  ES64L-G16RevA.03 25-Dec-2016

 ------------------------------------------------------
 # b3lyp/6-31+g(d,p) scrf=(iefpcm,solvent=acetonitrile)
 ------------------------------------------------------

 --------------------
 tmpdir/M2_ref_31.gjf
 --------------------
 Symbolic Z-matrix:
 Charge =  0 Multiplicity = 1

                         Standard orientation:
 ---------------------------------------------------------------------
 Center     Atomic      Atomic             Coordinates (Angstroms)
 Number     Number       Type             X           Y           Z
 ---------------------------------------------------------------------
      1          6           0       -0.711499    0.512544   -0.003135
      2          6           0        0.694346    0.503881   -0.002789
      3          1           0        1.237011    1.445189   -0.000918
      4          8           0       -1.307174   -0.572516   -0.000096
      5          1           0       -1.262377    1.455927    0.019682
      6          8           0        1.323210   -0.552442    0.002193
 ---------------------------------------------------------------------

 SCF Done:  E(RB3LYP) =  -227.826906185     A.U. after   11 cycles

 The electronic state is 1-A.
 Alpha  occ. eigenvalues --  -19.20257 -19.20134 -10.30855 -10.30616  -1.10039
 Alpha  occ. eigenvalues --   -1.06270  -0.75640  -0.58029  -0.55759  -0.48737
 Alpha  occ. eigenvalues --   -0.46028  -0.45734  -0.39001  -0.31932  -0.29293
 Alpha virt. eigenvalues --   -0.14480   0.01312   0.02010   0.03475   0.03823
 Alpha virt. eigenvalues --    0.06093   0.07311   0.08849   0.10189   0.15321
 Alpha virt. eigenvalues --    0.15840   0.19846   0.20269   0.21530   0.23883

 Mulliken charges:
               1
     1  C    0.224397
     2  C    0.218326
     3  H    0.163685
     4  O   -0.389162
     5  H    0.172933
     6  O   -0.390178
 Sum of Mulliken charges =  -0.00000

 Dipole moment (field-independent basis, Debye):
    X=             -0.1060    Y=              4.9954    Z=             -0.0032  Tot=              4.9966
 Quadrupole moment (field-independent basis, Debye-Ang):
   XX=            -26.9992   YY=            -21.5411   ZZ=            -21.3215
   XY=             -0.1697   XZ=             -0.0212   YZ=              0.0093

 Normal termination of Gaussian 16 at Fri Sep 22 17:07:06 2023.
