 Gaussian 16, Revision A.03,
 Gaussian 16:  ES64L-G16RevA.03 25-Dec-2016

 ------------------------------------------------------
 # b3lyp/6-31+g(d,p) scrf=(iefpcm,solvent=acetonitrile)
 ------------------------------------------------------

 --------------------
 tmpdir/M2_ref_71.gjf
 --------------------
 Symbolic Z-matrix:
 Charge =  0 Multiplicity = 1

                         Standard orientation:
 ---------------------------------------------------------------------
 Center     Atomic      Atomic             Coordinates (Angstroms)
 Number     Number       Type             X           Y           Z
 ---------------------------------------------------------------------
      1          6           0       -0.550964   -0.013197   -0.000760
      2          1           0       -1.103699    0.921331    0.001542
      3          8           0        0.681661    0.006825    0.000169
      4          1           0       -1.043801   -0.896750    0.001661
 ---------------------------------------------------------------------

 SCF Done:  E(RB3LYP) =  -114.510799981     A.U. after    9 cycles

 The electronic state is 1-A.
 Alpha  occ. eigenvalues --  -19.18364 -10.28851  -1.06129  -0.65685  -0.51431
 Alpha  occ. eigenvalues --   -0.46011  -0.40381  -0.28316
 Alpha virt. eigenvalues --   -0.06525   0.02132   0.04270   0.05280   0.07329
 Alpha virt. eigenvalues --    0.16926   0.19451   0.20749   0.21410   0.25958
 Alpha virt. eigenvalues --    0.27439   0.35551   0.63228   0.66008   0.72517

 Mulliken charges:
               1
     1  C    0.125973
     2  H    0.140912
     3  O   -0.414371
     4  H    0.147486
 Sum of Mulliken charges =  -0.00000

 Dipole moment (field-independent basis, Debye):
    X=             -3.2632    Y=             -0.0955    Z=              0.0006  Tot=              3.2646
 Quadrupole moment (field-independent basis, Debye-Ang):
   XX=            -12.2910   YY=            -11.4714   ZZ=            -11.7010
   XY=              0.0391   XZ=             -0.0016   YZ=              0.0001

 Normal termination of Gaussian 16 at Fri Sep 22 17:08:16 2023.
