 Gaussian 16, Revision A.03,
 Gaussian 16:  ES64L-G16RevA.03 25-Dec-2016

 ------------------------------------------------------
 # b3lyp/6-31+g(d,p) scrf=(iefpcm,solvent=acetonitrile)
 ------------------------------------------------------

 ---------------------
 tmpdir/M2_ref_118.gjf
 ---------------------
 Symbolic Z-matrix:
 Charge =  0 Multiplicity = 1

                         Standard orientation:
 ---------------------------------------------------------------------
 Center     Atomic      Atomic             Coordinates (Angstroms)
 Number     Number       Type             X           Y           Z
 ---------------------------------------------------------------------
      1         16           0       -1.095748   -0.122117    0.235444
      2          6           0        0.629487    0.353791    0.052818
      3          6           0        1.609682   -0.642601    0.019193
      4          1           0       -1.281059   -0.167206    1.646235
      5          8           0       -1.941972    0.950900   -0.332094
      6          8           0       -1.255163   -1.500874   -0.287556
      7          8           0        0.913711    1.550669   -0.026483
      8          8           0        2.789225   -0.307819   -0.094394
      9          1           0        1.331598   -1.689068    0.078817
 ---------------------------------------------------------------------

 SCF Done:  E(RB3LYP) =  -776.378943719     A.U. after   15 cycles

 The electronic state is 1-A.
 Alpha  occ. eigenvalues --  -89.13958 -19.24976 -19.22347 -19.19201 -19.19155
 Alpha  occ. eigenvalues --  -10.36097 -10.33120  -8.17066  -6.13469  -6.13428
 Alpha  occ. eigenvalues --   -6.13354  -1.15006  -1.12689  -1.09269  -1.03684
 Alpha  occ. eigenvalues --   -0.81994  -0.72842  -0.60935  -0.59145  -0.53869
 Alpha  occ. eigenvalues --   -0.52460  -0.49177  -0.48883  -0.48646  -0.41782
 Alpha  occ. eigenvalues --   -0.39954  -0.36946  -0.36072  -0.34524  -0.33858
 Alpha  occ. eigenvalues --   -0.30795
 Alpha virt. eigenvalues --   -0.18261  -0.04481  -0.01387  -0.00189   0.01348
 Alpha virt. eigenvalues --    0.02228   0.03969   0.05037   0.06285   0.06721
 Alpha virt. eigenvalues --    0.08188   0.08741   0.09604   0.10048   0.11788

 Mulliken charges:
               1
     1  S    1.233275
     2  C    0.071432
     3  C    0.214995
     4  H    0.125328
     5  O   -0.605749
     6  O   -0.604055
     7  O   -0.287173
     8  O   -0.344422
     9  H    0.196367
 Sum of Mulliken charges =  -0.00000

 Dipole moment (field-independent basis, Debye):
    X=              0.6565    Y=             -2.1667    Z=              3.9064  Tot=              4.5150
 Quadrupole moment (field-independent basis, Debye-Ang):
   XX=            -60.7575   YY=            -53.8269   ZZ=            -41.0746
   XY=             -2.1673   XZ=             -4.4074   YZ=             -0.6687

 Normal termination of Gaussian 16 at Fri Sep 22 17:09:45 2023.
