 Gaussian 16, Revision A.03,
 Gaussian 16:  ES64L-G16RevA.03 25-Dec-2016

 ------------------------------------------------------
 # b3lyp/6-31+g(d,p) scrf=(iefpcm,solvent=acetonitrile)
 ------------------------------------------------------

 --------------------
 tmpdir/M2_ref_64.gjf
 --------------------
 Symbolic Z-matrix:
 Charge =  0 Multiplicity = 1

                         Standard orientation:
 ---------------------------------------------------------------------
 Center     Atomic      Atomic             Coordinates (Angstroms)
 Number     Number       Type             X           Y           Z
 ---------------------------------------------------------------------
      1          6           0       -0.700057   -0.007316   -0.000655
      2          6           0        0.698271   -0.007499   -0.000560
      3          1           0        1.255301    0.922939    0.004486
      4          1           0       -1.207290   -0.882670    0.004865
      5          1           0       -1.237416    0.936139   -0.000948
      6          1           0        1.200120   -0.887517   -0.001112
 ---------------------------------------------------------------------

 SCF Done:  E(RB3LYP) =  -78.5888579387     A.U. after    9 cycles

 The electronic state is 1-A.
 Alpha  occ. eigenvalues --  -10.19595 -10.19537  -0.75833  -0.59926  -0.48018
 Alpha  occ. eigenvalues --   -0.41395  -0.37821  -0.27088
 Alpha virt. eigenvalues --   -0.02237   0.02539   0.03704   0.05218   0.06701
 Alpha virt. eigenvalues --    0.08822   0.09085   0.12408   0.16010   0.18263
 Alpha virt. eigenvalues --    0.21957   0.25639   0.32524   0.35432   0.58389

 Mulliken charges:
               1
     1  C   -0.298455
     2  C   -0.298772
     3  H    0.150263
     4  H    0.149056
     5  H    0.149555
     6  H    0.148354
 Sum of Mulliken charges =  -0.00000

 Dipole moment (field-independent basis, Debye):
    X=              0.0063    Y=             -0.0415    Z=              0.0095  Tot=              0.0431
 Quadrupole moment (field-independent basis, Debye-Ang):
   XX=            -12.2557   YY=            -12.2283   ZZ=            -16.1864
   XY=              0.0297   XZ=             -0.0006   YZ=             -0.0003

 Normal termination of Gaussian 16 at Fri Sep 22 17:07:44 2023.
