 Gaussian 16, Revision A.03,
 Gaussian 16:  ES64L-G16RevA.03 25-Dec-2016

 ------------------------------------------------------
 # b3lyp/6-31+g(d,p) scrf=(iefpcm,solvent=acetonitrile)
 ------------------------------------------------------

 ---------------------
 tmpdir/M2_ref_111.gjf
 ---------------------
 Symbolic Z-matrix:
 Charge =  0 Multiplicity = 1

                         Standard orientation:
 ---------------------------------------------------------------------
 Center     Atomic      Atomic             Coordinates (Angstroms)
 Number     Number       Type             X           Y           Z
 ---------------------------------------------------------------------
      1          6           0        1.057413    1.540732   -0.026008
      2         16           0        0.367041   -0.195239    0.038261
      3          6           0       -1.282899   -0.017729   -0.656334
      4          1           0        1.993228    1.663276    0.490578
      5          1           0        0.272000    2.170965    0.392393
      6          1           0        1.160807    1.719976   -1.101717
      7          8           0        0.239491   -0.615809    1.451206
      8          8           0        1.170097   -1.037380   -0.881419
      9          8           0       -2.226837    0.220379    0.099889
     10          1           0       -1.407794   -0.105929   -1.656789
 ---------------------------------------------------------------------

 SCF Done:  E(RB3LYP) =  -702.406889833     A.U. after   13 cycles

 The electronic state is 1-A.
 Alpha  occ. eigenvalues --  -89.12259 -19.23389 -19.17638 -19.17608 -10.34384
 Alpha  occ. eigenvalues --  -10.24190  -8.15370  -6.11788  -6.11727  -6.11635
 Alpha  occ. eigenvalues --   -1.13191  -1.10192  -1.02305  -0.80018  -0.73056
 Alpha  occ. eigenvalues --   -0.62923  -0.55245  -0.51276  -0.50899  -0.48361
 Alpha  occ. eigenvalues --   -0.45567  -0.44581  -0.43880  -0.38292  -0.34962
 Alpha  occ. eigenvalues --   -0.34493  -0.32907  -0.30090
 Alpha virt. eigenvalues --   -0.12400  -0.00245   0.01784   0.02247   0.03267
 Alpha virt. eigenvalues --    0.04058   0.04763   0.05971   0.06784   0.07677
 Alpha virt. eigenvalues --    0.07974   0.08519   0.10117   0.10863   0.11663

 Mulliken charges:
               1
     1  C   -0.492000
     2  S    0.989956
     3  C    0.136691
     4  H    0.238344
     5  H    0.220359
     6  H    0.220320
     7  O   -0.612336
     8  O   -0.610549
     9  O   -0.307768
    10  H    0.216982
 Sum of Mulliken charges =  -0.00000

 Dipole moment (field-independent basis, Debye):
    X=             -0.1322    Y=              4.9555    Z=             -3.5302  Tot=              6.0858
 Quadrupole moment (field-independent basis, Debye-Ang):
   XX=            -46.0119   YY=            -40.3513   ZZ=            -45.2980
   XY=              6.7791   XZ=              5.4863   YZ=             -0.0469

 Normal termination of Gaussian 16 at Fri Sep 22 17:09:05 2023.
