 Gaussian 16, Revision A.03,
 Gaussian 16:  ES64L-G16RevA.03 25-Dec-2016

 ------------------------------------------------------
 # b3lyp/6-31+g(d,p) scrf=(iefpcm,solvent=acetonitrile)
 ------------------------------------------------------

 ---------------------
 tmpdir/M2_ref_123.gjf
 ---------------------
 Symbolic Z-matrix:
 Charge =  0 Multiplicity = 1

                         Standard orientation:
 ---------------------------------------------------------------------
 Center     Atomic      Atomic             Coordinates (Angstroms)
 Number     Number       Type             X           Y           Z
 ---------------------------------------------------------------------
      1          6           0        0.696201   -0.014591    0.001721
      2          6           0       -0.702020   -0.007044   -0.001856
      3          1           0       -1.245732    0.931213    0.008441
      4          1           0        1.246346    0.966084   -0.007874
      5          1           0        1.226697   -0.876485    0.002320
      6          1           0       -1.192394   -0.891005   -0.002078
 ---------------------------------------------------------------------

 SCF Done:  E(RB3LYP) =  -78.5876251314     A.U. after    9 cycles

 The electronic state is 1-A.
 Alpha  occ. eigenvalues --  -10.19945 -10.19590  -0.75757  -0.59719  -0.47899
 Alpha  occ. eigenvalues --   -0.41346  -0.37531  -0.27114
 Alpha virt. eigenvalues --   -0.02244   0.02523   0.03678   0.05166   0.06688
 Alpha virt. eigenvalues --    0.08781   0.09059   0.12396   0.15912   0.17669
 Alpha virt. eigenvalues --    0.21909   0.25133   0.32513   0.35317   0.58368

 Mulliken charges:
               1
     1  C   -0.297312
     2  C   -0.300323
     3  H    0.151918
     4  H    0.146532
     5  H    0.150816
     6  H    0.148370
 Sum of Mulliken charges =  -0.00000

 Dipole moment (field-independent basis, Debye):
    X=             -0.0119    Y=             -0.0538    Z=              0.0012  Tot=              0.0551
 Quadrupole moment (field-independent basis, Debye-Ang):
   XX=            -12.3052   YY=            -12.2188   ZZ=            -16.2290
   XY=             -0.0936   XZ=             -0.0179   YZ=              0.0004

 Normal termination of Gaussian 16 at Fri Sep 22 17:08:41 2023.
