 Gaussian 16, Revision A.03,
 Gaussian 16:  ES64L-G16RevA.03 25-Dec-2016

 ------------------------------------------------------
 # b3lyp/6-31+g(d,p) scrf=(iefpcm,solvent=acetonitrile)
 ------------------------------------------------------

 ---------------------
 tmpdir/M2_ref_139.gjf
 ---------------------
 Symbolic Z-matrix:
 Charge =  0 Multiplicity = 1

                         Standard orientation:
 ---------------------------------------------------------------------
 Center     Atomic      Atomic             Coordinates (Angstroms)
 Number     Number       Type             X           Y           Z
 ---------------------------------------------------------------------
      1          6           0        0.697578    0.505477   -0.001175
      2          6           0       -0.701271    0.504401   -0.000343
      3          1           0       -1.248520    1.441597    0.004721
      4          8           0        1.323010   -0.557611    0.000703
      5          1           0        1.236024    1.448151    0.000119
      6          8           0       -1.318679   -0.561015   -0.000169
 ---------------------------------------------------------------------

 SCF Done:  E(RB3LYP) =  -227.826226096     A.U. after   10 cycles

 The electronic state is 1-A.
 Alpha  occ. eigenvalues --  -19.20224 -19.20203 -10.30671 -10.30613  -1.10108
 Alpha  occ. eigenvalues --   -1.06373  -0.75906  -0.58062  -0.55914  -0.48799
 Alpha  occ. eigenvalues --   -0.46115  -0.45755  -0.39046  -0.31968  -0.29314
 Alpha virt. eigenvalues --   -0.14548   0.01286   0.02170   0.03503   0.03839
 Alpha virt. eigenvalues --    0.06085   0.07351   0.08875   0.10201   0.15331
 Alpha virt. eigenvalues --    0.15880   0.19876   0.20258   0.21597   0.24053

 Mulliken charges:
               1
     1  C    0.223432
     2  C    0.223423
     3  H    0.167650
     4  O   -0.391753
     5  H    0.167230
     6  O   -0.389982
 Sum of Mulliken charges =   0.00000

 Dipole moment (field-independent basis, Debye):
    X=             -0.0279    Y=              4.9614    Z=             -0.0010  Tot=              4.9615
 Quadrupole moment (field-independent basis, Debye-Ang):
   XX=            -27.0546   YY=            -21.5666   ZZ=            -21.2964
   XY=             -0.0214   XZ=             -0.0057   YZ=              0.0020

 Normal termination of Gaussian 16 at Fri Sep 22 17:09:17 2023.
