 Gaussian 16, Revision A.03,
 Gaussian 16:  ES64L-G16RevA.03 25-Dec-2016

 ------------------------------------------------------
 # b3lyp/6-31+g(d,p) scrf=(iefpcm,solvent=acetonitrile)
 ------------------------------------------------------

 --------------------
 tmpdir/M2_ref_79.gjf
 --------------------
 Symbolic Z-matrix:
 Charge =  0 Multiplicity = 1

                         Standard orientation:
 ---------------------------------------------------------------------
 Center     Atomic      Atomic             Coordinates (Angstroms)
 Number     Number       Type             X           Y           Z
 ---------------------------------------------------------------------
      1          6           0        0.700338   -0.008023   -0.000281
      2          6           0       -0.699603   -0.008291    0.000234
      3          1           0       -1.244914    0.930676    0.001021
      4          1           0        1.206069   -0.884260    0.001946
      5          1           0        1.242736    0.932746   -0.000883
      6          1           0       -1.208297   -0.881276   -0.001807
 ---------------------------------------------------------------------

 SCF Done:  E(RB3LYP) =  -78.5883916301     A.U. after    9 cycles

 The electronic state is 1-A.
 Alpha  occ. eigenvalues --  -10.19615 -10.19556  -0.75806  -0.59960  -0.48022
 Alpha  occ. eigenvalues --   -0.41371  -0.37848  -0.27068
 Alpha virt. eigenvalues --   -0.02267   0.02536   0.03702   0.05221   0.06703
 Alpha virt. eigenvalues --    0.08823   0.09083   0.12398   0.16007   0.18242
 Alpha virt. eigenvalues --    0.22004   0.25627   0.32444   0.35439   0.58421

 Mulliken charges:
               1
     1  C   -0.298613
     2  C   -0.298692
     3  H    0.149700
     4  H    0.148865
     5  H    0.149959
     6  H    0.148782
 Sum of Mulliken charges =  -0.00000

 Dipole moment (field-independent basis, Debye):
    X=             -0.0025    Y=             -0.0406    Z=              0.0004  Tot=              0.0407
 Quadrupole moment (field-independent basis, Debye-Ang):
   XX=            -12.2529   YY=            -12.2284   ZZ=            -16.1921
   XY=              0.0021   XZ=              0.0027   YZ=             -0.0000

 Normal termination of Gaussian 16 at Fri Sep 22 17:08:17 2023.
