 Gaussian 16, Revision A.03,
 Gaussian 16:  ES64L-G16RevA.03 25-Dec-2016

 ------------------------------------------------------
 # b3lyp/6-31+g(d,p) scrf=(iefpcm,solvent=acetonitrile)
 ------------------------------------------------------

 --------------------
 tmpdir/M2_ref_50.gjf
 --------------------
 Symbolic Z-matrix:
 Charge =  0 Multiplicity = 1

                         Standard orientation:
 ---------------------------------------------------------------------
 Center     Atomic      Atomic             Coordinates (Angstroms)
 Number     Number       Type             X           Y           Z
 ---------------------------------------------------------------------
      1          7           0       -1.130662   -0.111025   -0.010021
      2          6           0        0.203059    0.426650   -0.041947
      3          1           0       -1.667929   -0.117170    0.908203
      4          1           0       -1.477842   -0.613891   -0.778789
      5          1           0        0.317174    1.430067   -0.122048
      6          8           0        1.190610   -0.310217    0.039307
 ---------------------------------------------------------------------

 SCF Done:  E(RB3LYP) =  -169.874297412     A.U. after   10 cycles

 The electronic state is 1-A.
 Alpha  occ. eigenvalues --  -19.17853 -14.34500 -10.32051  -1.06528  -0.88312
 Alpha  occ. eigenvalues --   -0.64083  -0.52217  -0.52125  -0.46791  -0.39375
 Alpha  occ. eigenvalues --   -0.29947  -0.26158
 Alpha virt. eigenvalues --   -0.05839   0.00829   0.03644   0.04690   0.05815
 Alpha virt. eigenvalues --    0.10485   0.11888   0.13934   0.15955   0.20030
 Alpha virt. eigenvalues --    0.21971   0.22925   0.25021   0.25250   0.27346

 Mulliken charges:
               1
     1  N   -0.708379
     2  C    0.296237
     3  H    0.342065
     4  H    0.337959
     5  H    0.154913
     6  O   -0.422794
 Sum of Mulliken charges =   0.00000

 Dipole moment (field-independent basis, Debye):
    X=             -3.1244    Y=              1.4641    Z=              0.0332  Tot=              3.4506
 Quadrupole moment (field-independent basis, Debye-Ang):
   XX=            -19.9455   YY=            -18.1468   ZZ=            -15.5863
   XY=              3.1670   XZ=             -0.9925   YZ=              1.0176

 Normal termination of Gaussian 16 at Fri Sep 22 17:08:14 2023.
