 Gaussian 16, Revision A.03,
 Gaussian 16:  ES64L-G16RevA.03 25-Dec-2016

 ------------------------------------------------------
 # b3lyp/6-31+g(d,p) scrf=(iefpcm,solvent=acetonitrile)
 ------------------------------------------------------

 ---------------------
 tmpdir/M2_ref_100.gjf
 ---------------------
 Symbolic Z-matrix:
 Charge =  0 Multiplicity = 2

                         Standard orientation:
 ---------------------------------------------------------------------
 Center     Atomic      Atomic             Coordinates (Angstroms)
 Number     Number       Type             X           Y           Z
 ---------------------------------------------------------------------
      1          6           0        0.804693   -0.001311   -0.006710
      2          6           0       -0.681580    0.007602   -0.015439
      3          1           0       -1.085177    1.009669   -0.164094
      4          1           0        1.275568    0.954703    0.043684
      5          1           0        1.327752   -0.949051    0.037637
      6          1           0       -1.087495   -0.684041   -0.761651
      7          1           0       -1.169324   -0.369026    0.977316
 ---------------------------------------------------------------------

 SCF Done:  E(UB3LYP) =  -79.1667182230     A.U. after   12 cycles

 The electronic state is 2-A.
 Alpha  occ. eigenvalues --  -10.19617 -10.18869  -0.75819  -0.60819  -0.46233
 Alpha  occ. eigenvalues --   -0.40236  -0.38912  -0.36430  -0.20537
 Alpha virt. eigenvalues --    0.02046   0.03206   0.05302   0.05890   0.08336
 Alpha virt. eigenvalues --    0.08963   0.09875   0.14777   0.16565   0.19173
 Alpha virt. eigenvalues --    0.20951   0.27458   0.29275   0.30748   0.60703

  Beta  occ. eigenvalues --  -10.18963 -10.18292  -0.74081  -0.58572  -0.45560
  Beta  occ. eigenvalues --   -0.38646  -0.38087  -0.35965
  Beta virt. eigenvalues --   -0.06069   0.02191   0.03417   0.05308   0.06300
  Beta virt. eigenvalues --    0.08308   0.08942   0.11211   0.15056   0.17345
  Beta virt. eigenvalues --    0.19946   0.22206   0.28441   0.29739   0.31222

 Mulliken charges and spin densities:
               1          2
     1  C   -0.253119   1.123921
     2  C   -0.516692  -0.144771
     3  H    0.157656   0.003942
     4  H    0.151493  -0.049699
     5  H    0.149824  -0.048424
     6  H    0.161788   0.036923
     7  H    0.149049   0.078108
 Sum of Mulliken charges =  -0.00000   1.00000

 Dipole moment (field-independent basis, Debye):
    X=             -0.3509    Y=             -0.0080    Z=              0.0731  Tot=              0.3586
 Quadrupole moment (field-independent basis, Debye-Ang):
   XX=            -14.8129   YY=            -13.4941   ZZ=            -15.8440
   XY=             -0.0302   XZ=              0.1273   YZ=              0.0711

 Normal termination of Gaussian 16 at Fri Sep 22 17:08:55 2023.
