 Gaussian 16, Revision A.03,
 Gaussian 16:  ES64L-G16RevA.03 25-Dec-2016

 ------------------------------------------------------
 # b3lyp/6-31+g(d,p) scrf=(iefpcm,solvent=acetonitrile)
 ------------------------------------------------------

 ---------------------
 tmpdir/M2_ref_122.gjf
 ---------------------
 Symbolic Z-matrix:
 Charge =  0 Multiplicity = 1

                         Standard orientation:
 ---------------------------------------------------------------------
 Center     Atomic      Atomic             Coordinates (Angstroms)
 Number     Number       Type             X           Y           Z
 ---------------------------------------------------------------------
      1          6           0        1.402935   -0.481115    0.001904
      2          6           0        0.587487    0.654720   -0.001779
      3          6           0       -0.798653    0.485368   -0.000890
      4          1           0        2.519711   -0.350070   -0.008650
      5          1           0        1.017217   -1.416801    0.003418
      6          1           0        1.027238    1.645975    0.007525
      7          8           0       -1.283639   -0.648701   -0.000087
      8          1           0       -1.445669    1.356662    0.002990
 ---------------------------------------------------------------------

 SCF Done:  E(RB3LYP) =  -191.918221750     A.U. after   12 cycles

 The electronic state is 1-A.
 Alpha  occ. eigenvalues --  -19.15771 -10.28042 -10.22780 -10.21229  -1.05028
 Alpha  occ. eigenvalues --   -0.79918  -0.67750  -0.55679  -0.52259  -0.46240
 Alpha  occ. eigenvalues --   -0.41894  -0.41068  -0.39844  -0.28558  -0.27370
 Alpha virt. eigenvalues --   -0.09718   0.01359   0.03113   0.03914   0.04155
 Alpha virt. eigenvalues --    0.06273   0.06521   0.07440   0.09642   0.09803
 Alpha virt. eigenvalues --    0.12185   0.12361   0.14144   0.16449   0.19739

 Mulliken charges:
               1
     1  C   -0.276948
     2  C    0.065263
     3  C    0.069552
     4  H    0.169438
     5  H    0.178429
     6  H    0.160510
     7  O   -0.504328
     8  H    0.138083
 Sum of Mulliken charges =  -0.00000

 Dipole moment (field-independent basis, Debye):
    X=              2.9228    Y=              2.3876    Z=              0.0041  Tot=              3.7741
 Quadrupole moment (field-independent basis, Debye-Ang):
   XX=            -24.1781   YY=            -22.3362   ZZ=            -25.2185
   XY=             -4.0128   XZ=             -0.0092   YZ=              0.0135

 Normal termination of Gaussian 16 at Fri Sep 22 17:09:12 2023.
