 Gaussian 16, Revision A.03,
 Gaussian 16:  ES64L-G16RevA.03 25-Dec-2016

 ------------------------------------------------------
 # b3lyp/6-31+g(d,p) scrf=(iefpcm,solvent=acetonitrile)
 ------------------------------------------------------

 -------------------
 tmpdir/M2_ref_0.gjf
 -------------------
 Symbolic Z-matrix:
 Charge =  0 Multiplicity = 2

                         Standard orientation:
 ---------------------------------------------------------------------
 Center     Atomic      Atomic             Coordinates (Angstroms)
 Number     Number       Type             X           Y           Z
 ---------------------------------------------------------------------
      1          6           0        1.191671   -0.152247   -0.003045
      2          6           0       -0.160641    0.431002   -0.059737
      3          1           0        2.056922    0.338307    0.426451
      4          1           0        1.277957   -1.170862   -0.338611
      5          1           0       -0.278693    1.521799   -0.167177
      6          8           0       -1.155295   -0.295222    0.057003
 ---------------------------------------------------------------------

 SCF Done:  E(UB3LYP) =  -153.186230284     A.U. after   13 cycles

 The electronic state is 2-A.
 Alpha  occ. eigenvalues --  -19.17617 -10.29323 -10.23683  -1.06155  -0.75716
 Alpha  occ. eigenvalues --   -0.59411  -0.50011  -0.45930  -0.44261  -0.40580
 Alpha  occ. eigenvalues --   -0.28563  -0.26459
 Alpha virt. eigenvalues --   -0.02992   0.02029   0.03230   0.04596   0.06112
 Alpha virt. eigenvalues --    0.08068   0.08736   0.10388   0.14885   0.17613
 Alpha virt. eigenvalues --    0.18688   0.20830   0.23493   0.24390   0.24733

  Beta  occ. eigenvalues --  -19.16971 -10.29464 -10.22507  -1.04953  -0.72837
  Beta  occ. eigenvalues --   -0.58595  -0.49307  -0.45128  -0.42958  -0.38382
  Beta  occ. eigenvalues --   -0.27675
  Beta virt. eigenvalues --   -0.13229  -0.00557   0.02218   0.03333   0.04702
  Beta virt. eigenvalues --    0.06579   0.08239   0.08860   0.11363   0.15064
  Beta virt. eigenvalues --    0.18117   0.19150   0.21440   0.24059   0.24873

 Mulliken charges and spin densities:
               1          2
     1  C   -0.205546   0.953984
     2  C    0.141524  -0.100917
     3  H    0.185925  -0.041510
     4  H    0.182415  -0.041452
     5  H    0.145254   0.001015
     6  O   -0.449571   0.228880
 Sum of Mulliken charges =  -0.00000   1.00000

 Dipole moment (field-independent basis, Debye):
    X=              3.5222    Y=              1.5128    Z=             -0.2097  Tot=              3.8390
 Quadrupole moment (field-independent basis, Debye-Ang):
   XX=            -19.5992   YY=            -16.8765   ZZ=            -18.3631
   XY=             -1.5175   XZ=              0.7474   YZ=              0.4966

 Normal termination of Gaussian 16 at Fri Sep 22 17:07:00 2023.
