 Gaussian 16, Revision A.03,
 Gaussian 16:  ES64L-G16RevA.03 25-Dec-2016

 ------------------------------------------------------
 # b3lyp/6-31+g(d,p) scrf=(iefpcm,solvent=acetonitrile)
 ------------------------------------------------------

 ---------------------
 tmpdir/M2_ref_131.gjf
 ---------------------
 Symbolic Z-matrix:
 Charge =  0 Multiplicity = 1

                         Standard orientation:
 ---------------------------------------------------------------------
 Center     Atomic      Atomic             Coordinates (Angstroms)
 Number     Number       Type             X           Y           Z
 ---------------------------------------------------------------------
      1          6           0        0.550695   -0.013117   -0.000519
      2          1           0        1.112931    0.915153    0.001053
      3          1           0        1.043327   -0.895821    0.001129
      4          8           0       -0.682554    0.007422    0.000116
 ---------------------------------------------------------------------

 SCF Done:  E(RB3LYP) =  -114.510718843     A.U. after    9 cycles

 The electronic state is 1-A.
 Alpha  occ. eigenvalues --  -19.18392 -10.28857  -1.06103  -0.65758  -0.51363
 Alpha  occ. eigenvalues --   -0.46048  -0.40371  -0.28336
 Alpha virt. eigenvalues --   -0.06551   0.02133   0.04254   0.05290   0.07329
 Alpha virt. eigenvalues --    0.16984   0.19503   0.20760   0.21407   0.25941
 Alpha virt. eigenvalues --    0.27401   0.35520   0.63227   0.65941   0.72303

 Mulliken charges:
               1
     1  C    0.126441
     2  H    0.141203
     3  H    0.147258
     4  O   -0.414902
 Sum of Mulliken charges =  -0.00000

 Dipole moment (field-independent basis, Debye):
    X=              3.2691    Y=             -0.0976    Z=              0.0004  Tot=              3.2705
 Quadrupole moment (field-independent basis, Debye-Ang):
   XX=            -12.2706   YY=            -11.4894   ZZ=            -11.6995
   XY=             -0.0276   XZ=              0.0011   YZ=              0.0001

 Normal termination of Gaussian 16 at Fri Sep 22 17:08:59 2023.
