 Gaussian 16, Revision A.03,
 Gaussian 16:  ES64L-G16RevA.03 25-Dec-2016

 ------------------------------------------------------
 # b3lyp/6-31+g(d,p) scrf=(iefpcm,solvent=acetonitrile)
 ------------------------------------------------------

 --------------------
 tmpdir/M2_ref_54.gjf
 --------------------
 Symbolic Z-matrix:
 Charge =  0 Multiplicity = 1

                         Standard orientation:
 ---------------------------------------------------------------------
 Center     Atomic      Atomic             Coordinates (Angstroms)
 Number     Number       Type             X           Y           Z
 ---------------------------------------------------------------------
      1          6           0       -1.122565    0.256930    0.355039
      2          7           0        0.065962    0.928113   -0.098659
      3          6           0        1.304261    0.270731   -0.058717
      4          1           0       -1.546268    0.560116    1.223853
      5          8           0       -1.627990   -0.659404   -0.300485
      6          1           0       -0.024282    1.847730   -0.625905
      7          1           0        2.204467    0.838407   -0.133539
      8          8           0        1.354762   -0.954222    0.106519
 ---------------------------------------------------------------------

 SCF Done:  E(RB3LYP) =  -283.215669625     A.U. after   12 cycles

 The electronic state is 1-A.
 Alpha  occ. eigenvalues --  -19.19469 -19.15895 -14.39660 -10.33722 -10.32256
 Alpha  occ. eigenvalues --   -1.08548  -1.05640  -0.93036  -0.69708  -0.61193
 Alpha  occ. eigenvalues --   -0.57366  -0.52494  -0.48578  -0.45299  -0.41591
 Alpha  occ. eigenvalues --   -0.40665  -0.31983  -0.29370  -0.28638
 Alpha virt. eigenvalues --   -0.07698  -0.02897   0.01226   0.03168   0.03662
 Alpha virt. eigenvalues --    0.03978   0.06043   0.07554   0.08417   0.10779
 Alpha virt. eigenvalues --    0.12880   0.14772   0.17628   0.18757   0.20364

 Mulliken charges:
               1
     1  C    0.325661
     2  N   -0.416489
     3  C    0.312047
     4  H    0.175343
     5  O   -0.388985
     6  H    0.364838
     7  H    0.166391
     8  O   -0.538806
 Sum of Mulliken charges =  -0.00000

 Dipole moment (field-independent basis, Debye):
    X=              0.1431    Y=              6.7122    Z=              0.6608  Tot=              6.7461
 Quadrupole moment (field-independent basis, Debye-Ang):
   XX=            -30.1664   YY=            -28.3755   ZZ=            -27.4872
   XY=              1.1099   XZ=             -3.5119   YZ=             -1.9124

 Normal termination of Gaussian 16 at Fri Sep 22 17:07:50 2023.
