 Gaussian 16, Revision A.03,
 Gaussian 16:  ES64L-G16RevA.03 25-Dec-2016

 ------------------------------------------------------
 # b3lyp/6-31+g(d,p) scrf=(iefpcm,solvent=acetonitrile)
 ------------------------------------------------------

 --------------------
 tmpdir/M2_ref_78.gjf
 --------------------
 Symbolic Z-matrix:
 Charge =  0 Multiplicity = 1

                         Standard orientation:
 ---------------------------------------------------------------------
 Center     Atomic      Atomic             Coordinates (Angstroms)
 Number     Number       Type             X           Y           Z
 ---------------------------------------------------------------------
      1          6           0       -0.700186    0.508647   -0.002773
      2          6           0        0.695585    0.507659    0.001708
      3          1           0        1.232978    1.451170    0.005971
      4          8           0       -1.310560   -0.564784    0.001582
      5          1           0       -1.252320    1.441489   -0.002549
      6          8           0        1.316428   -0.559028   -0.001211
 ---------------------------------------------------------------------

 SCF Done:  E(RB3LYP) =  -227.825332826     A.U. after   11 cycles

 The electronic state is 1-A.
 Alpha  occ. eigenvalues --  -19.20209 -19.20183 -10.30656 -10.30597  -1.10041
 Alpha  occ. eigenvalues --   -1.06211  -0.75976  -0.58079  -0.55927  -0.48765
 Alpha  occ. eigenvalues --   -0.46089  -0.45697  -0.38936  -0.31875  -0.29378
 Alpha virt. eigenvalues --   -0.14611   0.01296   0.02140   0.03497   0.03843
 Alpha virt. eigenvalues --    0.06081   0.07356   0.08864   0.10218   0.15337
 Alpha virt. eigenvalues --    0.15848   0.19861   0.20309   0.21602   0.24027

 Mulliken charges:
               1
     1  C    0.222780
     2  C    0.222827
     3  H    0.167402
     4  O   -0.390287
     5  H    0.169247
     6  O   -0.391968
 Sum of Mulliken charges =  -0.00000

 Dipole moment (field-independent basis, Debye):
    X=             -0.0381    Y=              4.9923    Z=             -0.0007  Tot=              4.9924
 Quadrupole moment (field-independent basis, Debye-Ang):
   XX=            -27.0117   YY=            -21.5310   ZZ=            -21.3012
   XY=             -0.0537   XZ=              0.0139   YZ=              0.0014

 Normal termination of Gaussian 16 at Fri Sep 22 17:08:10 2023.
