 Gaussian 16, Revision A.03,
 Gaussian 16:  ES64L-G16RevA.03 25-Dec-2016

 ------------------------------------------------------
 # b3lyp/6-31+g(d,p) scrf=(iefpcm,solvent=acetonitrile)
 ------------------------------------------------------

 --------------------
 tmpdir/M2_ref_14.gjf
 --------------------
 Symbolic Z-matrix:
 Charge =  0 Multiplicity = 1

                         Standard orientation:
 ---------------------------------------------------------------------
 Center     Atomic      Atomic             Coordinates (Angstroms)
 Number     Number       Type             X           Y           Z
 ---------------------------------------------------------------------
      1          6           0       -1.409689   -0.482257   -0.011351
      2          6           0       -0.594946    0.649214   -0.001345
      3          6           0        0.791626    0.485393   -0.001007
      4          1           0       -1.012641   -1.413296    0.002270
      5          1           0       -2.534484   -0.374416    0.046082
      6          1           0       -1.042714    1.637368    0.008922
      7          8           0        1.304740   -0.641057    0.003294
      8          1           0        1.429976    1.364700   -0.001413
 ---------------------------------------------------------------------

 SCF Done:  E(RB3LYP) =  -191.918928220     A.U. after   12 cycles

 The electronic state is 1-A.
 Alpha  occ. eigenvalues --  -19.15848 -10.28140 -10.22866 -10.21288  -1.04799
 Alpha  occ. eigenvalues --   -0.80092  -0.67779  -0.55675  -0.52239  -0.46180
 Alpha  occ. eigenvalues --   -0.42000  -0.40961  -0.39762  -0.28691  -0.27410
 Alpha virt. eigenvalues --   -0.09775   0.01320   0.03111   0.03908   0.04143
 Alpha virt. eigenvalues --    0.06247   0.06522   0.07448   0.09661   0.09778
 Alpha virt. eigenvalues --    0.12177   0.12365   0.14093   0.16429   0.19504

 Mulliken charges:
               1
     1  C   -0.278401
     2  C    0.071201
     3  C    0.065899
     4  H    0.177831
     5  H    0.170981
     6  H    0.161530
     7  O   -0.506734
     8  H    0.137693
 Sum of Mulliken charges =   0.00000

 Dipole moment (field-independent basis, Debye):
    X=             -3.0385    Y=              2.3703    Z=              0.0464  Tot=              3.8539
 Quadrupole moment (field-independent basis, Debye-Ang):
   XX=            -24.2422   YY=            -22.3532   ZZ=            -25.2178
   XY=              4.0107   XZ=             -0.1465   YZ=              0.0019

 Normal termination of Gaussian 16 at Fri Sep 22 17:07:22 2023.
