 Gaussian 16, Revision A.03,
 Gaussian 16:  ES64L-G16RevA.03 25-Dec-2016

 ------------------------------------------------------
 # b3lyp/6-31+g(d,p) scrf=(iefpcm,solvent=acetonitrile)
 ------------------------------------------------------

 --------------------
 tmpdir/M2_ref_55.gjf
 --------------------
 Symbolic Z-matrix:
 Charge =  0 Multiplicity = 1

                         Standard orientation:
 ---------------------------------------------------------------------
 Center     Atomic      Atomic             Coordinates (Angstroms)
 Number     Number       Type             X           Y           Z
 ---------------------------------------------------------------------
      1          6           0       -0.697178    0.482468   -0.000833
      2          6           0        0.702287    0.486531   -0.000637
      3          1           0       -1.238731    1.474829    0.011348
      4          6           0       -1.402636   -0.727559   -0.000933
      5          6           0        1.398673   -0.726055    0.001617
      6          1           0        1.231853    1.432864   -0.006630
 ---------------------------------------------------------------------

 SCF Done:  E(RB3LYP) =  -153.323263982     A.U. after   14 cycles

 The electronic state is 1-A.
 Alpha  occ. eigenvalues --  -10.29061 -10.29053 -10.24465 -10.24076  -0.85581
 Alpha  occ. eigenvalues --   -0.72717  -0.61412  -0.49887  -0.48543  -0.36829
 Alpha  occ. eigenvalues --   -0.33643  -0.31496  -0.25334
 Alpha virt. eigenvalues --   -0.14569  -0.11520  -0.08345   0.02175   0.03704
 Alpha virt. eigenvalues --    0.04174   0.04465   0.05782   0.06089   0.08839
 Alpha virt. eigenvalues --    0.09199   0.09342   0.10619   0.12140   0.12848

 Mulliken charges:
               1
     1  C    0.195570
     2  C    0.174114
     3  H    0.239767
     4  C   -0.430494
     5  C   -0.412981
     6  H    0.234023
 Sum of Mulliken charges =  -0.00000

 Dipole moment (field-independent basis, Debye):
    X=              0.0305    Y=              4.8142    Z=              0.0061  Tot=              4.8143
 Quadrupole moment (field-independent basis, Debye-Ang):
   XX=            -26.3878   YY=            -24.3129   ZZ=            -26.9858
   XY=             -0.0767   XZ=             -0.0631   YZ=              0.0135

 Normal termination of Gaussian 16 at Fri Sep 22 17:08:06 2023.
