 Gaussian 16, Revision A.03,
 Gaussian 16:  ES64L-G16RevA.03 25-Dec-2016

 ------------------------------------------------------
 # b3lyp/6-31+g(d,p) scrf=(iefpcm,solvent=acetonitrile)
 ------------------------------------------------------

 --------------------
 tmpdir/M2_ref_19.gjf
 --------------------
 Symbolic Z-matrix:
 Charge =  0 Multiplicity = 1

                         Standard orientation:
 ---------------------------------------------------------------------
 Center     Atomic      Atomic             Coordinates (Angstroms)
 Number     Number       Type             X           Y           Z
 ---------------------------------------------------------------------
      1          6           0        0.794401    0.477585   -0.013273
      2          6           0       -0.593470    0.648119   -0.000636
      3          6           0       -1.414607   -0.478902    0.001037
      4          8           0        1.297158   -0.644043    0.002721
      5          1           0        1.451554    1.396899    0.042433
      6          1           0       -1.033115    1.641783    0.003872
      7          1           0       -1.020178   -1.417042    0.004612
      8          1           0       -2.493472   -0.350105    0.004542
 ---------------------------------------------------------------------

 SCF Done:  E(RB3LYP) =  -191.920707005     A.U. after   12 cycles

 The electronic state is 1-A.
 Alpha  occ. eigenvalues --  -19.15991 -10.28475 -10.22472 -10.21261  -1.05324
 Alpha  occ. eigenvalues --   -0.80085  -0.67693  -0.55176  -0.52233  -0.46294
 Alpha  occ. eigenvalues --   -0.42217  -0.41211  -0.39950  -0.28712  -0.27399
 Alpha virt. eigenvalues --   -0.09668   0.01379   0.03011   0.03931   0.04183
 Alpha virt. eigenvalues --    0.06176   0.06535   0.07516   0.09647   0.09778
 Alpha virt. eigenvalues --    0.12159   0.12368   0.14227   0.16426   0.19813

 Mulliken charges:
               1
     1  C    0.064676
     2  C    0.074331
     3  C   -0.284323
     4  O   -0.496414
     5  H    0.132481
     6  H    0.160887
     7  H    0.177708
     8  H    0.170654
 Sum of Mulliken charges =  -0.00000

 Dipole moment (field-independent basis, Debye):
    X=             -3.0176    Y=              2.2907    Z=              0.0066  Tot=              3.7886
 Quadrupole moment (field-independent basis, Debye-Ang):
   XX=            -24.2178   YY=            -22.4283   ZZ=            -25.2131
   XY=              3.8646   XZ=             -0.0111   YZ=              0.0182

 Normal termination of Gaussian 16 at Fri Sep 22 17:07:11 2023.
