 Gaussian 16, Revision A.03,
 Gaussian 16:  ES64L-G16RevA.03 25-Dec-2016

 ------------------------------------------------------
 # b3lyp/6-31+g(d,p) scrf=(iefpcm,solvent=acetonitrile)
 ------------------------------------------------------

 --------------------
 tmpdir/M2_ref_61.gjf
 --------------------
 Symbolic Z-matrix:
 Charge =  0 Multiplicity = 1

                         Standard orientation:
 ---------------------------------------------------------------------
 Center     Atomic      Atomic             Coordinates (Angstroms)
 Number     Number       Type             X           Y           Z
 ---------------------------------------------------------------------
      1          6           0        0.550085   -0.012362   -0.000588
      2          1           0        1.122478    0.908717    0.001201
      3          1           0        1.037263   -0.900584    0.001270
      4          8           0       -0.682531    0.008255    0.000132
 ---------------------------------------------------------------------

 SCF Done:  E(RB3LYP) =  -114.511009361     A.U. after    9 cycles

 The electronic state is 1-A.
 Alpha  occ. eigenvalues --  -19.18399 -10.28861  -1.06138  -0.65732  -0.51331
 Alpha  occ. eigenvalues --   -0.46073  -0.40392  -0.28336
 Alpha virt. eigenvalues --   -0.06536   0.02134   0.04245   0.05293   0.07329
 Alpha virt. eigenvalues --    0.17009   0.19497   0.20774   0.21408   0.25934
 Alpha virt. eigenvalues --    0.27357   0.35543   0.63224   0.66008   0.72257

 Mulliken charges:
               1
     1  C    0.126314
     2  H    0.141837
     3  H    0.146418
     4  O   -0.414569
 Sum of Mulliken charges =  -0.00000

 Dipole moment (field-independent basis, Debye):
    X=              3.2666    Y=             -0.0967    Z=              0.0005  Tot=              3.2680
 Quadrupole moment (field-independent basis, Debye-Ang):
   XX=            -12.2650   YY=            -11.4968   ZZ=            -11.6984
   XY=             -0.0029   XZ=              0.0013   YZ=              0.0001

 Normal termination of Gaussian 16 at Fri Sep 22 17:07:37 2023.
