 Gaussian 16, Revision A.03,
 Gaussian 16:  ES64L-G16RevA.03 25-Dec-2016

 ------------------------------------------------------
 # b3lyp/6-31+g(d,p) scrf=(iefpcm,solvent=acetonitrile)
 ------------------------------------------------------

 --------------------
 tmpdir/M2_ref_68.gjf
 --------------------
 Symbolic Z-matrix:
 Charge =  0 Multiplicity = 1

                         Standard orientation:
 ---------------------------------------------------------------------
 Center     Atomic      Atomic             Coordinates (Angstroms)
 Number     Number       Type             X           Y           Z
 ---------------------------------------------------------------------
      1          6           0        0.696438   -0.015528   -0.001667
      2          6           0       -0.704168   -0.003958    0.001124
      3          1           0       -1.234376    0.941507   -0.003269
      4          1           0        1.288968    0.947320    0.004766
      5          1           0        1.201989   -0.893419    0.001518
      6          1           0       -1.210202   -0.878490    0.000238
 ---------------------------------------------------------------------

 SCF Done:  E(RB3LYP) =  -78.5872460286     A.U. after    9 cycles

 The electronic state is 1-A.
 Alpha  occ. eigenvalues --  -10.20057 -10.19641  -0.75697  -0.59741  -0.47781
 Alpha  occ. eigenvalues --   -0.41337  -0.37558  -0.27090
 Alpha virt. eigenvalues --   -0.02297   0.02515   0.03652   0.05174   0.06689
 Alpha virt. eigenvalues --    0.08789   0.09046   0.12377   0.15905   0.17637
 Alpha virt. eigenvalues --    0.21756   0.25119   0.32405   0.35252   0.58431

 Mulliken charges:
               1
     1  C   -0.297735
     2  C   -0.301179
     3  H    0.150928
     4  H    0.148546
     5  H    0.149789
     6  H    0.149651
 Sum of Mulliken charges =  -0.00000

 Dipole moment (field-independent basis, Debye):
    X=             -0.0073    Y=             -0.0597    Z=              0.0041  Tot=              0.0603
 Quadrupole moment (field-independent basis, Debye-Ang):
   XX=            -12.2613   YY=            -12.2447   ZZ=            -16.2455
   XY=              0.0088   XZ=              0.0141   YZ=             -0.0004

 Normal termination of Gaussian 16 at Fri Sep 22 17:08:00 2023.
