 Gaussian 16, Revision A.03,
 Gaussian 16:  ES64L-G16RevA.03 25-Dec-2016

 ------------------------------------------------------
 # b3lyp/6-31+g(d,p) scrf=(iefpcm,solvent=acetonitrile)
 ------------------------------------------------------

 ---------------------
 tmpdir/M2_ref_136.gjf
 ---------------------
 Symbolic Z-matrix:
 Charge =  0 Multiplicity = 1

                         Standard orientation:
 ---------------------------------------------------------------------
 Center     Atomic      Atomic             Coordinates (Angstroms)
 Number     Number       Type             X           Y           Z
 ---------------------------------------------------------------------
      1          6           0        0.550249   -0.012978   -0.000606
      2          1           0        1.101670    0.921782    0.001230
      3          8           0       -0.680978    0.006596    0.000135
      4          1           0        1.044656   -0.896682    0.001325
 ---------------------------------------------------------------------

 SCF Done:  E(RB3LYP) =  -114.510953959     A.U. after    9 cycles

 The electronic state is 1-A.
 Alpha  occ. eigenvalues --  -19.18354 -10.28833  -1.06199  -0.65654  -0.51444
 Alpha  occ. eigenvalues --   -0.46028  -0.40420  -0.28304
 Alpha virt. eigenvalues --   -0.06487   0.02132   0.04273   0.05278   0.07330
 Alpha virt. eigenvalues --    0.16929   0.19458   0.20751   0.21415   0.25976
 Alpha virt. eigenvalues --    0.27439   0.35609   0.63227   0.66109   0.72552

 Mulliken charges:
               1
     1  C    0.126009
     2  H    0.140504
     3  O   -0.413687
     4  H    0.147174
 Sum of Mulliken charges =   0.00000

 Dipole moment (field-independent basis, Debye):
    X=              3.2557    Y=             -0.0939    Z=              0.0005  Tot=              3.2571
 Quadrupole moment (field-independent basis, Debye-Ang):
   XX=            -12.2947   YY=            -11.4714   ZZ=            -11.6973
   XY=             -0.0415   XZ=              0.0013   YZ=              0.0001

 Normal termination of Gaussian 16 at Fri Sep 22 17:09:18 2023.
