 Gaussian 16, Revision A.03,
 Gaussian 16:  ES64L-G16RevA.03 25-Dec-2016

 ------------------------------------------------------
 # b3lyp/6-31+g(d,p) scrf=(iefpcm,solvent=acetonitrile)
 ------------------------------------------------------

 --------------------
 tmpdir/M2_ref_35.gjf
 --------------------
 Symbolic Z-matrix:
 Charge =  0 Multiplicity = 1

                         Standard orientation:
 ---------------------------------------------------------------------
 Center     Atomic      Atomic             Coordinates (Angstroms)
 Number     Number       Type             X           Y           Z
 ---------------------------------------------------------------------
      1          6           0       -0.805291   -0.640506   -0.008343
      2          6           0        0.368365    0.133438   -0.012709
      3          6           0        1.725381   -0.527426    0.003585
      4          8           0       -1.914984   -0.111740    0.009013
      5          1           0       -0.733476   -1.724644   -0.014412
      6          8           0        0.260794    1.366512   -0.000434
      7          1           0        2.012375   -0.794839    1.028093
      8          1           0        1.726094   -1.449345   -0.585453
      9          1           0        2.497792    0.137618   -0.392059
 ---------------------------------------------------------------------

 SCF Done:  E(RB3LYP) =  -267.159164345     A.U. after   12 cycles

 The electronic state is 1-A.
 Alpha  occ. eigenvalues --  -19.19876 -19.18585 -10.30678 -10.30388 -10.20544
 Alpha  occ. eigenvalues --   -1.09567  -1.05667  -0.79037  -0.70278  -0.56709
 Alpha  occ. eigenvalues --   -0.51490  -0.48914  -0.47554  -0.44171  -0.41780
 Alpha  occ. eigenvalues --   -0.41369  -0.37294  -0.31200  -0.28524
 Alpha virt. eigenvalues --   -0.13504   0.00791   0.01951   0.02889   0.04015
 Alpha virt. eigenvalues --    0.06198   0.06315   0.07456   0.08688   0.09200
 Alpha virt. eigenvalues --    0.10318   0.12168   0.12275   0.14605   0.17859

 Mulliken charges:
               1
     1  C    0.159039
     2  C    0.452155
     3  C   -0.513078
     4  O   -0.388213
     5  H    0.163892
     6  O   -0.458839
     7  H    0.208972
     8  H    0.182413
     9  H    0.193660
 Sum of Mulliken charges =  -0.00000

 Dipole moment (field-independent basis, Debye):
    X=              3.6430    Y=             -4.5904    Z=              0.0370  Tot=              5.8604
 Quadrupole moment (field-independent basis, Debye-Ang):
   XX=            -32.8245   YY=            -31.3214   ZZ=            -27.4506
   XY=             -0.4944   XZ=              0.2358   YZ=             -0.0576

 Normal termination of Gaussian 16 at Fri Sep 22 17:07:45 2023.
