 Gaussian 16, Revision A.03,
 Gaussian 16:  ES64L-G16RevA.03 25-Dec-2016

 ------------------------------------------------------
 # b3lyp/6-31+g(d,p) scrf=(iefpcm,solvent=acetonitrile)
 ------------------------------------------------------

 --------------------
 tmpdir/M2_ref_81.gjf
 --------------------
 Symbolic Z-matrix:
 Charge =  0 Multiplicity = 1

                         Standard orientation:
 ---------------------------------------------------------------------
 Center     Atomic      Atomic             Coordinates (Angstroms)
 Number     Number       Type             X           Y           Z
 ---------------------------------------------------------------------
      1          6           0        0.802664    0.483059   -0.001581
      2          6           0       -0.585148    0.648272   -0.000286
      3          6           0       -1.423153   -0.473148   -0.000074
      4          8           0        1.290168   -0.649239    0.001199
      5          1           0        1.456595    1.349795    0.000692
      6          1           0       -1.013874    1.645984    0.002742
      7          1           0       -1.028544   -1.403272   -0.005484
      8          1           0       -2.501702   -0.347701    0.004103
 ---------------------------------------------------------------------

 SCF Done:  E(RB3LYP) =  -191.919420591     A.U. after   12 cycles

 The electronic state is 1-A.
 Alpha  occ. eigenvalues --  -19.15805 -10.28071 -10.22445 -10.21258  -1.05075
 Alpha  occ. eigenvalues --   -0.79910  -0.67970  -0.55752  -0.52355  -0.46145
 Alpha  occ. eigenvalues --   -0.42558  -0.41074  -0.39801  -0.28553  -0.27378
 Alpha virt. eigenvalues --   -0.09743   0.01406   0.03128   0.03961   0.04160
 Alpha virt. eigenvalues --    0.06274   0.06538   0.07526   0.09676   0.09811
 Alpha virt. eigenvalues --    0.12242   0.12378   0.14308   0.16408   0.19994

 Mulliken charges:
               1
     1  C    0.068425
     2  C    0.066894
     3  C   -0.277894
     4  O   -0.502299
     5  H    0.138720
     6  H    0.158326
     7  H    0.176077
     8  H    0.171751
 Sum of Mulliken charges =  -0.00000

 Dipole moment (field-independent basis, Debye):
    X=             -2.9327    Y=              2.3855    Z=             -0.0027  Tot=              3.7804
 Quadrupole moment (field-independent basis, Debye-Ang):
   XX=            -24.0279   YY=            -22.4321   ZZ=            -25.1876
   XY=              4.0839   XZ=             -0.0139   YZ=              0.0127

 Normal termination of Gaussian 16 at Fri Sep 22 17:08:17 2023.
