 Gaussian 16, Revision A.03,
 Gaussian 16:  ES64L-G16RevA.03 25-Dec-2016

 ------------------------------------------------------
 # b3lyp/6-31+g(d,p) scrf=(iefpcm,solvent=acetonitrile)
 ------------------------------------------------------

 --------------------
 tmpdir/M2_ref_62.gjf
 --------------------
 Symbolic Z-matrix:
 Charge =  0 Multiplicity = 1

                         Standard orientation:
 ---------------------------------------------------------------------
 Center     Atomic      Atomic             Coordinates (Angstroms)
 Number     Number       Type             X           Y           Z
 ---------------------------------------------------------------------
      1          6           0       -0.800142    0.479913   -0.000771
      2          6           0        0.589233    0.647703   -0.000795
      3          6           0        1.422723   -0.475066    0.001616
      4          1           0       -1.454093    1.402091    0.011277
      5          8           0       -1.292986   -0.652314   -0.000527
      6          1           0        1.004427    1.649500   -0.007079
      7          1           0        1.022094   -1.404064   -0.002767
      8          1           0        2.500575   -0.344314    0.002480
 ---------------------------------------------------------------------

 SCF Done:  E(RB3LYP) =  -191.919901578     A.U. after   12 cycles

 The electronic state is 1-A.
 Alpha  occ. eigenvalues --  -19.16003 -10.28534 -10.22493 -10.21280  -1.05037
 Alpha  occ. eigenvalues --   -0.79997  -0.67832  -0.55196  -0.52153  -0.46260
 Alpha  occ. eigenvalues --   -0.42355  -0.41073  -0.39916  -0.28633  -0.27434
 Alpha virt. eigenvalues --   -0.09777   0.01391   0.03009   0.03949   0.04122
 Alpha virt. eigenvalues --    0.06148   0.06521   0.07511   0.09683   0.09782
 Alpha virt. eigenvalues --    0.12171   0.12370   0.14212   0.16407   0.19888

 Mulliken charges:
               1
     1  C    0.066551
     2  C    0.071945
     3  C   -0.281736
     4  H    0.136417
     5  O   -0.500771
     6  H    0.158658
     7  H    0.176870
     8  H    0.172066
 Sum of Mulliken charges =  -0.00000

 Dipole moment (field-independent basis, Debye):
    X=              2.9908    Y=              2.3438    Z=             -0.0022  Tot=              3.7998
 Quadrupole moment (field-independent basis, Debye-Ang):
   XX=            -24.1715   YY=            -22.4295   ZZ=            -25.2349
   XY=             -3.9925   XZ=             -0.0125   YZ=             -0.0050

 Normal termination of Gaussian 16 at Fri Sep 22 17:07:58 2023.
