 Gaussian 16, Revision A.03,
 Gaussian 16:  ES64L-G16RevA.03 25-Dec-2016

 ------------------------------------------------------
 # b3lyp/6-31+g(d,p) scrf=(iefpcm,solvent=acetonitrile)
 ------------------------------------------------------

 ---------------------
 tmpdir/M2_ref_127.gjf
 ---------------------
 Symbolic Z-matrix:
 Charge =  0 Multiplicity = 1

                         Standard orientation:
 ---------------------------------------------------------------------
 Center     Atomic      Atomic             Coordinates (Angstroms)
 Number     Number       Type             X           Y           Z
 ---------------------------------------------------------------------
      1          6           0       -0.787262    0.478625    0.000743
      2          6           0        0.600351    0.649611   -0.001248
      3          6           0        1.415646   -0.484478   -0.001373
      4          1           0       -1.450128    1.386904   -0.009812
      5          8           0       -1.306216   -0.639532    0.001101
      6          1           0        1.031303    1.644659    0.010559
      7          1           0        1.001340   -1.408450   -0.001195
      8          1           0        2.494806   -0.369410    0.002907
 ---------------------------------------------------------------------

 SCF Done:  E(RB3LYP) =  -191.920613290     A.U. after   12 cycles

 The electronic state is 1-A.
 Alpha  occ. eigenvalues --  -19.15933 -10.28410 -10.22514 -10.21327  -1.05088
 Alpha  occ. eigenvalues --   -0.80164  -0.67769  -0.55250  -0.52307  -0.46236
 Alpha  occ. eigenvalues --   -0.42292  -0.41101  -0.40054  -0.28724  -0.27364
 Alpha virt. eigenvalues --   -0.09720   0.01379   0.03036   0.03941   0.04179
 Alpha virt. eigenvalues --    0.06200   0.06520   0.07532   0.09660   0.09777
 Alpha virt. eigenvalues --    0.12152   0.12355   0.14239   0.16426   0.19807

 Mulliken charges:
               1
     1  C    0.061158
     2  C    0.077683
     3  C   -0.282528
     4  H    0.132445
     5  O   -0.499669
     6  H    0.161364
     7  H    0.177563
     8  H    0.171983
 Sum of Mulliken charges =  -0.00000

 Dipole moment (field-independent basis, Debye):
    X=              3.0822    Y=              2.2958    Z=              0.0079  Tot=              3.8433
 Quadrupole moment (field-independent basis, Debye-Ang):
   XX=            -24.2470   YY=            -22.4174   ZZ=            -25.2101
   XY=             -3.8744   XZ=              0.0310   YZ=              0.0183

 Normal termination of Gaussian 16 at Fri Sep 22 17:09:01 2023.
