 Gaussian 16, Revision A.03,
 Gaussian 16:  ES64L-G16RevA.03 25-Dec-2016

 ------------------------------------------------------
 # b3lyp/6-31+g(d,p) scrf=(iefpcm,solvent=acetonitrile)
 ------------------------------------------------------

 ---------------------
 tmpdir/M2_ref_116.gjf
 ---------------------
 Symbolic Z-matrix:
 Charge =  0 Multiplicity = 1

                         Standard orientation:
 ---------------------------------------------------------------------
 Center     Atomic      Atomic             Coordinates (Angstroms)
 Number     Number       Type             X           Y           Z
 ---------------------------------------------------------------------
      1          6           0       -0.685279    0.480024    0.000781
      2          6           0        0.712817    0.485874   -0.001030
      3          1           0       -1.236193    1.460256   -0.009873
      4          6           0       -1.419640   -0.709852    0.001126
      5          6           0        1.388416   -0.736595   -0.001034
      6          1           0        1.258309    1.423039    0.010820
 ---------------------------------------------------------------------

 SCF Done:  E(RB3LYP) =  -153.324440532     A.U. after   14 cycles

 The electronic state is 1-A.
 Alpha  occ. eigenvalues --  -10.29105 -10.28931 -10.24369 -10.24083  -0.85623
 Alpha  occ. eigenvalues --   -0.72866  -0.61326  -0.50159  -0.48529  -0.36866
 Alpha  occ. eigenvalues --   -0.33613  -0.31482  -0.25372
 Alpha virt. eigenvalues --   -0.14497  -0.11516  -0.08299   0.02183   0.03730
 Alpha virt. eigenvalues --    0.04221   0.04453   0.05782   0.06089   0.08878
 Alpha virt. eigenvalues --    0.09197   0.09315   0.10633   0.12133   0.12851

 Mulliken charges:
               1
     1  C    0.197061
     2  C    0.182453
     3  H    0.240735
     4  C   -0.443527
     5  C   -0.409925
     6  H    0.233203
 Sum of Mulliken charges =  -0.00000

 Dipole moment (field-independent basis, Debye):
    X=              0.1952    Y=              4.7827    Z=              0.0016  Tot=              4.7867
 Quadrupole moment (field-independent basis, Debye-Ang):
   XX=            -26.4364   YY=            -24.3247   ZZ=            -26.9681
   XY=             -0.1299   XZ=              0.0701   YZ=              0.0005

 Normal termination of Gaussian 16 at Fri Sep 22 17:09:13 2023.
