 Gaussian 16, Revision A.03,
 Gaussian 16:  ES64L-G16RevA.03 25-Dec-2016

 ------------------------------------------------------
 # b3lyp/6-31+g(d,p) scrf=(iefpcm,solvent=acetonitrile)
 ------------------------------------------------------

 --------------------
 tmpdir/M2_ref_13.gjf
 --------------------
 Symbolic Z-matrix:
 Charge =  0 Multiplicity = 1

                         Standard orientation:
 ---------------------------------------------------------------------
 Center     Atomic      Atomic             Coordinates (Angstroms)
 Number     Number       Type             X           Y           Z
 ---------------------------------------------------------------------
      1          6           0        0.550072   -0.013133   -0.000388
      2          1           0        1.106660    0.918135    0.000794
      3          8           0       -0.678998    0.008252    0.000086
      4          1           0        1.024895   -0.905354    0.000846
 ---------------------------------------------------------------------

 SCF Done:  E(RB3LYP) =  -114.510565934     A.U. after    9 cycles

 The electronic state is 1-A.
 Alpha  occ. eigenvalues --  -19.18296 -10.28760  -1.06297  -0.65574  -0.51597
 Alpha  occ. eigenvalues --   -0.45990  -0.40464  -0.28270
 Alpha virt. eigenvalues --   -0.06414   0.02138   0.04300   0.05266   0.07334
 Alpha virt. eigenvalues --    0.16885   0.19399   0.20776   0.21425   0.26004
 Alpha virt. eigenvalues --    0.27573   0.35693   0.63235   0.66309   0.72843

 Mulliken charges:
               1
     1  C    0.126547
     2  H    0.141032
     3  O   -0.413318
     4  H    0.145739
 Sum of Mulliken charges =   0.00000

 Dipole moment (field-independent basis, Debye):
    X=              3.2435    Y=             -0.0986    Z=              0.0003  Tot=              3.2450
 Quadrupole moment (field-independent basis, Debye-Ang):
   XX=            -12.3200   YY=            -11.4466   ZZ=            -11.6906
   XY=             -0.0091   XZ=              0.0008   YZ=              0.0001

 Normal termination of Gaussian 16 at Fri Sep 22 17:07:04 2023.
