 Gaussian 16, Revision A.03,
 Gaussian 16:  ES64L-G16RevA.03 25-Dec-2016

 ------------------------------------------------------
 # b3lyp/6-31+g(d,p) scrf=(iefpcm,solvent=acetonitrile)
 ------------------------------------------------------

 ---------------------
 tmpdir/M2_ref_120.gjf
 ---------------------
 Symbolic Z-matrix:
 Charge =  0 Multiplicity = 1

                         Standard orientation:
 ---------------------------------------------------------------------
 Center     Atomic      Atomic             Coordinates (Angstroms)
 Number     Number       Type             X           Y           Z
 ---------------------------------------------------------------------
      1          6           0        0.704743    0.489779   -0.002347
      2          6           0       -0.691703    0.490598   -0.000693
      3          6           0        1.375708   -0.736959    0.000840
      4          1           0        1.262012    1.420059    0.006748
      5          6           0       -1.394463   -0.719134    0.000479
      6          1           0       -1.227722    1.434241    0.003579
 ---------------------------------------------------------------------

 SCF Done:  E(RB3LYP) =  -153.323594524     A.U. after   13 cycles

 The electronic state is 1-A.
 Alpha  occ. eigenvalues --  -10.29047 -10.28998 -10.24087 -10.24034  -0.85808
 Alpha  occ. eigenvalues --   -0.72829  -0.61465  -0.50194  -0.49183  -0.36915
 Alpha  occ. eigenvalues --   -0.33688  -0.31445  -0.25298
 Alpha virt. eigenvalues --   -0.14625  -0.11302  -0.08367   0.02263   0.03735
 Alpha virt. eigenvalues --    0.04181   0.04498   0.05845   0.06096   0.08870
 Alpha virt. eigenvalues --    0.09202   0.09330   0.10632   0.12182   0.12911

 Mulliken charges:
               1
     1  C    0.183526
     2  C    0.180176
     3  C   -0.412455
     4  H    0.233700
     5  C   -0.419991
     6  H    0.235043
 Sum of Mulliken charges =  -0.00000

 Dipole moment (field-independent basis, Debye):
    X=              0.1076    Y=              4.7839    Z=              0.0137  Tot=              4.7851
 Quadrupole moment (field-independent basis, Debye-Ang):
   XX=            -26.0849   YY=            -24.5130   ZZ=            -26.9115
   XY=             -0.0208   XZ=              0.0088   YZ=              0.0273

 Normal termination of Gaussian 16 at Fri Sep 22 17:08:47 2023.
