 Gaussian 16, Revision A.03,
 Gaussian 16:  ES64L-G16RevA.03 25-Dec-2016

 ------------------------------------------------------
 # b3lyp/6-31+g(d,p) scrf=(iefpcm,solvent=acetonitrile)
 ------------------------------------------------------

 --------------------
 tmpdir/M2_ref_20.gjf
 --------------------
 Symbolic Z-matrix:
 Charge =  0 Multiplicity = 1

                         Standard orientation:
 ---------------------------------------------------------------------
 Center     Atomic      Atomic             Coordinates (Angstroms)
 Number     Number       Type             X           Y           Z
 ---------------------------------------------------------------------
      1          6           0        0.691828    0.499617   -0.013723
      2          6           0       -0.706460    0.506188   -0.000513
      3          1           0       -1.259625    1.441427    0.003378
      4          8           0        1.322688   -0.555280    0.002965
      5          1           0        1.236632    1.489718    0.040860
      6          8           0       -1.308840   -0.565466    0.002183
 ---------------------------------------------------------------------

 SCF Done:  E(RB3LYP) =  -227.825668662     A.U. after   11 cycles

 The electronic state is 1-A.
 Alpha  occ. eigenvalues --  -19.20303 -19.20223 -10.30979 -10.30662  -1.10331
 Alpha  occ. eigenvalues --   -1.06552  -0.75740  -0.57706  -0.55474  -0.48884
 Alpha  occ. eigenvalues --   -0.46269  -0.45651  -0.39159  -0.31979  -0.29279
 Alpha virt. eigenvalues --   -0.14490   0.01270   0.02214   0.03389   0.03807
 Alpha virt. eigenvalues --    0.06053   0.07234   0.08850   0.10186   0.15296
 Alpha virt. eigenvalues --    0.15788   0.19694   0.20003   0.21344   0.23602

 Mulliken charges:
               1
     1  C    0.218518
     2  C    0.223733
     3  H    0.169563
     4  O   -0.387655
     5  H    0.162498
     6  O   -0.386657
 Sum of Mulliken charges =  -0.00000

 Dipole moment (field-independent basis, Debye):
    X=             -0.1226    Y=              4.8989    Z=             -0.0110  Tot=              4.9005
 Quadrupole moment (field-independent basis, Debye-Ang):
   XX=            -27.0249   YY=            -21.6199   ZZ=            -21.3289
   XY=             -0.1633   XZ=              0.0227   YZ=              0.0201

 Normal termination of Gaussian 16 at Fri Sep 22 17:07:23 2023.
