 Gaussian 16, Revision A.03,
 Gaussian 16:  ES64L-G16RevA.03 25-Dec-2016

 ------------------------------------------------------
 # b3lyp/6-31+g(d,p) scrf=(iefpcm,solvent=acetonitrile)
 ------------------------------------------------------

 --------------------
 tmpdir/M2_ref_66.gjf
 --------------------
 Symbolic Z-matrix:
 Charge =  0 Multiplicity = 1

                         Standard orientation:
 ---------------------------------------------------------------------
 Center     Atomic      Atomic             Coordinates (Angstroms)
 Number     Number       Type             X           Y           Z
 ---------------------------------------------------------------------
      1          6           0        0.552481   -0.013040   -0.000995
      2          1           0        1.105967    0.918996    0.002032
      3          8           0       -0.682190    0.007386    0.000221
      4          1           0        1.036672   -0.899846    0.002176
 ---------------------------------------------------------------------

 SCF Done:  E(RB3LYP) =  -114.510446877     A.U. after    9 cycles

 The electronic state is 1-A.
 Alpha  occ. eigenvalues --  -19.18353 -10.28845  -1.06020  -0.65717  -0.51491
 Alpha  occ. eigenvalues --   -0.45957  -0.40314  -0.28324
 Alpha virt. eigenvalues --   -0.06573   0.02134   0.04277   0.05279   0.07329
 Alpha virt. eigenvalues --    0.16908   0.19448   0.20751   0.21404   0.25936
 Alpha virt. eigenvalues --    0.27498   0.35465   0.63238   0.65883   0.72563

 Mulliken charges:
               1
     1  C    0.126178
     2  H    0.142108
     3  O   -0.415823
     4  H    0.147537
 Sum of Mulliken charges =  -0.00000

 Dipole moment (field-independent basis, Debye):
    X=              3.2749    Y=             -0.0948    Z=              0.0008  Tot=              3.2763
 Quadrupole moment (field-independent basis, Debye-Ang):
   XX=            -12.2933   YY=            -11.4599   ZZ=            -11.7047
   XY=             -0.0236   XZ=              0.0021   YZ=              0.0002

 Normal termination of Gaussian 16 at Fri Sep 22 17:07:33 2023.
