 Gaussian 16, Revision A.03,
 Gaussian 16:  ES64L-G16RevA.03 25-Dec-2016

 ------------------------------------------------------
 # b3lyp/6-31+g(d,p) scrf=(iefpcm,solvent=acetonitrile)
 ------------------------------------------------------

 -------------------
 tmpdir/M2_ref_9.gjf
 -------------------
 Symbolic Z-matrix:
 Charge =  0 Multiplicity = 1

                         Standard orientation:
 ---------------------------------------------------------------------
 Center     Atomic      Atomic             Coordinates (Angstroms)
 Number     Number       Type             X           Y           Z
 ---------------------------------------------------------------------
      1          6           0        1.428788   -0.470147    0.000889
      2          6           0        0.580881    0.636622   -0.014866
      3          6           0       -0.808939    0.483016    0.000442
      4          1           0        1.025361   -1.396841    0.002766
      5          1           0        2.504121   -0.326820    0.013797
      6          1           0        1.008822    1.682508    0.040648
      7          8           0       -1.284643   -0.650569    0.002149
      8          1           0       -1.465546    1.348755    0.006804
 ---------------------------------------------------------------------

 SCF Done:  E(RB3LYP) =  -191.918093747     A.U. after   12 cycles

 The electronic state is 1-A.
 Alpha  occ. eigenvalues --  -19.15868 -10.28115 -10.22349 -10.21547  -1.05352
 Alpha  occ. eigenvalues --   -0.79798  -0.67952  -0.55517  -0.52067  -0.46158
 Alpha  occ. eigenvalues --   -0.42839  -0.41238  -0.39231  -0.28600  -0.27413
 Alpha virt. eigenvalues --   -0.09680   0.01367   0.03083   0.03901   0.04193
 Alpha virt. eigenvalues --    0.06241   0.06539   0.07514   0.09597   0.09805
 Alpha virt. eigenvalues --    0.12185   0.12394   0.14288   0.16389   0.19330

 Mulliken charges:
               1
     1  C   -0.283772
     2  C    0.067793
     3  C    0.067441
     4  H    0.175605
     5  H    0.172781
     6  H    0.157542
     7  O   -0.497708
     8  H    0.140317
 Sum of Mulliken charges =  -0.00000

 Dipole moment (field-independent basis, Debye):
    X=              2.8227    Y=              2.3698    Z=              0.0641  Tot=              3.6862
 Quadrupole moment (field-independent basis, Debye-Ang):
   XX=            -23.9658   YY=            -22.5263   ZZ=            -25.2205
   XY=             -4.0993   XZ=              0.1084   YZ=              0.0805

 Normal termination of Gaussian 16 at Fri Sep 22 17:07:06 2023.
