 Gaussian 16, Revision A.03,
 Gaussian 16:  ES64L-G16RevA.03 25-Dec-2016

 ------------------------------------------------------
 # b3lyp/6-31+g(d,p) scrf=(iefpcm,solvent=acetonitrile)
 ------------------------------------------------------

 ---------------------
 tmpdir/M2_ref_126.gjf
 ---------------------
 Symbolic Z-matrix:
 Charge =  0 Multiplicity = 1

                         Standard orientation:
 ---------------------------------------------------------------------
 Center     Atomic      Atomic             Coordinates (Angstroms)
 Number     Number       Type             X           Y           Z
 ---------------------------------------------------------------------
      1          6           0        0.550415    0.012512   -0.001780
      2          1           0        1.123335   -0.908201    0.003665
      3          1           0        1.020329    0.908859    0.003842
      4          8           0       -0.680770   -0.009467    0.000396
 ---------------------------------------------------------------------

 SCF Done:  E(RB3LYP) =  -114.510728218     A.U. after    9 cycles

 The electronic state is 1-A.
 Alpha  occ. eigenvalues --  -19.18341 -10.28810  -1.06199  -0.65634  -0.51484
 Alpha  occ. eigenvalues --   -0.46015  -0.40415  -0.28301
 Alpha virt. eigenvalues --   -0.06481   0.02137   0.04273   0.05277   0.07331
 Alpha virt. eigenvalues --    0.16945   0.19411   0.20791   0.21416   0.25938
 Alpha virt. eigenvalues --    0.27490   0.35604   0.63232   0.66158   0.72586

 Mulliken charges:
               1
     1  C    0.126409
     2  H    0.142404
     3  H    0.145471
     4  O   -0.414284
 Sum of Mulliken charges =  -0.00000

 Dipole moment (field-independent basis, Debye):
    X=              3.2570    Y=              0.0996    Z=              0.0014  Tot=              3.2585
 Quadrupole moment (field-independent basis, Debye-Ang):
   XX=            -12.2943   YY=            -11.4675   ZZ=            -11.6959
   XY=             -0.0216   XZ=              0.0038   YZ=             -0.0002

 Normal termination of Gaussian 16 at Fri Sep 22 17:08:41 2023.
