 Gaussian 16, Revision A.03,
 Gaussian 16:  ES64L-G16RevA.03 25-Dec-2016

 ------------------------------------------------------
 # b3lyp/6-31+g(d,p) scrf=(iefpcm,solvent=acetonitrile)
 ------------------------------------------------------

 --------------------
 tmpdir/M2_ref_85.gjf
 --------------------
 Symbolic Z-matrix:
 Charge =  0 Multiplicity = 2

                         Standard orientation:
 ---------------------------------------------------------------------
 Center     Atomic      Atomic             Coordinates (Angstroms)
 Number     Number       Type             X           Y           Z
 ---------------------------------------------------------------------
      1          6           0        1.297351   -0.625378   -0.012757
      2          6           0        0.019115    0.107968    0.008687
      3          7           0       -1.188433   -0.605431    0.004190
      4          1           0        1.453784   -1.576869   -0.506682
      5          1           0        2.138142   -0.115951    0.424484
      6          8           0        0.012595    1.344824   -0.013867
      7          1           0       -1.223154   -1.582869    0.422804
      8          1           0       -2.049296   -0.140430   -0.234576
 ---------------------------------------------------------------------

 SCF Done:  E(UB3LYP) =  -208.574152929     A.U. after   15 cycles

 The electronic state is 2-A.
 Alpha  occ. eigenvalues --  -19.14751 -14.36928 -10.31488 -10.23108  -1.05463
 Alpha  occ. eigenvalues --   -0.89859  -0.74826  -0.58954  -0.53052  -0.49857
 Alpha  occ. eigenvalues --   -0.45635  -0.43139  -0.40532  -0.29249  -0.28229
 Alpha  occ. eigenvalues --   -0.25546
 Alpha virt. eigenvalues --    0.00280   0.01093   0.03548   0.04538   0.06578
 Alpha virt. eigenvalues --    0.07132   0.07843   0.09571   0.10830   0.12619
 Alpha virt. eigenvalues --    0.12959   0.15092   0.18566   0.20128   0.21999

  Beta  occ. eigenvalues --  -19.14362 -14.36881 -10.31593 -10.21852  -1.04798
  Beta  occ. eigenvalues --   -0.89612  -0.71867  -0.58327  -0.52835  -0.49127
  Beta  occ. eigenvalues --   -0.44634  -0.42576  -0.39328  -0.28655  -0.27053
  Beta virt. eigenvalues --   -0.11929   0.00390   0.02185   0.03735   0.04638
  Beta virt. eigenvalues --    0.07127   0.07481   0.08028   0.10848   0.10878
  Beta virt. eigenvalues --    0.12781   0.13066   0.15242   0.18616   0.21248

 Mulliken charges and spin densities:
               1          2
     1  C   -0.211272   1.021707
     2  C    0.365060  -0.090282
     3  N   -0.599945   0.024572
     4  H    0.182918  -0.044454
     5  H    0.176030  -0.045814
     6  O   -0.578281   0.134927
     7  H    0.332455  -0.000704
     8  H    0.333035   0.000049
 Sum of Mulliken charges =   0.00000   1.00000

 Dipole moment (field-independent basis, Debye):
    X=             -0.6677    Y=             -4.8142    Z=              0.3419  Tot=              4.8723
 Quadrupole moment (field-independent basis, Debye-Ang):
   XX=            -18.1272   YY=            -26.7299   ZZ=            -25.2513
   XY=              0.2640   XZ=              0.2458   YZ=             -0.5970

 1\1\GINC-NODE62\SP\UB3LYP\6-31+G(d,p)\C2H4N1O1(2)\YANZ\22-Sep-2023\0\\
 # b3lyp/6-31+g(d,p) scrf=(iefpcm,solvent=acetonitrile)\\tmpdir/M2_ref_
 85.gjf\\0,2\C,0,-1.064198,0.385348,1.023625\C,0,-0.08266,0.726067,-0.0
 21667\N,0,1.269902,0.871483,0.319741\H,0,-0.99519574,0.69695559,2.0589
 5499\H,0,-1.94463665,-0.13481259,0.68913031\O,0,-0.457275,0.925551,-1.
 183663\H,0,1.66363747,0.33342543,1.14877347\H,0,1.90173155,1.34222987,
 -0.30756253\\Version=ES64L-G16RevA.03\State=2-A\HF=-208.5741529\S2=0.7
 56089\S2-1=0.\S2A=0.750024\RMSD=1.952e-09\Dipole=0.8450861,-0.3475426,

 Normal termination of Gaussian 16 at Fri Sep 22 17:08:40 2023.
