 Gaussian 16, Revision A.03,
 Gaussian 16:  ES64L-G16RevA.03 25-Dec-2016

 ------------------------------------------------------
 # b3lyp/6-31+g(d,p) scrf=(iefpcm,solvent=acetonitrile)
 ------------------------------------------------------

 ---------------------
 tmpdir/M2_ref_137.gjf
 ---------------------
 Symbolic Z-matrix:
 Charge =  0 Multiplicity = 1

                         Standard orientation:
 ---------------------------------------------------------------------
 Center     Atomic      Atomic             Coordinates (Angstroms)
 Number     Number       Type             X           Y           Z
 ---------------------------------------------------------------------
      1          6           0       -1.425349   -0.474821   -0.001863
      2          6           0       -0.589882    0.644491   -0.001021
      3          6           0        0.799692    0.483670   -0.000838
      4          1           0       -1.004455   -1.395221   -0.001163
      5          1           0       -2.504030   -0.363976    0.009981
      6          1           0       -1.024996    1.638722    0.004060
      7          8           0        1.297888   -0.644657    0.001025
      8          1           0        1.443615    1.357695    0.001262
 ---------------------------------------------------------------------

 SCF Done:  E(RB3LYP) =  -191.920217781     A.U. after   12 cycles

 The electronic state is 1-A.
 Alpha  occ. eigenvalues --  -19.15864 -10.28122 -10.22387 -10.21202  -1.05064
 Alpha  occ. eigenvalues --   -0.79990  -0.67960  -0.55683  -0.52414  -0.46091
 Alpha  occ. eigenvalues --   -0.42720  -0.41071  -0.39704  -0.28609  -0.27421
 Alpha virt. eigenvalues --   -0.09721   0.01410   0.03138   0.03961   0.04169
 Alpha virt. eigenvalues --    0.06271   0.06546   0.07532   0.09690   0.09806
 Alpha virt. eigenvalues --    0.12254   0.12395   0.14285   0.16403   0.20024

 Mulliken charges:
               1
     1  C   -0.279752
     2  C    0.069600
     3  C    0.068067
     4  H    0.175350
     5  H    0.173002
     6  H    0.157869
     7  O   -0.502952
     8  H    0.138817
 Sum of Mulliken charges =   0.00000

 Dipole moment (field-independent basis, Debye):
    X=             -2.9586    Y=              2.3786    Z=              0.0106  Tot=              3.7962
 Quadrupole moment (field-independent basis, Debye-Ang):
   XX=            -24.0452   YY=            -22.4643   ZZ=            -25.1797
   XY=              4.0424   XZ=             -0.0345   YZ=              0.0077

 Normal termination of Gaussian 16 at Fri Sep 22 17:09:36 2023.
