 Gaussian 16, Revision A.03,
 Gaussian 16:  ES64L-G16RevA.03 25-Dec-2016

 ------------------------------------------------------
 # b3lyp/6-31+g(d,p) scrf=(iefpcm,solvent=acetonitrile)
 ------------------------------------------------------

 --------------------
 tmpdir/M2_ref_24.gjf
 --------------------
 Symbolic Z-matrix:
 Charge =  0 Multiplicity = 1

                         Standard orientation:
 ---------------------------------------------------------------------
 Center     Atomic      Atomic             Coordinates (Angstroms)
 Number     Number       Type             X           Y           Z
 ---------------------------------------------------------------------
      1          6           0       -0.813654    0.481027    0.002830
      2          6           0        0.572867    0.645135   -0.004046
      3          6           0        1.436872   -0.461571   -0.001610
      4          8           0       -1.279494   -0.656533   -0.001731
      5          1           0       -1.479500    1.337503    0.014974
      6          1           0        0.988501    1.649079   -0.008235
      7          1           0        1.029312   -1.394070    0.004333
      8          1           0        2.521126   -0.327790    0.019724
 ---------------------------------------------------------------------

 SCF Done:  E(RB3LYP) =  -191.918854602     A.U. after   12 cycles

 The electronic state is 1-A.
 Alpha  occ. eigenvalues --  -19.15790 -10.28050 -10.22594 -10.21236  -1.05309
 Alpha  occ. eigenvalues --   -0.79730  -0.67914  -0.55686  -0.52303  -0.46056
 Alpha  occ. eigenvalues --   -0.42823  -0.41193  -0.39501  -0.28461  -0.27379
 Alpha virt. eigenvalues --   -0.09758   0.01411   0.03133   0.03968   0.04175
 Alpha virt. eigenvalues --    0.06226   0.06559   0.07498   0.09697   0.09809
 Alpha virt. eigenvalues --    0.12243   0.12392   0.14234   0.16397   0.19894

 Mulliken charges:
               1
     1  C    0.069095
     2  C    0.059918
     3  C   -0.276108
     4  O   -0.498908
     5  H    0.140551
     6  H    0.155334
     7  H    0.175971
     8  H    0.174147
 Sum of Mulliken charges =  -0.00000

 Dipole moment (field-independent basis, Debye):
    X=              2.8329    Y=              2.4013    Z=              0.0319  Tot=              3.7139
 Quadrupole moment (field-independent basis, Debye-Ang):
   XX=            -23.8107   YY=            -22.5811   ZZ=            -25.2148
   XY=             -4.1447   XZ=              0.0328   YZ=             -0.0184

 Normal termination of Gaussian 16 at Fri Sep 22 17:07:05 2023.
