 Gaussian 16, Revision A.03,
 Gaussian 16:  ES64L-G16RevA.03 25-Dec-2016

 ------------------------------------------------------
 # b3lyp/6-31+g(d,p) scrf=(iefpcm,solvent=acetonitrile)
 ------------------------------------------------------

 --------------------
 tmpdir/M2_ref_34.gjf
 --------------------
 Symbolic Z-matrix:
 Charge =  0 Multiplicity = 1

                         Standard orientation:
 ---------------------------------------------------------------------
 Center     Atomic      Atomic             Coordinates (Angstroms)
 Number     Number       Type             X           Y           Z
 ---------------------------------------------------------------------
      1          6           0        1.303942   -0.230540    0.000544
      2          6           0        0.112198    0.511744   -0.007944
      3          6           0       -1.231064   -0.176796   -0.000331
      4          1           0        2.205465    0.225955    0.020159
      5          1           0        1.258844   -1.316129   -0.011031
      6          1           0        0.174252    1.527457    0.005170
      7          1           0       -1.618747   -0.255691    1.022884
      8          1           0       -1.967879    0.381852   -0.585069
      9          1           0       -1.162388   -1.189897   -0.405728
 ---------------------------------------------------------------------

 SCF Done:  E(RB3LYP) =  -117.910399671     A.U. after   10 cycles

 The electronic state is 1-A.
 Alpha  occ. eigenvalues --  -10.20117 -10.18480 -10.18337  -0.78310  -0.68471
 Alpha  occ. eigenvalues --   -0.57234  -0.47374  -0.41748  -0.41255  -0.36879
 Alpha  occ. eigenvalues --   -0.36590  -0.25221
 Alpha virt. eigenvalues --   -0.01442   0.01759   0.03351   0.04055   0.06054
 Alpha virt. eigenvalues --    0.06739   0.07929   0.09284   0.09889   0.11728
 Alpha virt. eigenvalues --    0.12089   0.13517   0.15893   0.20084   0.23036

 Mulliken charges:
               1
     1  C   -0.384033
     2  C    0.065353
     3  C   -0.584215
     4  H    0.141045
     5  H    0.138540
     6  H    0.139570
     7  H    0.168109
     8  H    0.156691
     9  H    0.158939
 Sum of Mulliken charges =  -0.00000

 Dipole moment (field-independent basis, Debye):
    X=             -0.5730    Y=              0.0985    Z=              0.0865  Tot=              0.5878
 Quadrupole moment (field-independent basis, Debye-Ang):
   XX=            -19.4513   YY=            -18.8571   ZZ=            -22.4476
   XY=             -0.0701   XZ=              0.0208   YZ=              0.0327

 Normal termination of Gaussian 16 at Fri Sep 22 17:07:20 2023.
