 Gaussian 16, Revision A.03,
 Gaussian 16:  ES64L-G16RevA.03 25-Dec-2016

 ------------------------------------------------------
 # b3lyp/6-31+g(d,p) scrf=(iefpcm,solvent=acetonitrile)
 ------------------------------------------------------

 ---------------------
 tmpdir/M2_ref_102.gjf
 ---------------------
 Symbolic Z-matrix:
 Charge =  0 Multiplicity = 2

                         Standard orientation:
 ---------------------------------------------------------------------
 Center     Atomic      Atomic             Coordinates (Angstroms)
 Number     Number       Type             X           Y           Z
 ---------------------------------------------------------------------
      1          6           0       -2.085853    0.011383   -0.503799
      2          6           0       -1.174909   -0.174752    0.655812
      3         16           0        0.638714    0.016630    0.245342
      4          1           0       -2.657612    0.912110   -0.506619
      5          1           0       -2.064662   -0.707692   -1.313892
      6          1           0       -1.362323    0.553025    1.445966
      7          1           0       -1.226432   -1.194260    1.053202
      8          8           0        0.858582    1.339076   -0.381042
      9          8           0        1.067516   -1.196432   -0.492576
     10          1           0        1.247398    0.009806    1.472732
 ---------------------------------------------------------------------

 SCF Done:  E(UB3LYP) =  -627.748092765     A.U. after   14 cycles

 The electronic state is 2-A.
 Alpha  occ. eigenvalues --  -89.11372 -19.17006 -19.16890 -10.24437 -10.22784
 Alpha  occ. eigenvalues --   -8.14467  -6.10888  -6.10811  -6.10767  -1.11704
 Alpha  occ. eigenvalues --   -1.01603  -0.81558  -0.71315  -0.62376  -0.54158
 Alpha  occ. eigenvalues --   -0.50272  -0.49227  -0.46767  -0.42731  -0.40660
 Alpha  occ. eigenvalues --   -0.35646  -0.34230  -0.32417  -0.32104  -0.23916
 Alpha virt. eigenvalues --   -0.00809   0.00261   0.02228   0.02310   0.03807
 Alpha virt. eigenvalues --    0.05319   0.05882   0.07314   0.07949   0.08694
 Alpha virt. eigenvalues --    0.10154   0.11174   0.11586   0.11953   0.13662

  Beta  occ. eigenvalues --  -89.11303 -19.16976 -19.16856 -10.24547 -10.21471
  Beta  occ. eigenvalues --   -8.14390  -6.10840  -6.10743  -6.10611  -1.11590
  Beta  occ. eigenvalues --   -1.01533  -0.80448  -0.69820  -0.60812  -0.53828
  Beta  occ. eigenvalues --   -0.49839  -0.48791  -0.46465  -0.41945  -0.40135
  Beta  occ. eigenvalues --   -0.35372  -0.34146  -0.32300  -0.31491
  Beta virt. eigenvalues --   -0.10160  -0.00394   0.00410   0.02365   0.02680
  Beta virt. eigenvalues --    0.04006   0.05405   0.06026   0.07671   0.08134
  Beta virt. eigenvalues --    0.09059   0.10659   0.11341   0.11815   0.12305

 Mulliken charges and spin densities:
               1          2
     1  C   -0.210400   1.099612
     2  C   -0.474009  -0.134240
     3  S    1.071048   0.040514
     4  H    0.177175  -0.048240
     5  H    0.178474  -0.047816
     6  H    0.219006   0.004205
     7  H    0.222864   0.032747
     8  O   -0.627133   0.017995
     9  O   -0.642854   0.015287
    10  H    0.085829   0.019937
 Sum of Mulliken charges =  -0.00000   1.00000

 Dipole moment (field-independent basis, Debye):
    X=             -3.5564    Y=             -0.4299    Z=              4.6735  Tot=              5.8885
 Quadrupole moment (field-independent basis, Debye-Ang):
   XX=            -36.4980   YY=            -44.3424   ZZ=            -34.5629
   XY=             -0.0679   XZ=              4.1114   YZ=              0.2587

 1\1\GINC-NODE62\SP\UB3LYP\6-31+G(d,p)\C2H5O2S1(2)\YANZ\22-Sep-2023\0\\
 # b3lyp/6-31+g(d,p) scrf=(iefpcm,solvent=acetonitrile)\\tmpdir/M2_ref_
 102.gjf\\0,2\C,0,-1.064198,0.385348,1.023625\C,0,-2.280465,-0.333219,0
 .561543\S,0,-3.836607,0.702377,0.57894\H,0,-0.35367638,0.63198971,0.26
 695276\H,0,-0.99519574,0.69695559,2.05895499\H,0,-2.185793,-0.680573,-
 0.467782\H,0,-2.536985,-1.165983,1.225374\O,0,-3.616977,1.923666,-0.22
 7148\O,0,-4.265488,0.853458,1.990729\H,0,-4.75311986,-0.0857625,-0.065
 93886\\Version=ES64L-G16RevA.03\State=2-A\HF=-627.7480928\S2=0.754249\

 Normal termination of Gaussian 16 at Fri Sep 22 17:09:18 2023.
