 Gaussian 16, Revision A.03,
 Gaussian 16:  ES64L-G16RevA.03 25-Dec-2016

 ------------------------------------------------------
 # b3lyp/6-31+g(d,p) scrf=(iefpcm,solvent=acetonitrile)
 ------------------------------------------------------

 --------------------
 tmpdir/M2_ref_16.gjf
 --------------------
 Symbolic Z-matrix:
 Charge =  0 Multiplicity = 1

                         Standard orientation:
 ---------------------------------------------------------------------
 Center     Atomic      Atomic             Coordinates (Angstroms)
 Number     Number       Type             X           Y           Z
 ---------------------------------------------------------------------
      1          6           0        0.685957    0.507718   -0.002848
      2          6           0       -0.710249    0.504908    0.001754
      3          1           0       -1.272703    1.432596    0.011320
      4          8           0        1.329846   -0.549436    0.002241
      5          1           0        1.214804    1.456911   -0.007872
      6          8           0       -1.304389   -0.571221   -0.001852
 ---------------------------------------------------------------------

 SCF Done:  E(RB3LYP) =  -227.825402121     A.U. after   11 cycles

 The electronic state is 1-A.
 Alpha  occ. eigenvalues --  -19.20223 -19.20190 -10.30671 -10.30605  -1.10103
 Alpha  occ. eigenvalues --   -1.06273  -0.75961  -0.58077  -0.55919  -0.48785
 Alpha  occ. eigenvalues --   -0.46122  -0.45709  -0.38984  -0.31912  -0.29349
 Alpha virt. eigenvalues --   -0.14593   0.01285   0.02166   0.03502   0.03839
 Alpha virt. eigenvalues --    0.06080   0.07352   0.08864   0.10211   0.15334
 Alpha virt. eigenvalues --    0.15868   0.19868   0.20203   0.21612   0.24008

 Mulliken charges:
               1
     1  C    0.220962
     2  C    0.224747
     3  H    0.170137
     4  O   -0.394877
     5  H    0.165527
     6  O   -0.386496
 Sum of Mulliken charges =  -0.00000

 Dipole moment (field-independent basis, Debye):
    X=             -0.1687    Y=              4.9717    Z=             -0.0005  Tot=              4.9746
 Quadrupole moment (field-independent basis, Debye-Ang):
   XX=            -27.0240   YY=            -21.5590   ZZ=            -21.2992
   XY=             -0.1409   XZ=             -0.0252   YZ=              0.0019

 Normal termination of Gaussian 16 at Fri Sep 22 17:07:04 2023.
