 Gaussian 16, Revision A.03,
 Gaussian 16:  ES64L-G16RevA.03 25-Dec-2016

 ------------------------------------------------------
 # b3lyp/6-31+g(d,p) scrf=(iefpcm,solvent=acetonitrile)
 ------------------------------------------------------

 --------------------
 tmpdir/M2_ref_70.gjf
 --------------------
 Symbolic Z-matrix:
 Charge =  0 Multiplicity = 1

                         Standard orientation:
 ---------------------------------------------------------------------
 Center     Atomic      Atomic             Coordinates (Angstroms)
 Number     Number       Type             X           Y           Z
 ---------------------------------------------------------------------
      1          6           0        0.698834    0.486162   -0.001494
      2          6           0       -0.698775    0.487496    0.000053
      3          6           0        1.398592   -0.724480    0.000886
      4          1           0        1.246620    1.423598    0.001182
      5          6           0       -1.399498   -0.724453   -0.000256
      6          1           0       -1.241537    1.428049    0.003682
 ---------------------------------------------------------------------

 SCF Done:  E(RB3LYP) =  -153.324315606     A.U. after   13 cycles

 The electronic state is 1-A.
 Alpha  occ. eigenvalues --  -10.29064 -10.29027 -10.24110 -10.24050  -0.85688
 Alpha  occ. eigenvalues --   -0.72906  -0.61419  -0.50179  -0.49152  -0.36861
 Alpha  occ. eigenvalues --   -0.33642  -0.31471  -0.25343
 Alpha virt. eigenvalues --   -0.14525  -0.11458  -0.08351   0.02249   0.03746
 Alpha virt. eigenvalues --    0.04179   0.04496   0.05824   0.06098   0.08898
 Alpha virt. eigenvalues --    0.09203   0.09352   0.10637   0.12172   0.12885

 Mulliken charges:
               1
     1  C    0.185655
     2  C    0.183075
     3  C   -0.420666
     4  H    0.234625
     5  C   -0.417074
     6  H    0.234384
 Sum of Mulliken charges =  -0.00000

 Dipole moment (field-independent basis, Debye):
    X=             -0.0001    Y=              4.7507    Z=              0.0064  Tot=              4.7507
 Quadrupole moment (field-independent basis, Debye-Ang):
   XX=            -26.3045   YY=            -24.4390   ZZ=            -26.9278
   XY=              0.0106   XZ=             -0.0115   YZ=              0.0130

 Normal termination of Gaussian 16 at Fri Sep 22 17:08:11 2023.
