 Gaussian 16, Revision A.03,
 Gaussian 16:  ES64L-G16RevA.03 25-Dec-2016

 ------------------------------------------------------
 # b3lyp/6-31+g(d,p) scrf=(iefpcm,solvent=acetonitrile)
 ------------------------------------------------------

 --------------------
 tmpdir/M2_ref_28.gjf
 --------------------
 Symbolic Z-matrix:
 Charge =  0 Multiplicity = 1

                         Standard orientation:
 ---------------------------------------------------------------------
 Center     Atomic      Atomic             Coordinates (Angstroms)
 Number     Number       Type             X           Y           Z
 ---------------------------------------------------------------------
      1          6           0       -0.548480   -0.012534   -0.000801
      2          1           0       -1.093032    0.927682    0.001611
      3          8           0        0.680751    0.004829    0.000181
      4          1           0       -1.062094   -0.891107    0.001752
 ---------------------------------------------------------------------

 SCF Done:  E(RB3LYP) =  -114.511740883     A.U. after    9 cycles

 The electronic state is 1-A.
 Alpha  occ. eigenvalues --  -19.18380 -10.28875  -1.06312  -0.65589  -0.51331
 Alpha  occ. eigenvalues --   -0.46096  -0.40492  -0.28295
 Alpha virt. eigenvalues --   -0.06443   0.02127   0.04257   0.05280   0.07329
 Alpha virt. eigenvalues --    0.16944   0.19461   0.20734   0.21419   0.25976
 Alpha virt. eigenvalues --    0.27312   0.35702   0.63210   0.66236   0.72478

 Mulliken charges:
               1
     1  C    0.125065
     2  H    0.138962
     3  O   -0.411674
     4  H    0.147647
 Sum of Mulliken charges =   0.00000

 Dipole moment (field-independent basis, Debye):
    X=             -3.2432    Y=             -0.0881    Z=              0.0006  Tot=              3.2444
 Quadrupole moment (field-independent basis, Debye-Ang):
   XX=            -12.2896   YY=            -11.4899   ZZ=            -11.6968
   XY=              0.0731   XZ=             -0.0017   YZ=              0.0002

 Normal termination of Gaussian 16 at Fri Sep 22 17:07:06 2023.
