 Gaussian 16, Revision A.03,
 Gaussian 16:  ES64L-G16RevA.03 25-Dec-2016

 ------------------------------------------------------
 # b3lyp/6-31+g(d,p) scrf=(iefpcm,solvent=acetonitrile)
 ------------------------------------------------------

 ---------------------
 tmpdir/M2_ref_121.gjf
 ---------------------
 Symbolic Z-matrix:
 Charge =  0 Multiplicity = 1

                         Standard orientation:
 ---------------------------------------------------------------------
 Center     Atomic      Atomic             Coordinates (Angstroms)
 Number     Number       Type             X           Y           Z
 ---------------------------------------------------------------------
      1          6           0       -0.551568   -0.012862   -0.001714
      2          1           0       -1.116869    0.912590    0.003527
      3          8           0        0.680951    0.009065    0.000379
      4          1           0       -1.021326   -0.907934    0.003721
 ---------------------------------------------------------------------

 SCF Done:  E(RB3LYP) =  -114.510490634     A.U. after    9 cycles

 The electronic state is 1-A.
 Alpha  occ. eigenvalues --  -19.18329 -10.28814  -1.06127  -0.65641  -0.51533
 Alpha  occ. eigenvalues --   -0.45966  -0.40370  -0.28302
 Alpha virt. eigenvalues --   -0.06511   0.02137   0.04283   0.05273   0.07331
 Alpha virt. eigenvalues --    0.16905   0.19394   0.20778   0.21412   0.25941
 Alpha virt. eigenvalues --    0.27532   0.35551   0.63237   0.66070   0.72684

 Mulliken charges:
               1
     1  C    0.126302
     2  H    0.142565
     3  O   -0.414986
     4  H    0.146119
 Sum of Mulliken charges =  -0.00000

 Dipole moment (field-independent basis, Debye):
    X=             -3.2631    Y=             -0.0991    Z=              0.0014  Tot=              3.2646
 Quadrupole moment (field-independent basis, Debye-Ang):
   XX=            -12.3031   YY=            -11.4543   ZZ=            -11.6999
   XY=             -0.0114   XZ=             -0.0036   YZ=              0.0002

 Normal termination of Gaussian 16 at Fri Sep 22 17:08:51 2023.
