 Gaussian 16, Revision A.03,
 Gaussian 16:  ES64L-G16RevA.03 25-Dec-2016

 ------------------------------------------------------
 # b3lyp/6-31+g(d,p) scrf=(iefpcm,solvent=acetonitrile)
 ------------------------------------------------------

 ---------------------
 tmpdir/M2_ref_141.gjf
 ---------------------
 Symbolic Z-matrix:
 Charge =  0 Multiplicity = 1

                         Standard orientation:
 ---------------------------------------------------------------------
 Center     Atomic      Atomic             Coordinates (Angstroms)
 Number     Number       Type             X           Y           Z
 ---------------------------------------------------------------------
      1          6           0        1.429186   -0.470496   -0.000060
      2          6           0        0.584699    0.644926   -0.001534
      3          6           0       -0.804583    0.481613   -0.000115
      4          1           0        1.038259   -1.402713   -0.000700
      5          1           0        2.506618   -0.340474    0.005675
      6          1           0        1.010176    1.643690   -0.000186
      7          8           0       -1.294254   -0.648222    0.000001
      8          1           0       -1.456836    1.349011    0.005458
 ---------------------------------------------------------------------

 SCF Done:  E(RB3LYP) =  -191.919818378     A.U. after   12 cycles

 The electronic state is 1-A.
 Alpha  occ. eigenvalues --  -19.15834 -10.28079 -10.22432 -10.21249  -1.05159
 Alpha  occ. eigenvalues --   -0.79901  -0.67974  -0.55765  -0.52349  -0.46147
 Alpha  occ. eigenvalues --   -0.42651  -0.41110  -0.39764  -0.28576  -0.27387
 Alpha virt. eigenvalues --   -0.09720   0.01402   0.03131   0.03964   0.04169
 Alpha virt. eigenvalues --    0.06267   0.06549   0.07530   0.09687   0.09805
 Alpha virt. eigenvalues --    0.12250   0.12389   0.14298   0.16397   0.19972

 Mulliken charges:
               1
     1  C   -0.278631
     2  C    0.067208
     3  C    0.068631
     4  H    0.175518
     5  H    0.172067
     6  H    0.157697
     7  O   -0.501134
     8  H    0.138644
 Sum of Mulliken charges =   0.00000

 Dipole moment (field-independent basis, Debye):
    X=              2.9291    Y=              2.3815    Z=              0.0078  Tot=              3.7751
 Quadrupole moment (field-independent basis, Debye-Ang):
   XX=            -24.0081   YY=            -22.4556   ZZ=            -25.1858
   XY=             -4.0886   XZ=              0.0121   YZ=              0.0021

 Normal termination of Gaussian 16 at Fri Sep 22 17:09:22 2023.
