 Gaussian 16, Revision A.03,
 Gaussian 16:  ES64L-G16RevA.03 25-Dec-2016

 ------------------------------------------------------
 # b3lyp/6-31+g(d,p) scrf=(iefpcm,solvent=acetonitrile)
 ------------------------------------------------------

 ---------------------
 tmpdir/M2_ref_113.gjf
 ---------------------
 Symbolic Z-matrix:
 Charge =  0 Multiplicity = 1

                         Standard orientation:
 ---------------------------------------------------------------------
 Center     Atomic      Atomic             Coordinates (Angstroms)
 Number     Number       Type             X           Y           Z
 ---------------------------------------------------------------------
      1          8           0       -0.508564    1.434487   -0.239481
      2         16           0       -0.505285    0.034308    0.239112
      3          6           0        1.132841   -0.658260   -0.031390
      4          1           0       -0.641203    0.023964    1.656195
      5          8           0       -1.505796   -0.907304   -0.319686
      6          8           0        2.101176    0.102533   -0.087158
      7          1           0        1.234187   -1.661063   -0.123059
 ---------------------------------------------------------------------

 SCF Done:  E(RB3LYP) =  -663.071472888     A.U. after   13 cycles

 The electronic state is 1-A.
 Alpha  occ. eigenvalues --  -89.13205 -19.23778 -19.18674 -19.18553 -10.34758
 Alpha  occ. eigenvalues --   -8.16361  -6.12766  -6.12703  -6.12652  -1.13837
 Alpha  occ. eigenvalues --   -1.10593  -1.03089  -0.77656  -0.65993  -0.57958
 Alpha  occ. eigenvalues --   -0.52843  -0.51405  -0.48024  -0.44689  -0.38932
 Alpha  occ. eigenvalues --   -0.36108  -0.35618  -0.33972  -0.30955
 Alpha virt. eigenvalues --   -0.12801  -0.01902   0.00104   0.01358   0.02455
 Alpha virt. eigenvalues --    0.04834   0.06518   0.07314   0.08226   0.09095
 Alpha virt. eigenvalues --    0.09500   0.11655   0.14047   0.15476   0.17400

 Mulliken charges:
               1
     1  O   -0.618124
     2  S    1.138310
     3  C    0.046955
     4  H    0.118071
     5  O   -0.612814
     6  O   -0.294701
     7  H    0.222303
 Sum of Mulliken charges =  -0.00000

 Dipole moment (field-independent basis, Debye):
    X=              1.7461    Y=             -3.3719    Z=              3.4483  Tot=              5.1292
 Quadrupole moment (field-independent basis, Debye-Ang):
   XX=            -43.4272   YY=            -39.1282   ZZ=            -31.5167
   XY=             -5.0541   XZ=             -2.7396   YZ=              0.3583

 Normal termination of Gaussian 16 at Fri Sep 22 17:09:36 2023.
