 Gaussian 16, Revision A.03,
 Gaussian 16:  ES64L-G16RevA.03 25-Dec-2016

 ------------------------------------------------------
 # b3lyp/6-31+g(d,p) scrf=(iefpcm,solvent=acetonitrile)
 ------------------------------------------------------

 --------------------
 tmpdir/M2_ref_59.gjf
 --------------------
 Symbolic Z-matrix:
 Charge =  0 Multiplicity = 1

                         Standard orientation:
 ---------------------------------------------------------------------
 Center     Atomic      Atomic             Coordinates (Angstroms)
 Number     Number       Type             X           Y           Z
 ---------------------------------------------------------------------
      1          6           0        0.805689    0.483166   -0.000975
      2          6           0       -0.584671    0.642593   -0.000857
      3          6           0       -1.426635   -0.476752    0.000119
      4          8           0        1.290565   -0.650260    0.001687
      5          1           0        1.442162    1.361162   -0.007805
      6          1           0       -1.006603    1.691425    0.010691
      7          1           0       -1.024280   -1.403552   -0.005370
      8          1           0       -2.502096   -0.340996   -0.000733
 ---------------------------------------------------------------------

 SCF Done:  E(RB3LYP) =  -191.918196599     A.U. after   12 cycles

 The electronic state is 1-A.
 Alpha  occ. eigenvalues --  -19.15895 -10.28114 -10.22471 -10.21648  -1.05129
 Alpha  occ. eigenvalues --   -0.79752  -0.68036  -0.55521  -0.51971  -0.46188
 Alpha  occ. eigenvalues --   -0.42651  -0.41104  -0.39449  -0.28549  -0.27434
 Alpha virt. eigenvalues --   -0.09772   0.01363   0.03059   0.03909   0.04143
 Alpha virt. eigenvalues --    0.06258   0.06514   0.07522   0.09576   0.09809
 Alpha virt. eigenvalues --    0.12156   0.12352   0.14287   0.16375   0.19396

 Mulliken charges:
               1
     1  C    0.067947
     2  C    0.069652
     3  C   -0.283915
     4  O   -0.502678
     5  H    0.140058
     6  H    0.159603
     7  H    0.176791
     8  H    0.172543
 Sum of Mulliken charges =   0.00000

 Dipole moment (field-independent basis, Debye):
    X=             -2.8895    Y=              2.3766    Z=             -0.0032  Tot=              3.7413
 Quadrupole moment (field-independent basis, Debye-Ang):
   XX=            -24.1039   YY=            -22.4034   ZZ=            -25.2450
   XY=              4.1067   XZ=             -0.0188   YZ=              0.0258

 Normal termination of Gaussian 16 at Fri Sep 22 17:08:21 2023.
