 Gaussian 16, Revision A.03,
 Gaussian 16:  ES64L-G16RevA.03 25-Dec-2016

 ------------------------------------------------------
 # b3lyp/6-31+g(d,p) scrf=(iefpcm,solvent=acetonitrile)
 ------------------------------------------------------

 --------------------
 tmpdir/M2_ref_80.gjf
 --------------------
 Symbolic Z-matrix:
 Charge =  0 Multiplicity = 1

                         Standard orientation:
 ---------------------------------------------------------------------
 Center     Atomic      Atomic             Coordinates (Angstroms)
 Number     Number       Type             X           Y           Z
 ---------------------------------------------------------------------
      1          6           0        0.551454   -0.013142   -0.000291
      2          1           0        1.109514    0.918422    0.000591
      3          1           0        1.042456   -0.897718    0.000634
      4          8           0       -0.682587    0.007268    0.000065
 ---------------------------------------------------------------------

 SCF Done:  E(RB3LYP) =  -114.510781102     A.U. after    9 cycles

 The electronic state is 1-A.
 Alpha  occ. eigenvalues --  -19.18383 -10.28877  -1.06061  -0.65718  -0.51389
 Alpha  occ. eigenvalues --   -0.46009  -0.40344  -0.28332
 Alpha virt. eigenvalues --   -0.06566   0.02131   0.04260   0.05284   0.07328
 Alpha virt. eigenvalues --    0.16941   0.19450   0.20750   0.21404   0.25937
 Alpha virt. eigenvalues --    0.27406   0.35490   0.63228   0.65910   0.72424

 Mulliken charges:
               1
     1  C    0.125878
     2  H    0.141513
     3  H    0.147611
     4  O   -0.415003
 Sum of Mulliken charges =   0.00000

 Dipole moment (field-independent basis, Debye):
    X=              3.2714    Y=             -0.0965    Z=              0.0002  Tot=              3.2728
 Quadrupole moment (field-independent basis, Debye-Ang):
   XX=            -12.2813   YY=            -11.4776   ZZ=            -11.7048
   XY=             -0.0297   XZ=              0.0006   YZ=              0.0000

 Normal termination of Gaussian 16 at Fri Sep 22 17:08:21 2023.
