 Gaussian 16, Revision A.03,
 Gaussian 16:  ES64L-G16RevA.03 25-Dec-2016

 ------------------------------------------------------
 # b3lyp/6-31+g(d,p) scrf=(iefpcm,solvent=acetonitrile)
 ------------------------------------------------------

 --------------------
 tmpdir/M2_ref_33.gjf
 --------------------
 Symbolic Z-matrix:
 Charge =  0 Multiplicity = 1

                         Standard orientation:
 ---------------------------------------------------------------------
 Center     Atomic      Atomic             Coordinates (Angstroms)
 Number     Number       Type             X           Y           Z
 ---------------------------------------------------------------------
      1          6           0       -1.414259   -0.484720   -0.000669
      2          6           0       -0.596823    0.656814   -0.003295
      3          6           0        0.797984    0.480778   -0.002594
      4          1           0       -1.016651   -1.413921    0.002634
      5          1           0       -2.494744   -0.369734    0.000971
      6          1           0       -1.031431    1.659080    0.019877
      7          8           0        1.296564   -0.642926    0.001994
      8          1           0        1.448895    1.350754   -0.000088
 ---------------------------------------------------------------------

 SCF Done:  E(RB3LYP) =  -191.919910710     A.U. after   12 cycles

 The electronic state is 1-A.
 Alpha  occ. eigenvalues --  -19.15841 -10.28099 -10.22498 -10.21469  -1.05230
 Alpha  occ. eigenvalues --   -0.79802  -0.67792  -0.55720  -0.52246  -0.46208
 Alpha  occ. eigenvalues --   -0.42266  -0.41103  -0.40037  -0.28551  -0.27360
 Alpha virt. eigenvalues --   -0.09664   0.01405   0.03102   0.03941   0.04084
 Alpha virt. eigenvalues --    0.06293   0.06494   0.07530   0.09631   0.09806
 Alpha virt. eigenvalues --    0.12182   0.12308   0.14318   0.16416   0.19903

 Mulliken charges:
               1
     1  C   -0.281415
     2  C    0.066196
     3  C    0.068827
     4  H    0.177623
     5  H    0.170494
     6  H    0.161816
     7  O   -0.499176
     8  H    0.135637
 Sum of Mulliken charges =  -0.00000

 Dipole moment (field-independent basis, Debye):
    X=             -2.9514    Y=              2.3458    Z=              0.0181  Tot=              3.7702
 Quadrupole moment (field-independent basis, Debye-Ang):
   XX=            -24.1683   YY=            -22.3357   ZZ=            -25.2183
   XY=              3.9872   XZ=             -0.0426   YZ=              0.0365

 Normal termination of Gaussian 16 at Fri Sep 22 17:07:04 2023.
