 Gaussian 16, Revision A.03,
 Gaussian 16:  ES64L-G16RevA.03 25-Dec-2016

 ------------------------------------------------------
 # b3lyp/6-31+g(d,p) scrf=(iefpcm,solvent=acetonitrile)
 ------------------------------------------------------

 --------------------
 tmpdir/M2_ref_27.gjf
 --------------------
 Symbolic Z-matrix:
 Charge =  0 Multiplicity = 1

                         Standard orientation:
 ---------------------------------------------------------------------
 Center     Atomic      Atomic             Coordinates (Angstroms)
 Number     Number       Type             X           Y           Z
 ---------------------------------------------------------------------
      1          6           0        0.693918    0.484611   -0.002672
      2          6           0       -0.711937    0.491436   -0.003129
      3          6           0        1.408792   -0.712623    0.002672
      4          1           0        1.235351    1.426627   -0.000469
      5          6           0       -1.385990   -0.740211   -0.000114
      6          1           0       -1.264050    1.434091    0.019931
 ---------------------------------------------------------------------

 SCF Done:  E(RB3LYP) =  -153.324918548     A.U. after   14 cycles

 The electronic state is 1-A.
 Alpha  occ. eigenvalues --  -10.29203 -10.28908 -10.24305 -10.24080  -0.85547
 Alpha  occ. eigenvalues --   -0.72896  -0.61290  -0.50024  -0.49151  -0.36772
 Alpha  occ. eigenvalues --   -0.33639  -0.31499  -0.25383
 Alpha virt. eigenvalues --   -0.14531  -0.11468  -0.08311   0.02251   0.03736
 Alpha virt. eigenvalues --    0.04064   0.04478   0.05815   0.06098   0.08876
 Alpha virt. eigenvalues --    0.09197   0.09337   0.10644   0.12164   0.12875

 Mulliken charges:
               1
     1  C    0.186218
     2  C    0.177827
     3  C   -0.432624
     4  H    0.236486
     5  C   -0.401933
     6  H    0.234027
 Sum of Mulliken charges =  -0.00000

 Dipole moment (field-independent basis, Debye):
    X=             -0.1622    Y=              4.7688    Z=              0.0261  Tot=              4.7716
 Quadrupole moment (field-independent basis, Debye-Ang):
   XX=            -26.2256   YY=            -24.4491   ZZ=            -26.9533
   XY=              0.0721   XZ=             -0.0728   YZ=              0.0509

 Normal termination of Gaussian 16 at Fri Sep 22 17:07:02 2023.
