 Gaussian 16, Revision A.03,
 Gaussian 16:  ES64L-G16RevA.03 25-Dec-2016

 ------------------------------------------------------
 # b3lyp/6-31+g(d,p) scrf=(iefpcm,solvent=acetonitrile)
 ------------------------------------------------------

 -------------------
 tmpdir/M2_ref_6.gjf
 -------------------
 Symbolic Z-matrix:
 Charge =  0 Multiplicity = 1

                         Standard orientation:
 ---------------------------------------------------------------------
 Center     Atomic      Atomic             Coordinates (Angstroms)
 Number     Number       Type             X           Y           Z
 ---------------------------------------------------------------------
      1          6           0       -0.693114   -0.015754   -0.010443
      2          6           0        0.701123   -0.005157    0.000579
      3          1           0       -1.210165   -0.885587    0.016316
      4          1           0       -1.270197    0.956523    0.031338
      5          1           0        1.198001   -0.885169    0.014976
      6          1           0        1.234308    0.939697   -0.003446
 ---------------------------------------------------------------------

 SCF Done:  E(RB3LYP) =  -78.5876442956     A.U. after    9 cycles

 The electronic state is 1-A.
 Alpha  occ. eigenvalues --  -10.19946 -10.19557  -0.75822  -0.59646  -0.47873
 Alpha  occ. eigenvalues --   -0.41357  -0.37459  -0.27171
 Alpha virt. eigenvalues --   -0.02191   0.02524   0.03673   0.05152   0.06679
 Alpha virt. eigenvalues --    0.08780   0.09058   0.12413   0.15906   0.17595
 Alpha virt. eigenvalues --    0.21830   0.25119   0.32694   0.35282   0.58265

 Mulliken charges:
               1
     1  C   -0.297057
     2  C   -0.299843
     3  H    0.149895
     4  H    0.146901
     5  H    0.148865
     6  H    0.151239
 Sum of Mulliken charges =  -0.00000

 Dipole moment (field-independent basis, Debye):
    X=              0.0120    Y=             -0.0599    Z=              0.0760  Tot=              0.0976
 Quadrupole moment (field-independent basis, Debye-Ang):
   XX=            -12.3113   YY=            -12.2255   ZZ=            -16.2165
   XY=              0.0388   XZ=             -0.0544   YZ=             -0.0039

 Normal termination of Gaussian 16 at Fri Sep 22 17:06:53 2023.
