 Gaussian 16, Revision A.03,
 Gaussian 16:  ES64L-G16RevA.03 25-Dec-2016

 ------------------------------------------------------
 # b3lyp/6-31+g(d,p) scrf=(iefpcm,solvent=acetonitrile)
 ------------------------------------------------------

 --------------------
 tmpdir/M2_ref_51.gjf
 --------------------
 Symbolic Z-matrix:
 Charge =  0 Multiplicity = 1

                         Standard orientation:
 ---------------------------------------------------------------------
 Center     Atomic      Atomic             Coordinates (Angstroms)
 Number     Number       Type             X           Y           Z
 ---------------------------------------------------------------------
      1          7           0        1.098686   -0.156321   -0.019027
      2          6           0       -0.175624    0.429467   -0.029716
      3          1           0        1.932369    0.404895    0.330026
      4          1           0        1.201462   -1.145742   -0.176521
      5          1           0       -0.268082    1.487230   -0.133707
      6          8           0       -1.187851   -0.278617    0.036460
 ---------------------------------------------------------------------

 SCF Done:  E(RB3LYP) =  -169.911869697     A.U. after   10 cycles

 The electronic state is 1-A.
 Alpha  occ. eigenvalues --  -19.14961 -14.37552 -10.31071  -1.04935  -0.89875
 Alpha  occ. eigenvalues --   -0.63443  -0.54196  -0.50308  -0.44035  -0.40533
 Alpha  occ. eigenvalues --   -0.28857  -0.27878
 Alpha virt. eigenvalues --   -0.01700   0.00846   0.03499   0.04119   0.06183
 Alpha virt. eigenvalues --    0.10350   0.10955   0.14403   0.16656   0.18638
 Alpha virt. eigenvalues --    0.20035   0.22319   0.23749   0.25525   0.27256

 Mulliken charges:
               1
     1  N   -0.561694
     2  C    0.288925
     3  H    0.335445
     4  H    0.339183
     5  H    0.156550
     6  O   -0.558409
 Sum of Mulliken charges =   0.00000

 Dipole moment (field-independent basis, Debye):
    X=              4.5797    Y=              1.5546    Z=              0.1641  Tot=              4.8392
 Quadrupole moment (field-independent basis, Debye-Ang):
   XX=            -18.6972   YY=            -15.0938   ZZ=            -19.1190
   XY=             -1.8692   XZ=              1.2175   YZ=              0.7611

 Normal termination of Gaussian 16 at Fri Sep 22 17:07:33 2023.
