 Gaussian 16, Revision A.03,
 Gaussian 16:  ES64L-G16RevA.03 25-Dec-2016

 ------------------------------------------------------
 # b3lyp/6-31+g(d,p) scrf=(iefpcm,solvent=acetonitrile)
 ------------------------------------------------------

 ---------------------
 tmpdir/M2_ref_132.gjf
 ---------------------
 Symbolic Z-matrix:
 Charge =  0 Multiplicity = 1

                         Standard orientation:
 ---------------------------------------------------------------------
 Center     Atomic      Atomic             Coordinates (Angstroms)
 Number     Number       Type             X           Y           Z
 ---------------------------------------------------------------------
      1          6           0        0.809587    0.485311   -0.002163
      2          6           0       -0.577040    0.650623   -0.000843
      3          6           0       -1.417413   -0.467902   -0.000127
      4          8           0        1.269600   -0.658354    0.000532
      5          1           0        1.472560    1.343466    0.007286
      6          1           0       -0.998169    1.650837    0.003524
      7          1           0       -1.027346   -1.402363    0.002180
      8          1           0       -2.494651   -0.333304    0.001551
 ---------------------------------------------------------------------

 SCF Done:  E(RB3LYP) =  -191.918578253     A.U. after   12 cycles

 The electronic state is 1-A.
 Alpha  occ. eigenvalues --  -19.15744 -10.28037 -10.22381 -10.21166  -1.05102
 Alpha  occ. eigenvalues --   -0.79819  -0.67951  -0.55764  -0.52339  -0.46150
 Alpha  occ. eigenvalues --   -0.42541  -0.41096  -0.39704  -0.28469  -0.27356
 Alpha virt. eigenvalues --   -0.09727   0.01432   0.03128   0.03963   0.04154
 Alpha virt. eigenvalues --    0.06273   0.06545   0.07508   0.09672   0.09826
 Alpha virt. eigenvalues --    0.12251   0.12394   0.14334   0.16431   0.20093

 Mulliken charges:
               1
     1  C    0.071247
     2  C    0.061447
     3  C   -0.276160
     4  O   -0.501490
     5  H    0.140930
     6  H    0.156673
     7  H    0.176544
     8  H    0.170810
 Sum of Mulliken charges =   0.00000

 Dipole moment (field-independent basis, Debye):
    X=             -2.8201    Y=              2.4212    Z=              0.0069  Tot=              3.7169
 Quadrupole moment (field-independent basis, Debye-Ang):
   XX=            -23.9430   YY=            -22.4464   ZZ=            -25.1850
   XY=              4.1413   XZ=             -0.0094   YZ=              0.0068

 Normal termination of Gaussian 16 at Fri Sep 22 17:09:15 2023.
