 Gaussian 16, Revision A.03,
 Gaussian 16:  ES64L-G16RevA.03 25-Dec-2016

 ------------------------------------------------------
 # b3lyp/6-31+g(d,p) scrf=(iefpcm,solvent=acetonitrile)
 ------------------------------------------------------

 --------------------
 tmpdir/M2_ref_52.gjf
 --------------------
 Symbolic Z-matrix:
 Charge =  0 Multiplicity = 1

                         Standard orientation:
 ---------------------------------------------------------------------
 Center     Atomic      Atomic             Coordinates (Angstroms)
 Number     Number       Type             X           Y           Z
 ---------------------------------------------------------------------
      1         16           0       -1.146016   -0.417312    0.203140
      2          7           0        0.427638   -0.546714   -0.619058
      3          6           0        1.467957    0.394211   -0.300745
      4          1           0       -0.719230   -0.364531    1.512827
      5          8           0       -1.705861    0.951764   -0.105372
      6          1           0        0.631667   -1.344817   -1.153678
      7          1           0        1.455189    1.299764   -0.754722
      8          8           0        2.351789    0.116774    0.515773
 ---------------------------------------------------------------------

 SCF Done:  E(RB3LYP) =  -643.227610491     A.U. after   13 cycles

 The electronic state is 1-A.
 Alpha  occ. eigenvalues --  -89.04836 -19.19331 -19.15615 -14.38182 -10.33349
 Alpha  occ. eigenvalues --   -8.09044  -6.05575  -6.05342  -6.04743  -1.08082
 Alpha  occ. eigenvalues --   -1.05014  -0.91954  -0.72894  -0.65337  -0.55168
 Alpha  occ. eigenvalues --   -0.53624  -0.48279  -0.47589  -0.41769  -0.40943
 Alpha  occ. eigenvalues --   -0.32969  -0.31425  -0.29473  -0.26828
 Alpha virt. eigenvalues --   -0.08571  -0.01856  -0.00676   0.00137   0.02938
 Alpha virt. eigenvalues --    0.03666   0.05074   0.06639   0.07703   0.09033
 Alpha virt. eigenvalues --    0.09991   0.12067   0.13716   0.15680   0.17975

 Mulliken charges:
               1
     1  S    0.877053
     2  N   -0.692823
     3  C    0.292348
     4  H    0.086609
     5  O   -0.730042
     6  H    0.377151
     7  H    0.174444
     8  O   -0.384740
 Sum of Mulliken charges =   0.00000

 Dipole moment (field-independent basis, Debye):
    X=              0.4415    Y=             -3.1285    Z=             -0.6019  Tot=              3.2163
 Quadrupole moment (field-independent basis, Debye-Ang):
   XX=            -47.7224   YY=            -35.8179   ZZ=            -33.1399
   XY=              5.8013   XZ=             -7.4713   YZ=              0.9381

 Normal termination of Gaussian 16 at Fri Sep 22 17:08:02 2023.
