 Gaussian 16, Revision A.03,
 Gaussian 16:  ES64L-G16RevA.03 25-Dec-2016

 ------------------------------------------------------
 # b3lyp/6-31+g(d,p) scrf=(iefpcm,solvent=acetonitrile)
 ------------------------------------------------------

 --------------------
 tmpdir/M2_ref_11.gjf
 --------------------
 Symbolic Z-matrix:
 Charge =  0 Multiplicity = 1

                         Standard orientation:
 ---------------------------------------------------------------------
 Center     Atomic      Atomic             Coordinates (Angstroms)
 Number     Number       Type             X           Y           Z
 ---------------------------------------------------------------------
      1          6           0       -1.548528   -0.612924   -0.060628
      2          6           0       -0.410884    0.191301    0.059447
      3         16           0        1.216230   -0.597929   -0.017148
      4          8           0       -2.657144   -0.081728   -0.071331
      5          1           0       -1.461879   -1.693154   -0.139817
      6          8           0       -0.502080    1.415235    0.128294
      7          8           0        2.214411    0.525575   -0.173180
      8          1           0        1.317182   -1.082898    1.351006
 ---------------------------------------------------------------------

 SCF Done:  E(RB3LYP) =  -701.180382470     A.U. after   15 cycles

 The electronic state is 1-A.
 Alpha  occ. eigenvalues --  -89.03348 -19.22337 -19.21271 -19.16034 -10.33966
 Alpha  occ. eigenvalues --  -10.32248  -8.08200  -6.04607  -6.04471  -6.03946
 Alpha  occ. eigenvalues --   -1.12188  -1.08234  -1.04719  -0.81368  -0.71883
 Alpha  occ. eigenvalues --   -0.58669  -0.56383  -0.50727  -0.50088  -0.47527
 Alpha  occ. eigenvalues --   -0.46227  -0.42315  -0.40234  -0.34906  -0.32822
 Alpha  occ. eigenvalues --   -0.30384  -0.27316
 Alpha virt. eigenvalues --   -0.16080  -0.04306  -0.02344   0.00424   0.01579
 Alpha virt. eigenvalues --    0.02601   0.04379   0.05290   0.06068   0.07627
 Alpha virt. eigenvalues --    0.08337   0.09494   0.10146   0.12414   0.12702

 Mulliken charges:
               1
     1  C    0.181475
     2  C    0.186772
     3  S    0.756212
     4  O   -0.365511
     5  H    0.181587
     6  O   -0.337728
     7  O   -0.726301
     8  H    0.123494
 Sum of Mulliken charges =  -0.00000

 Dipole moment (field-independent basis, Debye):
    X=             -0.5149    Y=             -6.7384    Z=              1.5105  Tot=              6.9248
 Quadrupole moment (field-independent basis, Debye-Ang):
   XX=            -57.6271   YY=            -41.5529   ZZ=            -37.3145
   XY=             -2.4063   XZ=              2.7430   YZ=             -1.7600

 Normal termination of Gaussian 16 at Fri Sep 22 17:08:03 2023.
