 Gaussian 16, Revision A.03,
 Gaussian 16:  ES64L-G16RevA.03 25-Dec-2016

 ------------------------------------------------------
 # b3lyp/6-31+g(d,p) scrf=(iefpcm,solvent=acetonitrile)
 ------------------------------------------------------

 ---------------------
 tmpdir/M2_ref_135.gjf
 ---------------------
 Symbolic Z-matrix:
 Charge =  0 Multiplicity = 1

                         Standard orientation:
 ---------------------------------------------------------------------
 Center     Atomic      Atomic             Coordinates (Angstroms)
 Number     Number       Type             X           Y           Z
 ---------------------------------------------------------------------
      1          6           0       -0.701385    0.484022   -0.000326
      2          6           0        0.697463    0.485673   -0.001161
      3          6           0       -1.401202   -0.724747   -0.000222
      4          1           0       -1.249020    1.420992    0.004813
      5          6           0        1.407375   -0.719875    0.000873
      6          1           0        1.235520    1.428570    0.000206
 ---------------------------------------------------------------------

 SCF Done:  E(RB3LYP) =  -153.325039016     A.U. after   13 cycles

 The electronic state is 1-A.
 Alpha  occ. eigenvalues --  -10.29047 -10.29018 -10.24105 -10.24043  -0.85663
 Alpha  occ. eigenvalues --   -0.72979  -0.61419  -0.50184  -0.49150  -0.36853
 Alpha  occ. eigenvalues --   -0.33619  -0.31488  -0.25385
 Alpha virt. eigenvalues --   -0.14467  -0.11521  -0.08313   0.02246   0.03752
 Alpha virt. eigenvalues --    0.04193   0.04497   0.05821   0.06097   0.08910
 Alpha virt. eigenvalues --    0.09204   0.09365   0.10646   0.12173   0.12875

 Mulliken charges:
               1
     1  C    0.189465
     2  C    0.185010
     3  C   -0.422982
     4  H    0.234522
     5  C   -0.420615
     6  H    0.234599
 Sum of Mulliken charges =  -0.00000

 Dipole moment (field-independent basis, Debye):
    X=             -0.0290    Y=              4.7425    Z=              0.0066  Tot=              4.7426
 Quadrupole moment (field-independent basis, Debye-Ang):
   XX=            -26.3985   YY=            -24.4037   ZZ=            -26.9250
   XY=             -0.0064   XZ=             -0.0177   YZ=              0.0134

 Normal termination of Gaussian 16 at Fri Sep 22 17:09:13 2023.
