 Gaussian 16, Revision A.03,
 Gaussian 16:  ES64L-G16RevA.03 25-Dec-2016

 ------------------------------------------------------
 # b3lyp/6-31+g(d,p) scrf=(iefpcm,solvent=acetonitrile)
 ------------------------------------------------------

 --------------------
 tmpdir/M2_ref_77.gjf
 --------------------
 Symbolic Z-matrix:
 Charge =  0 Multiplicity = 1

                         Standard orientation:
 ---------------------------------------------------------------------
 Center     Atomic      Atomic             Coordinates (Angstroms)
 Number     Number       Type             X           Y           Z
 ---------------------------------------------------------------------
      1          6           0        0.804242    0.485034    0.002936
      2          6           0       -0.582022    0.647659   -0.001682
      3          6           0       -1.423200   -0.471379    0.001129
      4          8           0        1.284587   -0.652541   -0.001741
      5          1           0        1.461913    1.346727    0.003097
      6          1           0       -1.005116    1.647659   -0.005663
      7          1           0       -1.026477   -1.402062    0.001877
      8          1           0       -2.501137   -0.339877    0.000319
 ---------------------------------------------------------------------

 SCF Done:  E(RB3LYP) =  -191.919046723     A.U. after   12 cycles

 The electronic state is 1-A.
 Alpha  occ. eigenvalues --  -19.15772 -10.28050 -10.22460 -10.21230  -1.04969
 Alpha  occ. eigenvalues --   -0.79899  -0.68005  -0.55753  -0.52358  -0.46117
 Alpha  occ. eigenvalues --   -0.42599  -0.41032  -0.39737  -0.28523  -0.27368
 Alpha virt. eigenvalues --   -0.09780   0.01411   0.03132   0.03962   0.04155
 Alpha virt. eigenvalues --    0.06273   0.06542   0.07519   0.09678   0.09816
 Alpha virt. eigenvalues --    0.12246   0.12388   0.14307   0.16415   0.20013

 Mulliken charges:
               1
     1  C    0.068136
     2  C    0.065836
     3  C   -0.276472
     4  O   -0.503434
     5  H    0.140062
     6  H    0.157542
     7  H    0.176368
     8  H    0.171962
 Sum of Mulliken charges =  -0.00000

 Dipole moment (field-independent basis, Debye):
    X=             -2.9097    Y=              2.4081    Z=              0.0065  Tot=              3.7769
 Quadrupole moment (field-independent basis, Debye-Ang):
   XX=            -23.9962   YY=            -22.4426   ZZ=            -25.1893
   XY=              4.1183   XZ=              0.0123   YZ=             -0.0118

 Normal termination of Gaussian 16 at Fri Sep 22 17:08:22 2023.
