 Gaussian 16, Revision A.03,
 Gaussian 16:  ES64L-G16RevA.03 25-Dec-2016

 ------------------------------------------------------
 # b3lyp/6-31+g(d,p) scrf=(iefpcm,solvent=acetonitrile)
 ------------------------------------------------------

 --------------------
 tmpdir/M2_ref_29.gjf
 --------------------
 Symbolic Z-matrix:
 Charge =  0 Multiplicity = 1

                         Standard orientation:
 ---------------------------------------------------------------------
 Center     Atomic      Atomic             Coordinates (Angstroms)
 Number     Number       Type             X           Y           Z
 ---------------------------------------------------------------------
      1          6           0        1.428897   -0.466814    0.001833
      2          6           0        0.582775    0.641560   -0.003376
      3          6           0       -0.814774    0.488804   -0.002885
      4          1           0        1.024164   -1.394608   -0.005522
      5          1           0        2.506645   -0.328699    0.009701
      6          1           0        1.013812    1.638934   -0.001812
      7          8           0       -1.281967   -0.657457    0.000491
      8          1           0       -1.470278    1.362724    0.020274
 ---------------------------------------------------------------------

 SCF Done:  E(RB3LYP) =  -191.920090478     A.U. after   12 cycles

 The electronic state is 1-A.
 Alpha  occ. eigenvalues --  -19.15931 -10.28363 -10.22294 -10.21197  -1.04918
 Alpha  occ. eigenvalues --   -0.79785  -0.67854  -0.55672  -0.52284  -0.46061
 Alpha  occ. eigenvalues --   -0.42731  -0.40977  -0.39537  -0.28538  -0.27458
 Alpha virt. eigenvalues --   -0.09722   0.01426   0.03132   0.03947   0.04028
 Alpha virt. eigenvalues --    0.06214   0.06536   0.07487   0.09699   0.09804
 Alpha virt. eigenvalues --    0.12272   0.12418   0.14267   0.16403   0.20010

 Mulliken charges:
               1
     1  C   -0.278649
     2  C    0.058334
     3  C    0.074056
     4  H    0.174723
     5  H    0.172201
     6  H    0.155475
     7  O   -0.500086
     8  H    0.143947
 Sum of Mulliken charges =  -0.00000

 Dipole moment (field-independent basis, Debye):
    X=              2.8195    Y=              2.4454    Z=              0.0087  Tot=              3.7322
 Quadrupole moment (field-independent basis, Debye-Ang):
   XX=            -23.9230   YY=            -22.5026   ZZ=            -25.2199
   XY=             -4.1438   XZ=              0.0111   YZ=              0.0133

 Normal termination of Gaussian 16 at Fri Sep 22 17:07:24 2023.
