 Gaussian 16, Revision A.03,
 Gaussian 16:  ES64L-G16RevA.03 25-Dec-2016

 ------------------------------------------------------
 # b3lyp/6-31+g(d,p) scrf=(iefpcm,solvent=acetonitrile)
 ------------------------------------------------------

 ---------------------
 tmpdir/M2_ref_130.gjf
 ---------------------
 Symbolic Z-matrix:
 Charge =  0 Multiplicity = 1

                         Standard orientation:
 ---------------------------------------------------------------------
 Center     Atomic      Atomic             Coordinates (Angstroms)
 Number     Number       Type             X           Y           Z
 ---------------------------------------------------------------------
      1          6           0        0.699411   -0.008614   -0.000494
      2          6           0       -0.699633   -0.007892   -0.000408
      3          1           0        1.206222   -0.883256   -0.000042
      4          1           0        1.246594    0.928603    0.002855
      5          1           0       -1.212876   -0.880787    0.002845
      6          1           0       -1.238608    0.934481   -0.000244
 ---------------------------------------------------------------------

 SCF Done:  E(RB3LYP) =  -78.5886758527     A.U. after    9 cycles

 The electronic state is 1-A.
 Alpha  occ. eigenvalues --  -10.19608 -10.19548  -0.75815  -0.59960  -0.48008
 Alpha  occ. eigenvalues --   -0.41407  -0.37820  -0.27080
 Alpha virt. eigenvalues --   -0.02253   0.02535   0.03702   0.05223   0.06702
 Alpha virt. eigenvalues --    0.08824   0.09086   0.12403   0.16009   0.18268
 Alpha virt. eigenvalues --    0.21969   0.25645   0.32480   0.35438   0.58407

 Mulliken charges:
               1
     1  C   -0.298631
     2  C   -0.298572
     3  H    0.148631
     4  H    0.149918
     5  H    0.149140
     6  H    0.149514
 Sum of Mulliken charges =  -0.00000

 Dipole moment (field-independent basis, Debye):
    X=              0.0019    Y=             -0.0396    Z=              0.0070  Tot=              0.0402
 Quadrupole moment (field-independent basis, Debye-Ang):
   XX=            -12.2451   YY=            -12.2347   ZZ=            -16.1884
   XY=              0.0149   XZ=              0.0004   YZ=             -0.0002

 Normal termination of Gaussian 16 at Fri Sep 22 17:08:55 2023.
