 Gaussian 16, Revision A.03,
 Gaussian 16:  ES64L-G16RevA.03 25-Dec-2016

 ------------------------------------------------------
 # b3lyp/6-31+g(d,p) scrf=(iefpcm,solvent=acetonitrile)
 ------------------------------------------------------

 --------------------
 tmpdir/M2_ref_17.gjf
 --------------------
 Symbolic Z-matrix:
 Charge =  0 Multiplicity = 1

                         Standard orientation:
 ---------------------------------------------------------------------
 Center     Atomic      Atomic             Coordinates (Angstroms)
 Number     Number       Type             X           Y           Z
 ---------------------------------------------------------------------
      1          6           0        0.698519   -0.009680    0.000529
      2          6           0       -0.695911   -0.006872   -0.000766
      3          1           0        1.188591   -0.895385   -0.004224
      4          1           0        1.244619    0.929706    0.002637
      5          1           0       -1.223639   -0.877024    0.004986
      6          1           0       -1.225216    0.942014   -0.001977
 ---------------------------------------------------------------------

 SCF Done:  E(RB3LYP) =  -78.5897466893     A.U. after    9 cycles

 The electronic state is 1-A.
 Alpha  occ. eigenvalues --  -10.19569 -10.19504  -0.75886  -0.59781  -0.48082
 Alpha  occ. eigenvalues --   -0.41331  -0.37753  -0.27137
 Alpha virt. eigenvalues --   -0.02156   0.02547   0.03714   0.05194   0.06693
 Alpha virt. eigenvalues --    0.08805   0.09086   0.12433   0.15998   0.18131
 Alpha virt. eigenvalues --    0.21960   0.25566   0.32700   0.35428   0.58290

 Mulliken charges:
               1
     1  C   -0.298245
     2  C   -0.298480
     3  H    0.147981
     4  H    0.150664
     5  H    0.149716
     6  H    0.148363
 Sum of Mulliken charges =  -0.00000

 Dipole moment (field-independent basis, Debye):
    X=             -0.0037    Y=             -0.0378    Z=              0.0018  Tot=              0.0380
 Quadrupole moment (field-independent basis, Debye-Ang):
   XX=            -12.3087   YY=            -12.2016   ZZ=            -16.1806
   XY=              0.0588   XZ=             -0.0067   YZ=              0.0000

 Normal termination of Gaussian 16 at Fri Sep 22 17:07:11 2023.
