 Gaussian 16, Revision A.03,
 Gaussian 16:  ES64L-G16RevA.03 25-Dec-2016

 ------------------------------------------------------
 # b3lyp/6-31+g(d,p) scrf=(iefpcm,solvent=acetonitrile)
 ------------------------------------------------------

 --------------------
 tmpdir/M2_ref_72.gjf
 --------------------
 Symbolic Z-matrix:
 Charge =  0 Multiplicity = 1

                         Standard orientation:
 ---------------------------------------------------------------------
 Center     Atomic      Atomic             Coordinates (Angstroms)
 Number     Number       Type             X           Y           Z
 ---------------------------------------------------------------------
      1          6           0        1.423069   -0.471679   -0.000223
      2          6           0        0.585241    0.647857   -0.002078
      3          6           0       -0.802746    0.484138    0.000270
      4          1           0        1.019323   -1.400800   -0.003340
      5          1           0        2.501713   -0.360031    0.008906
      6          1           0        1.018492    1.643422    0.000379
      7          8           0       -1.290016   -0.649813    0.000243
      8          1           0       -1.452779    1.354014    0.004306
 ---------------------------------------------------------------------

 SCF Done:  E(RB3LYP) =  -191.919851428     A.U. after   12 cycles

 The electronic state is 1-A.
 Alpha  occ. eigenvalues --  -19.15826 -10.28113 -10.22421 -10.21233  -1.05015
 Alpha  occ. eigenvalues --   -0.79931  -0.67973  -0.55744  -0.52350  -0.46103
 Alpha  occ. eigenvalues --   -0.42649  -0.41052  -0.39702  -0.28564  -0.27404
 Alpha virt. eigenvalues --   -0.09750   0.01412   0.03126   0.03965   0.04151
 Alpha virt. eigenvalues --    0.06263   0.06540   0.07530   0.09681   0.09811
 Alpha virt. eigenvalues --    0.12247   0.12388   0.14316   0.16406   0.20004

 Mulliken charges:
               1
     1  C   -0.278629
     2  C    0.067030
     3  C    0.068887
     4  H    0.176018
     5  H    0.172218
     6  H    0.158026
     7  O   -0.503096
     8  H    0.139545
 Sum of Mulliken charges =  -0.00000

 Dipole moment (field-independent basis, Debye):
    X=              2.9346    Y=              2.3893    Z=              0.0088  Tot=              3.7842
 Quadrupole moment (field-independent basis, Debye-Ang):
   XX=            -24.0127   YY=            -22.4434   ZZ=            -25.1859
   XY=             -4.1041   XZ=              0.0208   YZ=              0.0058

 Normal termination of Gaussian 16 at Fri Sep 22 17:08:07 2023.
