 Gaussian 16, Revision A.03,
 Gaussian 16:  ES64L-G16RevA.03 25-Dec-2016

 ------------------------------------------------------
 # b3lyp/6-31+g(d,p) scrf=(iefpcm,solvent=acetonitrile)
 ------------------------------------------------------

 --------------------
 tmpdir/M2_ref_49.gjf
 --------------------
 Symbolic Z-matrix:
 Charge =  0 Multiplicity = 1

                         Standard orientation:
 ---------------------------------------------------------------------
 Center     Atomic      Atomic             Coordinates (Angstroms)
 Number     Number       Type             X           Y           Z
 ---------------------------------------------------------------------
      1          8           0       -1.241894    0.645799   -0.002020
      2         16           0       -0.207819   -0.453037   -0.080889
      3          7           0        1.395001    0.317308    0.000846
      4          1           0       -0.226895   -1.078539    1.147361
      5          1           0        1.634818    0.872332    0.806301
      6          1           0        2.087324    0.067255   -0.649212
 ---------------------------------------------------------------------

 SCF Done:  E(RB3LYP) =  -529.919755038     A.U. after   11 cycles

 The electronic state is 1-A.
 Alpha  occ. eigenvalues --  -89.03601 -19.14572 -14.36196  -8.07811  -6.04314
 Alpha  occ. eigenvalues --   -6.04133  -6.03522  -1.03970  -0.88688  -0.70263
 Alpha  occ. eigenvalues --   -0.53576  -0.51055  -0.46049  -0.40357  -0.31580
 Alpha  occ. eigenvalues --   -0.28644  -0.26181
 Alpha virt. eigenvalues --   -0.02212  -0.00933   0.00775   0.03950   0.05922
 Alpha virt. eigenvalues --    0.07751   0.08869   0.11196   0.12267   0.14489
 Alpha virt. eigenvalues --    0.16514   0.19691   0.20167   0.22878   0.24177

 Mulliken charges:
               1
     1  O   -0.742952
     2  S    0.800002
     3  N   -0.829043
     4  H    0.075196
     5  H    0.348782
     6  H    0.348015
 Sum of Mulliken charges =   0.00000

 Dipole moment (field-independent basis, Debye):
    X=              4.2591    Y=             -2.9215    Z=              1.1791  Tot=              5.2977
 Quadrupole moment (field-independent basis, Debye-Ang):
   XX=            -25.8365   YY=            -26.3489   ZZ=            -23.5695
   XY=              4.0931   XZ=             -0.5748   YZ=              0.2811

 Normal termination of Gaussian 16 at Fri Sep 22 17:08:04 2023.
