 Gaussian 16, Revision A.03,
 Gaussian 16:  ES64L-G16RevA.03 25-Dec-2016

 ------------------------------------------------------
 # b3lyp/6-31+g(d,p) scrf=(iefpcm,solvent=acetonitrile)
 ------------------------------------------------------

 ---------------------
 tmpdir/M2_ref_128.gjf
 ---------------------
 Symbolic Z-matrix:
 Charge =  0 Multiplicity = 1

                         Standard orientation:
 ---------------------------------------------------------------------
 Center     Atomic      Atomic             Coordinates (Angstroms)
 Number     Number       Type             X           Y           Z
 ---------------------------------------------------------------------
      1          6           0       -0.685855    0.499198    0.000701
      2          6           0        0.712230    0.507293   -0.000952
      3          1           0        1.256214    1.445333    0.010947
      4          1           0       -1.238341    1.478543   -0.010029
      5          8           0       -1.331594   -0.550855    0.000946
      6          8           0        1.309579   -0.569498   -0.000873
 ---------------------------------------------------------------------

 SCF Done:  E(RB3LYP) =  -227.825806531     A.U. after   11 cycles

 The electronic state is 1-A.
 Alpha  occ. eigenvalues --  -19.20310 -19.20262 -10.30923 -10.30752  -1.10183
 Alpha  occ. eigenvalues --   -1.06434  -0.75838  -0.57812  -0.55527  -0.48856
 Alpha  occ. eigenvalues --   -0.46179  -0.45664  -0.39097  -0.31993  -0.29307
 Alpha virt. eigenvalues --   -0.14574   0.01259   0.02181   0.03404   0.03813
 Alpha virt. eigenvalues --    0.06062   0.07245   0.08854   0.10186   0.15306
 Alpha virt. eigenvalues --    0.15810   0.19838   0.19863   0.21387   0.23703

 Mulliken charges:
               1
     1  C    0.215941
     2  C    0.227463
     3  H    0.171683
     4  H    0.162161
     5  O   -0.389930
     6  O   -0.387318
 Sum of Mulliken charges =  -0.00000

 Dipole moment (field-independent basis, Debye):
    X=              0.1804    Y=              4.9182    Z=              0.0004  Tot=              4.9215
 Quadrupole moment (field-independent basis, Debye-Ang):
   XX=            -27.0630   YY=            -21.6055   ZZ=            -21.3358
   XY=              0.1967   XZ=              0.0197   YZ=              0.0010

 Normal termination of Gaussian 16 at Fri Sep 22 17:09:14 2023.
