 Gaussian 16, Revision A.03,
 Gaussian 16:  ES64L-G16RevA.03 25-Dec-2016

 ------------------------------------------------------
 # b3lyp/6-31+g(d,p) scrf=(iefpcm,solvent=acetonitrile)
 ------------------------------------------------------

 --------------------
 tmpdir/M2_ref_63.gjf
 --------------------
 Symbolic Z-matrix:
 Charge =  0 Multiplicity = 1

                         Standard orientation:
 ---------------------------------------------------------------------
 Center     Atomic      Atomic             Coordinates (Angstroms)
 Number     Number       Type             X           Y           Z
 ---------------------------------------------------------------------
      1          6           0       -0.697145    0.502971   -0.000802
      2          6           0        0.702320    0.506883   -0.000702
      3          1           0        1.231988    1.453158   -0.006805
      4          1           0       -1.238590    1.495392    0.011339
      5          8           0       -1.319204   -0.563741   -0.000765
      6          8           0        1.316149   -0.562218    0.001326
 ---------------------------------------------------------------------

 SCF Done:  E(RB3LYP) =  -227.825968612     A.U. after   11 cycles

 The electronic state is 1-A.
 Alpha  occ. eigenvalues --  -19.20350 -19.20278 -10.31051 -10.30694  -1.10091
 Alpha  occ. eigenvalues --   -1.06324  -0.75860  -0.57694  -0.55397  -0.48845
 Alpha  occ. eigenvalues --   -0.46114  -0.45654  -0.39041  -0.32009  -0.29340
 Alpha virt. eigenvalues --   -0.14604   0.01273   0.02114   0.03338   0.03826
 Alpha virt. eigenvalues --    0.06063   0.07219   0.08884   0.10190   0.15286
 Alpha virt. eigenvalues --    0.15728   0.19837   0.19954   0.21346   0.23567

 Mulliken charges:
               1
     1  C    0.221165
     2  C    0.224342
     3  H    0.168771
     4  H    0.166708
     5  O   -0.390282
     6  O   -0.390704
 Sum of Mulliken charges =  -0.00000

 Dipole moment (field-independent basis, Debye):
    X=              0.0524    Y=              4.9456    Z=             -0.0014  Tot=              4.9459
 Quadrupole moment (field-independent basis, Debye-Ang):
   XX=            -27.1230   YY=            -21.5333   ZZ=            -21.3507
   XY=              0.0573   XZ=             -0.0182   YZ=              0.0022

 Normal termination of Gaussian 16 at Fri Sep 22 17:07:38 2023.
