 Gaussian 16, Revision A.03,
 Gaussian 16:  ES64L-G16RevA.03 25-Dec-2016

 ------------------------------------------------------
 # b3lyp/6-31+g(d,p) scrf=(iefpcm,solvent=acetonitrile)
 ------------------------------------------------------

 ---------------------
 tmpdir/M2_ref_125.gjf
 ---------------------
 Symbolic Z-matrix:
 Charge =  0 Multiplicity = 1

                         Standard orientation:
 ---------------------------------------------------------------------
 Center     Atomic      Atomic             Coordinates (Angstroms)
 Number     Number       Type             X           Y           Z
 ---------------------------------------------------------------------
      1          6           0       -0.698525   -0.007603   -0.001715
      2          6           0        0.698207   -0.006227   -0.000442
      3          1           0       -1.183482   -0.895907    0.002849
      4          1           0       -1.255833    0.922629    0.005751
      5          1           0        1.207455   -0.881454    0.003805
      6          1           0        1.233769    0.937710    0.000539
 ---------------------------------------------------------------------

 SCF Done:  E(RB3LYP) =  -78.5888871205     A.U. after    9 cycles

 The electronic state is 1-A.
 Alpha  occ. eigenvalues --  -10.19550 -10.19492  -0.75883  -0.59849  -0.48108
 Alpha  occ. eigenvalues --   -0.41308  -0.37849  -0.27104
 Alpha virt. eigenvalues --   -0.02196   0.02550   0.03717   0.05204   0.06699
 Alpha virt. eigenvalues --    0.08813   0.09084   0.12421   0.16009   0.18193
 Alpha virt. eigenvalues --    0.22040   0.25625   0.32610   0.35458   0.58333

 Mulliken charges:
               1
     1  C   -0.298297
     2  C   -0.298377
     3  H    0.147705
     4  H    0.150866
     5  H    0.149032
     6  H    0.149072
 Sum of Mulliken charges =  -0.00000

 Dipole moment (field-independent basis, Debye):
    X=             -0.0016    Y=             -0.0424    Z=              0.0168  Tot=              0.0456
 Quadrupole moment (field-independent basis, Debye-Ang):
   XX=            -12.3019   YY=            -12.1989   ZZ=            -16.1804
   XY=             -0.0536   XZ=             -0.0064   YZ=             -0.0005

 Normal termination of Gaussian 16 at Fri Sep 22 17:09:02 2023.
