 Gaussian 16, Revision A.03,
 Gaussian 16:  ES64L-G16RevA.03 25-Dec-2016

 ------------------------------------------------------
 # b3lyp/6-31+g(d,p) scrf=(iefpcm,solvent=acetonitrile)
 ------------------------------------------------------

 --------------------
 tmpdir/M2_ref_23.gjf
 --------------------
 Symbolic Z-matrix:
 Charge =  0 Multiplicity = 1

                         Standard orientation:
 ---------------------------------------------------------------------
 Center     Atomic      Atomic             Coordinates (Angstroms)
 Number     Number       Type             X           Y           Z
 ---------------------------------------------------------------------
      1          6           0       -0.552539   -0.013708   -0.000418
      2          1           0       -1.102827    0.923231    0.000840
      3          1           0       -1.062963   -0.886051    0.000918
      4          8           0        0.685128    0.005634    0.000094
 ---------------------------------------------------------------------

 SCF Done:  E(RB3LYP) =  -114.510561954     A.U. after    9 cycles

 The electronic state is 1-A.
 Alpha  occ. eigenvalues --  -19.18445 -10.28948  -1.05889  -0.65862  -0.51252
 Alpha  occ. eigenvalues --   -0.46022  -0.40258  -0.28373
 Alpha virt. eigenvalues --   -0.06678   0.02125   0.04234   0.05299   0.07323
 Alpha virt. eigenvalues --    0.16977   0.19528   0.20720   0.21389   0.25865
 Alpha virt. eigenvalues --    0.27338   0.35350   0.63224   0.65593   0.72107

 Mulliken charges:
               1
     1  C    0.125709
     2  H    0.141039
     3  H    0.149611
     4  O   -0.416359
 Sum of Mulliken charges =   0.00000

 Dipole moment (field-independent basis, Debye):
    X=             -3.2917    Y=             -0.0947    Z=              0.0003  Tot=              3.2931
 Quadrupole moment (field-independent basis, Debye-Ang):
   XX=            -12.2520   YY=            -11.5016   ZZ=            -11.7131
   XY=              0.0688   XZ=             -0.0009   YZ=              0.0001

 Normal termination of Gaussian 16 at Fri Sep 22 17:07:04 2023.
