 Gaussian 16, Revision A.03,
 Gaussian 16:  ES64L-G16RevA.03 25-Dec-2016

 ------------------------------------------------------
 # b3lyp/6-31+g(d,p) scrf=(iefpcm,solvent=acetonitrile)
 ------------------------------------------------------

 --------------------
 tmpdir/M2_ref_92.gjf
 --------------------
 Symbolic Z-matrix:
 Charge =  0 Multiplicity = 2

                         Standard orientation:
 ---------------------------------------------------------------------
 Center     Atomic      Atomic             Coordinates (Angstroms)
 Number     Number       Type             X           Y           Z
 ---------------------------------------------------------------------
      1          6           0        0.795728    0.005741    0.014265
      2          6           0       -0.700836    0.009229   -0.001613
      3          1           0       -1.118821    1.005892   -0.149824
      4          1           0        1.405072    0.880807   -0.020185
      5          1           0        1.319400   -0.932998   -0.032234
      6          1           0       -1.107200   -0.404457    0.932374
      7          1           0       -1.067804   -0.639064   -0.806046
 ---------------------------------------------------------------------

 SCF Done:  E(UB3LYP) =  -79.1698299114     A.U. after   11 cycles

 The electronic state is 2-A.
 Alpha  occ. eigenvalues --  -10.19432 -10.18527  -0.75804  -0.61425  -0.45238
 Alpha  occ. eigenvalues --   -0.41510  -0.39443  -0.36096  -0.20514
 Alpha virt. eigenvalues --    0.02090   0.03151   0.05466   0.05923   0.08430
 Alpha virt. eigenvalues --    0.09033   0.09837   0.15073   0.17087   0.19237
 Alpha virt. eigenvalues --    0.22499   0.26345   0.29314   0.31075   0.61199

  Beta  occ. eigenvalues --  -10.18605 -10.18094  -0.74127  -0.59070  -0.44599
  Beta  occ. eigenvalues --   -0.40069  -0.38601  -0.35639
  Beta virt. eigenvalues --   -0.05810   0.02243   0.03342   0.05469   0.06377
  Beta virt. eigenvalues --    0.08405   0.09013   0.11261   0.15296   0.17528
  Beta virt. eigenvalues --    0.20173   0.23868   0.27215   0.29780   0.31418

 Mulliken charges and spin densities:
               1          2
     1  C   -0.256837   1.136214
     2  C   -0.522182  -0.131109
     3  H    0.158040   0.002939
     4  H    0.151213  -0.049168
     5  H    0.143613  -0.048872
     6  H    0.164125   0.051563
     7  H    0.162028   0.038432
 Sum of Mulliken charges =  -0.00000   1.00000

 Dipole moment (field-independent basis, Debye):
    X=             -0.3735    Y=             -0.0472    Z=             -0.0874  Tot=              0.3864
 Quadrupole moment (field-independent basis, Debye-Ang):
   XX=            -14.4978   YY=            -13.7636   ZZ=            -15.6188
   XY=              0.0722   XZ=             -0.1322   YZ=             -0.0056

 Normal termination of Gaussian 16 at Fri Sep 22 17:08:42 2023.
