 Gaussian 16, Revision A.03,
 Gaussian 16:  ES64L-G16RevA.03 25-Dec-2016

 ------------------------------------------------------
 # b3lyp/6-31+g(d,p) scrf=(iefpcm,solvent=acetonitrile)
 ------------------------------------------------------

 --------------------
 tmpdir/M2_ref_12.gjf
 --------------------
 Symbolic Z-matrix:
 Charge =  0 Multiplicity = 1

                         Standard orientation:
 ---------------------------------------------------------------------
 Center     Atomic      Atomic             Coordinates (Angstroms)
 Number     Number       Type             X           Y           Z
 ---------------------------------------------------------------------
      1          6           0       -0.710997    0.483099    0.001788
      2          6           0        0.685198    0.489270   -0.002860
      3          6           0       -1.381979   -0.739152   -0.002346
      4          1           0       -1.275683    1.409430    0.011424
      5          6           0        1.418433   -0.708078    0.002822
      6          1           0        1.211758    1.439734   -0.007850
 ---------------------------------------------------------------------

 SCF Done:  E(RB3LYP) =  -153.324162991     A.U. after   14 cycles

 The electronic state is 1-A.
 Alpha  occ. eigenvalues --  -10.29072 -10.29018 -10.24134 -10.24003  -0.85710
 Alpha  occ. eigenvalues --   -0.72910  -0.61428  -0.50265  -0.49079  -0.36876
 Alpha  occ. eigenvalues --   -0.33637  -0.31469  -0.25337
 Alpha virt. eigenvalues --   -0.14510  -0.11463  -0.08356   0.02244   0.03748
 Alpha virt. eigenvalues --    0.04196   0.04496   0.05822   0.06100   0.08904
 Alpha virt. eigenvalues --    0.09204   0.09353   0.10637   0.12170   0.12885

 Mulliken charges:
               1
     1  C    0.194760
     2  C    0.174566
     3  C   -0.420330
     4  H    0.233780
     5  C   -0.417959
     6  H    0.235183
 Sum of Mulliken charges =  -0.00000

 Dipole moment (field-independent basis, Debye):
    X=             -0.1859    Y=              4.7424    Z=              0.0052  Tot=              4.7461
 Quadrupole moment (field-independent basis, Debye-Ang):
   XX=            -26.3360   YY=            -24.4288   ZZ=            -26.9251
   XY=              0.0050   XZ=             -0.0766   YZ=              0.0073

 Normal termination of Gaussian 16 at Fri Sep 22 17:07:00 2023.
