 Gaussian 16, Revision A.03,
 Gaussian 16:  ES64L-G16RevA.03 25-Dec-2016

 ------------------------------------------------------
 # b3lyp/6-31+g(d,p) scrf=(iefpcm,solvent=acetonitrile)
 ------------------------------------------------------

 --------------------
 tmpdir/M2_ref_10.gjf
 --------------------
 Symbolic Z-matrix:
 Charge =  0 Multiplicity = 1

                         Standard orientation:
 ---------------------------------------------------------------------
 Center     Atomic      Atomic             Coordinates (Angstroms)
 Number     Number       Type             X           Y           Z
 ---------------------------------------------------------------------
      1          6           0       -1.822666    0.479307    0.070408
      2          6           0       -0.991712   -0.630663   -0.076614
      3         16           0        0.807159   -0.431513   -0.051042
      4          1           0       -2.823351    0.355149    0.001616
      5          1           0       -1.390345    1.457515    0.252775
      6          1           0       -1.373167   -1.548102   -0.270167
      7          8           0        1.058841    1.058328   -0.052659
      8          1           0        1.087865   -0.918846    1.290951
 ---------------------------------------------------------------------

 SCF Done:  E(RB3LYP) =  -551.949275076     A.U. after   12 cycles

 The electronic state is 1-A.
 Alpha  occ. eigenvalues --  -89.01353 -19.13887 -10.23288 -10.21616  -8.06018
 Alpha  occ. eigenvalues --   -6.02459  -6.02308  -6.01743  -1.03203  -0.80236
 Alpha  occ. eigenvalues --   -0.71237  -0.59516  -0.51244  -0.46764  -0.45038
 Alpha  occ. eigenvalues --   -0.40615  -0.39703  -0.30025  -0.29697  -0.25171
 Alpha virt. eigenvalues --   -0.05352  -0.00962  -0.00318   0.02128   0.03482
 Alpha virt. eigenvalues --    0.04360   0.05717   0.06880   0.08606   0.08934
 Alpha virt. eigenvalues --    0.10198   0.11487   0.12052   0.14099   0.15256

 Mulliken charges:
               1
     1  C   -0.215761
     2  C   -0.287921
     3  S    0.676836
     4  H    0.169491
     5  H    0.182900
     6  H    0.186121
     7  O   -0.783055
     8  H    0.071391
 Sum of Mulliken charges =  -0.00000

 Dipole moment (field-independent basis, Debye):
    X=             -2.5545    Y=             -4.0537    Z=              1.0366  Tot=              4.9023
 Quadrupole moment (field-independent basis, Debye-Ang):
   XX=            -29.5579   YY=            -32.4259   ZZ=            -32.1413
   XY=             -4.2687   XZ=              1.7680   YZ=             -0.2837

 Normal termination of Gaussian 16 at Fri Sep 22 17:07:28 2023.
