 Gaussian 16, Revision A.03,
 Gaussian 16:  ES64L-G16RevA.03 25-Dec-2016

 ------------------------------------------------------
 # b3lyp/6-31+g(d,p) scrf=(iefpcm,solvent=acetonitrile)
 ------------------------------------------------------

 --------------------
 tmpdir/M2_ref_48.gjf
 --------------------
 Symbolic Z-matrix:
 Charge =  0 Multiplicity = 1

                         Standard orientation:
 ---------------------------------------------------------------------
 Center     Atomic      Atomic             Coordinates (Angstroms)
 Number     Number       Type             X           Y           Z
 ---------------------------------------------------------------------
      1          6           0       -1.148660   -0.578011   -0.343360
      2         16           0        0.471037    0.218556   -0.478683
      3          7           0        1.457328   -0.953660    0.428116
      4          8           0       -1.987498   -0.144237    0.443571
      5          1           0       -1.368094   -1.336456   -0.976823
      6          8           0        0.384693    1.476379    0.354022
      7          1           0        1.159558   -1.243276    1.345599
      8          1           0        2.185041   -1.430619   -0.027250
 ---------------------------------------------------------------------

 SCF Done:  E(RB3LYP) =  -643.236219609     A.U. after   13 cycles

 The electronic state is 1-A.
 Alpha  occ. eigenvalues --  -89.04336 -19.21083 -19.15665 -14.37484 -10.32280
 Alpha  occ. eigenvalues --   -8.08614  -6.05101  -6.04922  -6.04340  -1.09343
 Alpha  occ. eigenvalues --   -1.04588  -0.89925  -0.75171  -0.63123  -0.55062
 Alpha  occ. eigenvalues --   -0.53430  -0.49202  -0.47810  -0.42998  -0.40746
 Alpha  occ. eigenvalues --   -0.34578  -0.31220  -0.29616  -0.26502
 Alpha virt. eigenvalues --   -0.10148  -0.00835   0.00101   0.01890   0.03224
 Alpha virt. eigenvalues --    0.04691   0.04906   0.06710   0.08434   0.08588
 Alpha virt. eigenvalues --    0.09501   0.10755   0.11633   0.14499   0.16444

 Mulliken charges:
               1
     1  C    0.130347
     2  S    0.861221
     3  N   -0.810447
     4  O   -0.351516
     5  H    0.194468
     6  O   -0.734991
     7  H    0.355366
     8  H    0.355552
 Sum of Mulliken charges =  -0.00000

 Dipole moment (field-independent basis, Debye):
    X=              1.9021    Y=             -6.1206    Z=             -2.8800  Tot=              7.0266
 Quadrupole moment (field-independent basis, Debye-Ang):
   XX=            -37.4676   YY=            -37.9885   ZZ=            -33.9955
   XY=             -3.1772   XZ=              2.9976   YZ=             -2.3787

 Normal termination of Gaussian 16 at Fri Sep 22 17:07:52 2023.
