 Gaussian 16, Revision A.03,
 Gaussian 16:  ES64L-G16RevA.03 25-Dec-2016

 ------------------------------------------------------
 # b3lyp/6-31+g(d,p) scrf=(iefpcm,solvent=acetonitrile)
 ------------------------------------------------------

 --------------------
 tmpdir/M2_ref_67.gjf
 --------------------
 Symbolic Z-matrix:
 Charge =  0 Multiplicity = 1

                         Standard orientation:
 ---------------------------------------------------------------------
 Center     Atomic      Atomic             Coordinates (Angstroms)
 Number     Number       Type             X           Y           Z
 ---------------------------------------------------------------------
      1          6           0       -1.417250   -0.472685    0.002609
      2          6           0       -0.583060    0.652454   -0.002333
      3          6           0        0.802395    0.483056    0.001693
      4          1           0       -2.542747   -0.365949   -0.006003
      5          1           0       -1.020810   -1.404951    0.002990
      6          1           0       -1.018602    1.645102   -0.001758
      7          8           0        1.289993   -0.650748   -0.001624
      8          1           0        1.449708    1.354831    0.005954
 ---------------------------------------------------------------------

 SCF Done:  E(RB3LYP) =  -191.918178669     A.U. after   12 cycles

 The electronic state is 1-A.
 Alpha  occ. eigenvalues --  -19.15814 -10.28103 -10.22912 -10.21284  -1.05008
 Alpha  occ. eigenvalues --   -0.79888  -0.67785  -0.55688  -0.52197  -0.46149
 Alpha  occ. eigenvalues --   -0.42137  -0.41062  -0.39669  -0.28561  -0.27407
 Alpha virt. eigenvalues --   -0.09783   0.01344   0.03109   0.03928   0.04144
 Alpha virt. eigenvalues --    0.06214   0.06528   0.07441   0.09675   0.09791
 Alpha virt. eigenvalues --    0.12183   0.12365   0.14092   0.16418   0.19549

 Mulliken charges:
               1
     1  C   -0.276087
     2  C    0.063659
     3  C    0.068756
     4  H    0.172213
     5  H    0.177454
     6  H    0.159318
     7  O   -0.504391
     8  H    0.139080
 Sum of Mulliken charges =  -0.00000

 Dipole moment (field-independent basis, Debye):
    X=             -2.9468    Y=              2.3827    Z=              0.0052  Tot=              3.7895
 Quadrupole moment (field-independent basis, Debye-Ang):
   XX=            -24.0480   YY=            -22.4322   ZZ=            -25.2362
   XY=              4.1059   XZ=              0.0229   YZ=             -0.0029

 Normal termination of Gaussian 16 at Fri Sep 22 17:07:54 2023.
