 Gaussian 16, Revision A.03,
 Gaussian 16:  ES64L-G16RevA.03 25-Dec-2016

 ------------------------------------------------------
 # b3lyp/6-31+g(d,p) scrf=(iefpcm,solvent=acetonitrile)
 ------------------------------------------------------

 --------------------
 tmpdir/M2_ref_22.gjf
 --------------------
 Symbolic Z-matrix:
 Charge =  0 Multiplicity = 1

                         Standard orientation:
 ---------------------------------------------------------------------
 Center     Atomic      Atomic             Coordinates (Angstroms)
 Number     Number       Type             X           Y           Z
 ---------------------------------------------------------------------
      1          6           0       -0.701183   -0.006716   -0.000063
      2          6           0        0.702845   -0.008675   -0.003423
      3          1           0       -1.226361   -0.870215    0.008664
      4          1           0       -1.235454    0.939441   -0.003778
      5          1           0        1.185846   -0.904428    0.002165
      6          1           0        1.266001    0.927549    0.013871
 ---------------------------------------------------------------------

 SCF Done:  E(RB3LYP) =  -78.5884279873     A.U. after    9 cycles

 The electronic state is 1-A.
 Alpha  occ. eigenvalues --  -10.19798 -10.19642  -0.75697  -0.59890  -0.47924
 Alpha  occ. eigenvalues --   -0.41312  -0.37813  -0.27022
 Alpha virt. eigenvalues --   -0.02345   0.02531   0.03683   0.05214   0.06704
 Alpha virt. eigenvalues --    0.08808   0.09067   0.12369   0.15976   0.18105
 Alpha virt. eigenvalues --    0.21869   0.25442   0.32268   0.35301   0.58539

 Mulliken charges:
               1
     1  C   -0.300190
     2  C   -0.299637
     3  H    0.150139
     4  H    0.148792
     5  H    0.148795
     6  H    0.152101
 Sum of Mulliken charges =  -0.00000

 Dipole moment (field-independent basis, Debye):
    X=             -0.0076    Y=             -0.0426    Z=              0.0272  Tot=              0.0511
 Quadrupole moment (field-independent basis, Debye-Ang):
   XX=            -12.2590   YY=            -12.2287   ZZ=            -16.2271
   XY=              0.0839   XZ=              0.0170   YZ=             -0.0007

 Normal termination of Gaussian 16 at Fri Sep 22 17:07:00 2023.
