 Gaussian 16, Revision A.03,
 Gaussian 16:  ES64L-G16RevA.03 25-Dec-2016

 ------------------------------------------------------
 # b3lyp/6-31+g(d,p) scrf=(iefpcm,solvent=acetonitrile)
 ------------------------------------------------------

 -----------------------
 tmpdir/M3_conf_0_11.gjf
 -----------------------
 Symbolic Z-matrix:
 Charge =  0 Multiplicity = 1

                         Standard orientation:
 ---------------------------------------------------------------------
 Center     Atomic      Atomic             Coordinates (Angstroms)
 Number     Number       Type             X           Y           Z
 ---------------------------------------------------------------------
      1          6           0        0.912862    0.002988   -0.014567
      2          6           0        2.422161    0.001884    0.010072
      3          1           0        2.805723   -0.108467    1.031891
      4          6           0        0.191713    1.207612   -0.009399
      5          6           0        0.195506   -1.206110   -0.009300
      6          6           0       -1.204425    1.215470    0.002081
      7          1           0        0.727803    2.152762   -0.011102
      8          6           0       -1.198804   -1.216783    0.002696
      9          1           0        0.733966   -2.149791   -0.008543
     10          6           0       -1.887760    0.000131   -0.006211
     11          1           0       -1.759603    2.147385    0.020165
     12          1           0       -1.735786   -2.161351    0.014980
     13          1           0        2.829060   -0.829322   -0.573336
     14          1           0        2.828340    0.936137   -0.387069
     15          1           0       -3.017018   -0.018502    0.060786
 ---------------------------------------------------------------------

 SCF Done:  E(RB3LYP) =  -271.590221970     A.U. after   12 cycles

 The electronic state is 1-A.
 Alpha  occ. eigenvalues --  -10.20641 -10.19885 -10.19741 -10.19725 -10.19471
 Alpha  occ. eigenvalues --  -10.19422 -10.18501  -0.86090  -0.77413  -0.75044
 Alpha  occ. eigenvalues --   -0.68604  -0.60900  -0.58611  -0.51042  -0.46238
 Alpha  occ. eigenvalues --   -0.45740  -0.42530  -0.42059  -0.40594  -0.38603
 Alpha  occ. eigenvalues --   -0.36051  -0.34389  -0.34228  -0.25975  -0.24836
 Alpha virt. eigenvalues --   -0.01768  -0.01470   0.00823   0.02257   0.02876
 Alpha virt. eigenvalues --    0.04477   0.04914   0.05229   0.06157   0.07158
 Alpha virt. eigenvalues --    0.07716   0.08173   0.08677   0.10456   0.11782

 Mulliken charges:
               1
     1  C    0.336415
     2  C   -0.650660
     3  H    0.171770
     4  C   -0.311126
     5  C   -0.210480
     6  C   -0.119839
     7  H    0.134657
     8  C   -0.096646
     9  H    0.134943
    10  C   -0.131462
    11  H    0.142321
    12  H    0.142073
    13  H    0.161650
    14  H    0.158756
    15  H    0.137628
 Sum of Mulliken charges =  -0.00000

 Dipole moment (field-independent basis, Debye):
    X=              0.5959    Y=             -0.0330    Z=              0.1467  Tot=              0.6146
 Quadrupole moment (field-independent basis, Debye-Ang):
   XX=            -38.2534   YY=            -38.4005   ZZ=            -46.8062
   XY=             -0.0254   XZ=             -0.1287   YZ=              0.0087

 Normal termination of Gaussian 16 at Fri Sep 22 17:08:49 2023.
