 Gaussian 16, Revision A.03,
 Gaussian 16:  ES64L-G16RevA.03 25-Dec-2016

 ------------------------------------------------------
 # b3lyp/6-31+g(d,p) scrf=(iefpcm,solvent=acetonitrile)
 ------------------------------------------------------

 -----------------------
 tmpdir/M3_conf_0_50.gjf
 -----------------------
 Symbolic Z-matrix:
 Charge =  0 Multiplicity = 1

                         Standard orientation:
 ---------------------------------------------------------------------
 Center     Atomic      Atomic             Coordinates (Angstroms)
 Number     Number       Type             X           Y           Z
 ---------------------------------------------------------------------
      1         16           0        0.000388    0.305119    0.006301
      2          8           0       -1.270848   -0.453042   -0.005661
      3          1           0       -0.020203    1.207575   -1.094511
      4          8           0        1.273041   -0.449657   -0.007442
      5          1           0       -0.003554    1.132116    1.098523
 ---------------------------------------------------------------------

 SCF Done:  E(RB3LYP) =  -549.762333681     A.U. after   11 cycles

 The electronic state is 1-A.
 Alpha  occ. eigenvalues --  -89.12777 -19.17878 -19.17724  -8.15837  -6.12262
 Alpha  occ. eigenvalues --   -6.12187  -6.12129  -1.12489  -1.02413  -0.72769
 Alpha  occ. eigenvalues --   -0.56772  -0.51350  -0.47798  -0.36314  -0.35010
 Alpha  occ. eigenvalues --   -0.33459  -0.32683
 Alpha virt. eigenvalues --   -0.02901  -0.00309   0.00582   0.01648   0.07194
 Alpha virt. eigenvalues --    0.08720   0.09931   0.10128   0.15727   0.17959
 Alpha virt. eigenvalues --    0.18539   0.21137   0.21475   0.24767   0.25175

 Mulliken charges:
               1
     1  S    1.053091
     2  O   -0.636401
     3  H    0.105910
     4  O   -0.630759
     5  H    0.108159
 Sum of Mulliken charges =  -0.00000

 Dipole moment (field-independent basis, Debye):
    X=              0.0116    Y=              5.1413    Z=              0.1148  Tot=              5.1426
 Quadrupole moment (field-independent basis, Debye-Ang):
   XX=            -33.0396   YY=            -22.7227   ZZ=            -21.7152
   XY=             -0.0533   XZ=              0.0264   YZ=             -0.0220

 Normal termination of Gaussian 16 at Fri Sep 22 17:10:08 2023.
