 Gaussian 16, Revision A.03,
 Gaussian 16:  ES64L-G16RevA.03 25-Dec-2016

 ------------------------------------------------------
 # b3lyp/6-31+g(d,p) scrf=(iefpcm,solvent=acetonitrile)
 ------------------------------------------------------

 -----------------------
 tmpdir/M3_conf_0_45.gjf
 -----------------------
 Symbolic Z-matrix:
 Charge =  0 Multiplicity = 2

                         Standard orientation:
 ---------------------------------------------------------------------
 Center     Atomic      Atomic             Coordinates (Angstroms)
 Number     Number       Type             X           Y           Z
 ---------------------------------------------------------------------
      1          6           0       -2.163178    0.005697   -0.469573
      2          6           0       -1.170453   -0.152975    0.625146
      3         16           0        0.650819    0.017830    0.240341
      4          1           0       -2.741934    0.901680   -0.446679
      5          1           0       -2.192997   -0.727063   -1.267018
      6          1           0       -1.307959    0.586918    1.414351
      7          1           0       -1.184144   -1.165826    1.042104
      8          8           0        0.891651    1.330515   -0.398686
      9          8           0        1.080247   -1.207781   -0.476137
     10          1           0        1.240533    0.020819    1.476920
 ---------------------------------------------------------------------

 SCF Done:  E(UB3LYP) =  -627.746397387     A.U. after   14 cycles

 The electronic state is 2-A.
 Alpha  occ. eigenvalues --  -89.11375 -19.16942 -19.16844 -10.24456 -10.22956
 Alpha  occ. eigenvalues --   -8.14475  -6.10893  -6.10828  -6.10768  -1.11677
 Alpha  occ. eigenvalues --   -1.01572  -0.81523  -0.71541  -0.62492  -0.53996
 Alpha  occ. eigenvalues --   -0.50336  -0.49119  -0.46771  -0.42783  -0.40743
 Alpha  occ. eigenvalues --   -0.35601  -0.34198  -0.32379  -0.32135  -0.23936
 Alpha virt. eigenvalues --   -0.01066   0.00334   0.02152   0.02320   0.03729
 Alpha virt. eigenvalues --    0.05485   0.05776   0.07689   0.07887   0.08717
 Alpha virt. eigenvalues --    0.10371   0.11070   0.11384   0.11876   0.13635

  Beta  occ. eigenvalues --  -89.11305 -19.16905 -19.16807 -10.24570 -10.21650
  Beta  occ. eigenvalues --   -8.14396  -6.10845  -6.10752  -6.10614  -1.11553
  Beta  occ. eigenvalues --   -1.01489  -0.80440  -0.69987  -0.60990  -0.53673
  Beta  occ. eigenvalues --   -0.49887  -0.48660  -0.46455  -0.42000  -0.40223
  Beta  occ. eigenvalues --   -0.35332  -0.34089  -0.32237  -0.31442
  Beta virt. eigenvalues --   -0.10349  -0.00593   0.00476   0.02363   0.02588
  Beta virt. eigenvalues --    0.03929   0.05570   0.05910   0.08031   0.08130
  Beta virt. eigenvalues --    0.09167   0.10871   0.11221   0.11620   0.12229

 Mulliken charges and spin densities:
               1          2
     1  C   -0.193325   1.092839
     2  C   -0.487752  -0.132858
     3  S    1.068995   0.038363
     4  H    0.177469  -0.047643
     5  H    0.177619  -0.047470
     6  H    0.215847   0.004777
     7  H    0.219664   0.034656
     8  O   -0.627036   0.021018
     9  O   -0.639805   0.016638
    10  H    0.088322   0.019680
 Sum of Mulliken charges =  -0.00000   1.00000

 Dipole moment (field-independent basis, Debye):
    X=             -3.6601    Y=             -0.3554    Z=              4.6462  Tot=              5.9253
 Quadrupole moment (field-independent basis, Debye-Ang):
   XX=            -36.4318   YY=            -44.3985   ZZ=            -34.7078
   XY=             -0.0908   XZ=              4.4351   YZ=              0.4538

 1\1\GINC-NODE56\SP\UB3LYP\6-31+G(d,p)\C2H5O2S1(2)\YANZ\22-Sep-2023\0\\
 # b3lyp/6-31+g(d,p) scrf=(iefpcm,solvent=acetonitrile)\\tmpdir/M3_conf
 _0_45.gjf\\0,2\C,0,0.,0.,0.\C,0,1.4863,0.,0.\S,0,2.4011,0.,1.63016\H,0
 ,-0.46535,-0.91297,-0.29699\H,0,-0.52904,0.86788,0.37503\H,0,1.89675,-
 0.88201,-0.49273\H,0,1.89239,0.91353,-0.44773\O,0,1.95115,-1.1537,2.44
 011\O,0,2.29105,1.35969,2.2124\H,0,3.70545,-0.20631,1.26546\\Version=E
 S64L-G16RevA.03\State=2-A\HF=-627.7463974\S2=0.754381\S2-1=0.\S2A=0.75
 0014\RMSD=4.874e-09\Dipole=0.3994906,-0.283691,-2.2791372\Quadrupole=5

 Normal termination of Gaussian 16 at Fri Sep 22 17:10:15 2023.
