 Gaussian 16, Revision A.03,
 Gaussian 16:  ES64L-G16RevA.03 25-Dec-2016

 ------------------------------------------------------
 # b3lyp/6-31+g(d,p) scrf=(iefpcm,solvent=acetonitrile)
 ------------------------------------------------------

 -----------------------
 tmpdir/M3_conf_0_39.gjf
 -----------------------
 Symbolic Z-matrix:
 Charge =  0 Multiplicity = 1

                         Standard orientation:
 ---------------------------------------------------------------------
 Center     Atomic      Atomic             Coordinates (Angstroms)
 Number     Number       Type             X           Y           Z
 ---------------------------------------------------------------------
      1          1           0        0.594553    0.916377   -0.045173
      2          6           0       -0.008811    0.008471   -0.003680
      3          1           0        0.143117   -0.463420    0.974244
      4          1           0       -1.063785    0.199020   -0.160084
      5          1           0        0.378981   -0.702804   -0.746904
 ---------------------------------------------------------------------

 SCF Done:  E(RB3LYP) =  -40.5257623076     A.U. after    7 cycles

 The electronic state is 1-A.
 Alpha  occ. eigenvalues --  -10.17130  -0.69528  -0.40038  -0.39205  -0.38605
 Alpha virt. eigenvalues --    0.01707   0.06168   0.06235   0.06280   0.17745
 Alpha virt. eigenvalues --    0.18173   0.18878   0.27901   0.63666   0.63909
 Alpha virt. eigenvalues --    0.64073   0.90131   0.90954   0.92314   1.05345

 Mulliken charges:
               1
     1  H    0.156754
     2  C   -0.623978
     3  H    0.154171
     4  H    0.158973
     5  H    0.154081
 Sum of Mulliken charges =   0.00000

 Dipole moment (field-independent basis, Debye):
    X=              0.0257    Y=             -0.0272    Z=              0.0170  Tot=              0.0411
 Quadrupole moment (field-independent basis, Debye-Ang):
   XX=             -8.3610   YY=             -8.5146   ZZ=             -8.6328
   XY=              0.0042   XZ=              0.0111   YZ=             -0.0059

 Normal termination of Gaussian 16 at Fri Sep 22 17:09:38 2023.
