 Gaussian 16, Revision A.03,
 Gaussian 16:  ES64L-G16RevA.03 25-Dec-2016

 ------------------------------------------------------
 # b3lyp/6-31+g(d,p) scrf=(iefpcm,solvent=acetonitrile)
 ------------------------------------------------------

 ----------------------
 tmpdir/M3_conf_0_6.gjf
 ----------------------
 Symbolic Z-matrix:
 Charge =  0 Multiplicity = 1

                         Standard orientation:
 ---------------------------------------------------------------------
 Center     Atomic      Atomic             Coordinates (Angstroms)
 Number     Number       Type             X           Y           Z
 ---------------------------------------------------------------------
      1          6           0        0.113569   -0.178402    0.051635
      2         16           0        1.949670   -0.481559   -0.004303
      3          6           0       -0.381661    1.124551    0.085425
      4          6           0       -0.746969   -1.276814   -0.040408
      5          6           0       -1.763037    1.325107    0.054641
      6          1           0        0.305556    1.962747    0.131931
      7          6           0       -2.123834   -1.058241   -0.069352
      8          1           0       -0.355582   -2.289496   -0.085021
      9          6           0       -2.654156    0.242991   -0.023801
     10          1           0       -2.153107    2.338705    0.088916
     11          1           0       -2.795615   -1.909678   -0.134541
     12          8           0        2.587401    0.874472   -0.198170
     13          1           0        2.174722   -0.874731    1.378476
     14          1           0       -3.733373    0.406473   -0.074390
 ---------------------------------------------------------------------

 SCF Done:  E(RB3LYP) =  -705.628637659     A.U. after   14 cycles

 The electronic state is 1-A.
 Alpha  occ. eigenvalues --  -89.01430 -19.14110 -10.23873 -10.21745 -10.21479
 Alpha  occ. eigenvalues --  -10.21265 -10.21163 -10.21149  -8.06022  -6.02466
 Alpha  occ. eigenvalues --   -6.02313  -6.01755  -1.03260  -0.87672  -0.78227
 Alpha  occ. eigenvalues --   -0.76594  -0.70465  -0.62346  -0.60576  -0.53540
 Alpha  occ. eigenvalues --   -0.48562  -0.47128  -0.46170  -0.44559  -0.43818
 Alpha  occ. eigenvalues --   -0.40550  -0.38320  -0.37656  -0.36076  -0.29843
 Alpha  occ. eigenvalues --   -0.28226  -0.27278  -0.25051
 Alpha virt. eigenvalues --   -0.04594  -0.02879  -0.01289  -0.00638   0.00823
 Alpha virt. eigenvalues --    0.02379   0.03263   0.03822   0.04683   0.05693
 Alpha virt. eigenvalues --    0.06686   0.06914   0.07988   0.08516   0.08788

 Mulliken charges:
               1
     1  C   -0.387126
     2  S    0.717445
     3  C    0.264136
     4  C   -0.334814
     5  C   -0.115388
     6  H    0.169651
     7  C   -0.083037
     8  H    0.157936
     9  C   -0.159249
    10  H    0.151345
    11  H    0.152104
    12  O   -0.751404
    13  H    0.063546
    14  H    0.154856
 Sum of Mulliken charges =  -0.00000

 Dipole moment (field-independent basis, Debye):
    X=             -4.0652    Y=             -3.3050    Z=              1.5051  Tot=              5.4511
 Quadrupole moment (field-independent basis, Debye-Ang):
   XX=            -57.7548   YY=            -49.9753   ZZ=            -56.5491
   XY=             -8.4142   XZ=              4.2976   YZ=             -0.2548

 Normal termination of Gaussian 16 at Fri Sep 22 17:08:54 2023.
