 Gaussian 16, Revision A.03,
 Gaussian 16:  ES64L-G16RevA.03 25-Dec-2016

 ------------------------------------------------------
 # b3lyp/6-31+g(d,p) scrf=(iefpcm,solvent=acetonitrile)
 ------------------------------------------------------

 -----------------------
 tmpdir/M3_conf_0_51.gjf
 -----------------------
 Symbolic Z-matrix:
 Charge =  0 Multiplicity = 1

                         Standard orientation:
 ---------------------------------------------------------------------
 Center     Atomic      Atomic             Coordinates (Angstroms)
 Number     Number       Type             X           Y           Z
 ---------------------------------------------------------------------
      1         16           0       -1.677508    0.000518    0.224252
      2          6           0        0.117912   -0.000544    0.094545
      3          6           0        0.794710    1.222173    0.051344
      4          6           0        0.795996   -1.222538    0.054190
      5          6           0        2.188292    1.214743   -0.037152
      6          1           0        0.243257    2.155741    0.073268
      7          6           0        2.189923   -1.213303   -0.033280
      8          1           0        0.246199   -2.156946    0.077126
      9          6           0        2.882871    0.000993   -0.077256
     10          1           0        2.728340    2.155234   -0.078375
     11          1           0        2.731393   -2.153118   -0.071346
     12          1           0        3.966252    0.001342   -0.146725
     13          1           0       -1.909758   -0.024071    1.628567
     14          8           0       -2.188104    1.273500   -0.331009
     15          8           0       -2.184867   -1.272950   -0.342102
 ---------------------------------------------------------------------

 SCF Done:  E(RB3LYP) =  -780.843823694     A.U. after   14 cycles

 The electronic state is 1-A.
 Alpha  occ. eigenvalues --  -89.12275 -19.17308 -19.17124 -10.24648 -10.22681
 Alpha  occ. eigenvalues --  -10.22674 -10.21924 -10.21750 -10.21741  -8.15125
 Alpha  occ. eigenvalues --   -6.11584  -6.11491  -6.11420  -1.12000  -1.01901
 Alpha  occ. eigenvalues --   -0.88739  -0.79408  -0.77492  -0.70612  -0.63335
 Alpha  occ. eigenvalues --   -0.61882  -0.56024  -0.52558  -0.49469  -0.48855
 Alpha  occ. eigenvalues --   -0.46465  -0.46357  -0.44803  -0.39661  -0.38907
 Alpha  occ. eigenvalues --   -0.37190  -0.35690  -0.34482  -0.32769  -0.31707
 Alpha  occ. eigenvalues --   -0.28722  -0.28010
 Alpha virt. eigenvalues --   -0.05925  -0.03644  -0.01043   0.00405   0.01873
 Alpha virt. eigenvalues --    0.01923   0.03280   0.03881   0.04816   0.06312
 Alpha virt. eigenvalues --    0.06465   0.06941   0.07779   0.08412   0.08633

 Mulliken charges:
               1
     1  S    1.214256
     2  C   -0.494836
     3  C    0.032831
     4  C    0.000069
     5  C   -0.125251
     6  H    0.173393
     7  C   -0.126580
     8  H    0.173441
     9  C   -0.151819
    10  H    0.159976
    11  H    0.160015
    12  H    0.158394
    13  H    0.093466
    14  O   -0.629498
    15  O   -0.637856
 Sum of Mulliken charges =  -0.00000

 Dipole moment (field-independent basis, Debye):
    X=              5.9928    Y=              0.0246    Z=              3.4712  Tot=              6.9256
 Quadrupole moment (field-independent basis, Debye-Ang):
   XX=            -61.4936   YY=            -59.5788   ZZ=            -60.1854
   XY=             -0.0546   XZ=             -7.9651   YZ=             -0.1007

 Normal termination of Gaussian 16 at Fri Sep 22 17:10:45 2023.
