 Gaussian 16, Revision A.03,
 Gaussian 16:  ES64L-G16RevA.03 25-Dec-2016

 ------------------------------------------------------
 # b3lyp/6-31+g(d,p) scrf=(iefpcm,solvent=acetonitrile)
 ------------------------------------------------------

 -----------------------
 tmpdir/M3_conf_0_46.gjf
 -----------------------
 Symbolic Z-matrix:
 Charge =  0 Multiplicity = 1

                         Standard orientation:
 ---------------------------------------------------------------------
 Center     Atomic      Atomic             Coordinates (Angstroms)
 Number     Number       Type             X           Y           Z
 ---------------------------------------------------------------------
      1          1           0        0.005546    0.945384    0.536247
      2          6           0       -0.025948   -0.002071   -0.002758
      3          1           0        0.210064   -0.807877    0.700718
      4          1           0       -0.963435   -0.148452   -0.509958
      5          1           0        0.903513    0.023371   -0.710460
 ---------------------------------------------------------------------

 SCF Done:  E(RB3LYP) =  -40.5216382946     A.U. after    8 cycles

 The electronic state is 1-A.
 Alpha  occ. eigenvalues --  -10.17776  -0.69179  -0.40691  -0.39213  -0.37282
 Alpha virt. eigenvalues --    0.01595   0.06078   0.06206   0.06366   0.15766
 Alpha virt. eigenvalues --    0.18200   0.19215   0.27319   0.63409   0.63765
 Alpha virt. eigenvalues --    0.64973   0.87866   0.90932   0.92946   1.04422

 Mulliken charges:
               1
     1  H    0.158184
     2  C   -0.621488
     3  H    0.157300
     4  H    0.163577
     5  H    0.142428
 Sum of Mulliken charges =   0.00000

 Dipole moment (field-independent basis, Debye):
    X=              0.0157    Y=              0.0079    Z=              0.0720  Tot=              0.0741
 Quadrupole moment (field-independent basis, Debye-Ang):
   XX=             -8.3260   YY=             -8.6012   ZZ=             -8.7403
   XY=              0.0076   XZ=              0.1754   YZ=              0.0183

 Normal termination of Gaussian 16 at Fri Sep 22 17:10:18 2023.
