 Gaussian 16, Revision A.03,
 Gaussian 16:  ES64L-G16RevA.03 25-Dec-2016

 ------------------------------------------------------
 # b3lyp/6-31+g(d,p) scrf=(iefpcm,solvent=acetonitrile)
 ------------------------------------------------------

 -----------------------
 tmpdir/M3_conf_0_43.gjf
 -----------------------
 Symbolic Z-matrix:
 Charge =  0 Multiplicity = 2

                         Standard orientation:
 ---------------------------------------------------------------------
 Center     Atomic      Atomic             Coordinates (Angstroms)
 Number     Number       Type             X           Y           Z
 ---------------------------------------------------------------------
      1          6           0        0.802912   -0.003408   -0.006408
      2          6           0       -0.683315    0.008162   -0.015525
      3          1           0       -1.054997    1.022559   -0.163955
      4          1           0        1.275400    0.951736    0.045866
      5          1           0        1.324329   -0.952110    0.036414
      6          1           0       -1.090207   -0.681340   -0.763145
      7          1           0       -1.172103   -0.369371    0.976417
 ---------------------------------------------------------------------

 SCF Done:  E(UB3LYP) =  -79.1665795562     A.U. after   12 cycles

 The electronic state is 2-A.
 Alpha  occ. eigenvalues --  -10.19581 -10.18868  -0.75847  -0.60730  -0.46332
 Alpha  occ. eigenvalues --   -0.40240  -0.38781  -0.36497  -0.20522
 Alpha virt. eigenvalues --    0.02057   0.03216   0.05284   0.05889   0.08308
 Alpha virt. eigenvalues --    0.08962   0.09878   0.14776   0.16517   0.19156
 Alpha virt. eigenvalues --    0.21106   0.27365   0.29242   0.30664   0.60659

  Beta  occ. eigenvalues --  -10.18962 -10.18256  -0.74110  -0.58482  -0.45664
  Beta  occ. eigenvalues --   -0.38637  -0.37950  -0.36046
  Beta virt. eigenvalues --   -0.06060   0.02205   0.03425   0.05290   0.06299
  Beta virt. eigenvalues --    0.08279   0.08941   0.11212   0.15056   0.17324
  Beta virt. eigenvalues --    0.19954   0.22303   0.28288   0.29706   0.31204

 Mulliken charges and spin densities:
               1          2
     1  C   -0.254405   1.123536
     2  C   -0.514716  -0.144716
     3  H    0.156970   0.003931
     4  H    0.151668  -0.049656
     5  H    0.149200  -0.048338
     6  H    0.161990   0.037162
     7  H    0.149293   0.078081
 Sum of Mulliken charges =  -0.00000   1.00000

 Dipole moment (field-independent basis, Debye):
    X=             -0.3452    Y=             -0.0067    Z=              0.0731  Tot=              0.3529
 Quadrupole moment (field-independent basis, Debye-Ang):
   XX=            -14.8788   YY=            -13.4593   ZZ=            -15.8398
   XY=              0.0197   XZ=              0.1214   YZ=              0.0691

 Normal termination of Gaussian 16 at Fri Sep 22 17:09:55 2023.
