 Gaussian 16, Revision A.03,
 Gaussian 16:  ES64L-G16RevA.03 25-Dec-2016

 ------------------------------------------------------
 # b3lyp/6-31+g(d,p) scrf=(iefpcm,solvent=acetonitrile)
 ------------------------------------------------------

 -----------------------
 tmpdir/M3_conf_0_55.gjf
 -----------------------
 Symbolic Z-matrix:
 Charge =  0 Multiplicity = 1

                         Standard orientation:
 ---------------------------------------------------------------------
 Center     Atomic      Atomic             Coordinates (Angstroms)
 Number     Number       Type             X           Y           Z
 ---------------------------------------------------------------------
      1          8           0        1.275630   -0.448555   -0.007495
      2         16           0        0.001461    0.303652    0.006316
      3          8           0       -1.275453   -0.450823   -0.005680
      4          1           0       -0.020802    1.206201   -1.094392
      5          1           0       -0.003992    1.130380    1.098739
 ---------------------------------------------------------------------

 SCF Done:  E(RB3LYP) =  -549.762366239     A.U. after   11 cycles

 The electronic state is 1-A.
 Alpha  occ. eigenvalues --  -89.12790 -19.17937 -19.17725  -8.15846  -6.12270
 Alpha  occ. eigenvalues --   -6.12196  -6.12138  -1.12411  -1.02389  -0.72770
 Alpha  occ. eigenvalues --   -0.56759  -0.51352  -0.47804  -0.36282  -0.35016
 Alpha  occ. eigenvalues --   -0.33486  -0.32651
 Alpha virt. eigenvalues --   -0.02901  -0.00368   0.00608   0.01626   0.07165
 Alpha virt. eigenvalues --    0.08666   0.09878   0.10154   0.15725   0.17952
 Alpha virt. eigenvalues --    0.18491   0.21159   0.21498   0.24773   0.25159

 Mulliken charges:
               1
     1  O   -0.628792
     2  S    1.051794
     3  O   -0.637889
     4  H    0.106325
     5  H    0.108563
 Sum of Mulliken charges =  -0.00000

 Dipole moment (field-independent basis, Debye):
    X=              0.0394    Y=              5.1263    Z=              0.1151  Tot=              5.1278
 Quadrupole moment (field-independent basis, Debye-Ang):
   XX=            -33.0756   YY=            -22.7286   ZZ=            -21.7203
   XY=             -0.0575   XZ=              0.0267   YZ=             -0.0224

 Normal termination of Gaussian 16 at Fri Sep 22 17:11:37 2023.
