 Gaussian 16, Revision A.03,
 Gaussian 16:  ES64L-G16RevA.03 25-Dec-2016

 ------------------------------------------------------
 # b3lyp/6-31+g(d,p) scrf=(iefpcm,solvent=acetonitrile)
 ------------------------------------------------------

 -----------------------
 tmpdir/M3_conf_0_26.gjf
 -----------------------
 Symbolic Z-matrix:
 Charge =  0 Multiplicity = 1

                         Standard orientation:
 ---------------------------------------------------------------------
 Center     Atomic      Atomic             Coordinates (Angstroms)
 Number     Number       Type             X           Y           Z
 ---------------------------------------------------------------------
      1          6           0        0.147134   -0.252926    0.370238
      2          7           0        1.514756   -0.551376    0.701196
      3          6           0        2.598271   -0.143707   -0.090517
      4          6           0       -0.677487   -1.297786   -0.062035
      5          6           0       -0.359538    1.047475    0.489403
      6          6           0       -2.015907   -1.040224   -0.374345
      7          1           0       -0.266522   -2.297076   -0.154059
      8          6           0       -1.693763    1.299437    0.165966
      9          1           0        0.288883    1.848986    0.824358
     10          6           0       -2.524135    0.256905   -0.262826
     11          1           0       -2.655467   -1.851395   -0.708904
     12          1           0       -2.085062    2.308739    0.250468
     13          1           0       -3.562235    0.457193   -0.510662
     14          1           0        1.744108   -0.943835    1.663104
     15          1           0        3.550319   -0.606948    0.040920
     16          8           0        2.441904    0.716117   -0.966113
 ---------------------------------------------------------------------

 SCF Done:  E(RB3LYP) =  -400.968785818     A.U. after   14 cycles

 The electronic state is 1-A.
 Alpha  occ. eigenvalues --  -19.14711 -14.38320 -10.30747 -10.24456 -10.20596
 Alpha  occ. eigenvalues --  -10.20532 -10.20505 -10.20463 -10.20413  -1.04968
 Alpha  occ. eigenvalues --   -0.93170  -0.85704  -0.75968  -0.75325  -0.64749
 Alpha  occ. eigenvalues --   -0.62012  -0.58898  -0.55027  -0.52789  -0.48872
 Alpha  occ. eigenvalues --   -0.47032  -0.44769  -0.43731  -0.43296  -0.40162
 Alpha  occ. eigenvalues --   -0.37750  -0.36960  -0.36010  -0.28553  -0.27807
 Alpha  occ. eigenvalues --   -0.26562  -0.26063
 Alpha virt. eigenvalues --   -0.02992  -0.02357  -0.01466   0.00774   0.01802
 Alpha virt. eigenvalues --    0.02810   0.03414   0.04165   0.04868   0.05104
 Alpha virt. eigenvalues --    0.06272   0.07168   0.07943   0.09120   0.09565

 Mulliken charges:
               1
     1  C   -0.241334
     2  N   -0.455073
     3  C    0.358892
     4  C    0.070201
     5  C    0.092273
     6  C   -0.173049
     7  H    0.148231
     8  C   -0.229565
     9  H    0.146059
    10  C   -0.108470
    11  H    0.148318
    12  H    0.148022
    13  H    0.145289
    14  H    0.342671
    15  H    0.152939
    16  O   -0.545403
 Sum of Mulliken charges =  -0.00000

 Dipole moment (field-independent basis, Debye):
    X=             -1.0423    Y=             -2.7016    Z=              3.6947  Tot=              4.6942
 Quadrupole moment (field-independent basis, Debye-Ang):
   XX=            -47.0927   YY=            -48.9321   ZZ=            -55.4729
   XY=             -7.3023   XZ=             10.5085   YZ=              2.2796

 Normal termination of Gaussian 16 at Fri Sep 22 17:11:10 2023.
