 Gaussian 16, Revision A.03,
 Gaussian 16:  ES64L-G16RevA.03 25-Dec-2016

 ------------------------------------------------------
 # b3lyp/6-31+g(d,p) scrf=(iefpcm,solvent=acetonitrile)
 ------------------------------------------------------

 -----------------------
 tmpdir/M3_conf_0_47.gjf
 -----------------------
 Symbolic Z-matrix:
 Charge =  0 Multiplicity = 1

                         Standard orientation:
 ---------------------------------------------------------------------
 Center     Atomic      Atomic             Coordinates (Angstroms)
 Number     Number       Type             X           Y           Z
 ---------------------------------------------------------------------
      1          1           0        1.950315   -0.844430    0.533623
      2          6           0        1.637593   -0.041458   -0.134681
      3         16           0       -0.194798    0.000558    0.232562
      4          1           0        1.922851   -0.229513   -1.154887
      5          1           0        2.015392    0.923078    0.221462
      6          8           0       -0.817903   -1.248241   -0.259124
      7          8           0       -0.725879    1.296662   -0.255209
      8          1           0       -0.247100    0.003316    1.601560
 ---------------------------------------------------------------------

 SCF Done:  E(RB3LYP) =  -589.097000626     A.U. after   11 cycles

 The electronic state is 1-A.
 Alpha  occ. eigenvalues --  -89.11914 -19.17030 -19.16746 -10.23641  -8.14905
 Alpha  occ. eigenvalues --   -6.11343  -6.11271  -6.11179  -1.11691  -1.01584
 Alpha  occ. eigenvalues --   -0.78285  -0.67084  -0.53570  -0.49560  -0.48225
 Alpha  occ. eigenvalues --   -0.44390  -0.43983  -0.35416  -0.34165  -0.32357
 Alpha  occ. eigenvalues --   -0.31235
 Alpha virt. eigenvalues --   -0.01545   0.00744   0.01068   0.02518   0.04709
 Alpha virt. eigenvalues --    0.06403   0.07017   0.07603   0.09082   0.11350
 Alpha virt. eigenvalues --    0.11527   0.13359   0.14111   0.17691   0.18719

 Mulliken charges:
               1
     1  H    0.212039
     2  C   -0.547028
     3  S    1.063639
     4  H    0.231503
     5  H    0.216938
     6  O   -0.627881
     7  O   -0.645519
     8  H    0.096309
 Sum of Mulliken charges =  -0.00000

 Dipole moment (field-independent basis, Debye):
    X=              5.1222    Y=             -0.2215    Z=              3.1281  Tot=              6.0059
 Quadrupole moment (field-independent basis, Debye-Ang):
   XX=            -29.8806   YY=            -39.1806   ZZ=            -27.8560
   XY=             -0.2110   XZ=             -2.3184   YZ=              0.0874

 Normal termination of Gaussian 16 at Fri Sep 22 17:10:30 2023.
