 Gaussian 16, Revision A.03,
 Gaussian 16:  ES64L-G16RevA.03 25-Dec-2016

 ------------------------------------------------------
 # b3lyp/6-31+g(d,p) scrf=(iefpcm,solvent=acetonitrile)
 ------------------------------------------------------

 -----------------------
 tmpdir/M3_conf_0_19.gjf
 -----------------------
 Symbolic Z-matrix:
 Charge =  0 Multiplicity = 1

                         Standard orientation:
 ---------------------------------------------------------------------
 Center     Atomic      Atomic             Coordinates (Angstroms)
 Number     Number       Type             X           Y           Z
 ---------------------------------------------------------------------
      1          6           0        0.125608   -0.178362    0.051100
      2         16           0        1.910029   -0.476684   -0.003200
      3          8           0        2.607809    0.849377   -0.197549
      4          6           0       -0.367021    1.125591    0.083995
      5          6           0       -0.737127   -1.275127   -0.040096
      6          6           0       -1.747994    1.328892    0.053169
      7          1           0        0.321871    1.962450    0.129860
      8          6           0       -2.113556   -1.053828   -0.069095
      9          1           0       -0.347765   -2.288620   -0.084014
     10          6           0       -2.641276    0.248499   -0.024431
     11          1           0       -2.136040    2.343285    0.086748
     12          1           0       -2.787038   -1.903961   -0.133629
     13          1           0        2.134398   -0.869318    1.379847
     14          1           0       -3.720169    0.414092   -0.075060
 ---------------------------------------------------------------------

 SCF Done:  E(RB3LYP) =  -705.629288281     A.U. after   14 cycles

 The electronic state is 1-A.
 Alpha  occ. eigenvalues --  -89.01305 -19.14044 -10.23746 -10.21856 -10.21539
 Alpha  occ. eigenvalues --  -10.21333 -10.21226 -10.21185  -8.05936  -6.02382
 Alpha  occ. eigenvalues --   -6.02231  -6.01658  -1.03286  -0.87883  -0.78844
 Alpha  occ. eigenvalues --   -0.76679  -0.70588  -0.62503  -0.60550  -0.53667
 Alpha  occ. eigenvalues --   -0.48819  -0.47336  -0.46264  -0.44661  -0.43900
 Alpha  occ. eigenvalues --   -0.40498  -0.38320  -0.37687  -0.36149  -0.29986
 Alpha  occ. eigenvalues --   -0.28418  -0.27348  -0.24854
 Alpha virt. eigenvalues --   -0.04874  -0.02956  -0.01054  -0.00341   0.00992
 Alpha virt. eigenvalues --    0.02688   0.03384   0.03822   0.04671   0.05950
 Alpha virt. eigenvalues --    0.06736   0.06907   0.08071   0.08565   0.08805

 Mulliken charges:
               1
     1  C   -0.379571
     2  S    0.695699
     3  O   -0.758140
     4  C    0.267650
     5  C   -0.331448
     6  C   -0.112464
     7  H    0.169716
     8  C   -0.074692
     9  H    0.158841
    10  C   -0.159587
    11  H    0.151568
    12  H    0.152722
    13  H    0.064329
    14  H    0.155378
 Sum of Mulliken charges =  -0.00000

 Dipole moment (field-independent basis, Debye):
    X=             -4.3467    Y=             -3.1967    Z=              1.5169  Tot=              5.6048
 Quadrupole moment (field-independent basis, Debye-Ang):
   XX=            -58.5274   YY=            -49.8589   ZZ=            -56.4637
   XY=             -8.1235   XZ=              4.2810   YZ=             -0.2793

 Normal termination of Gaussian 16 at Fri Sep 22 17:09:10 2023.
