 Gaussian 16, Revision A.03,
 Gaussian 16:  ES64L-G16RevA.03 25-Dec-2016

 ------------------------------------------------------
 # b3lyp/6-31+g(d,p) scrf=(iefpcm,solvent=acetonitrile)
 ------------------------------------------------------

 ----------------------
 tmpdir/M3_conf_0_1.gjf
 ----------------------
 Symbolic Z-matrix:
 Charge =  0 Multiplicity = 2

                         Standard orientation:
 ---------------------------------------------------------------------
 Center     Atomic      Atomic             Coordinates (Angstroms)
 Number     Number       Type             X           Y           Z
 ---------------------------------------------------------------------
      1          6           0        0.801728    0.005752    0.014249
      2          6           0       -0.706185    0.009210   -0.001615
      3          1           0        1.411034    0.880861   -0.020304
      4          1           0        1.325475   -0.932910   -0.032239
      5          1           0       -1.112404   -0.404411    0.932506
      6          1           0       -1.124224    1.005880   -0.149778
      7          1           0       -1.073141   -0.639195   -0.805985
 ---------------------------------------------------------------------

 SCF Done:  E(UB3LYP) =  -79.1697052303     A.U. after   11 cycles

 The electronic state is 2-A.
 Alpha  occ. eigenvalues --  -10.19539 -10.18614  -0.75585  -0.61512  -0.45139
 Alpha  occ. eigenvalues --   -0.41423  -0.39292  -0.36195  -0.20600
 Alpha virt. eigenvalues --    0.02085   0.03121   0.05490   0.05945   0.08442
 Alpha virt. eigenvalues --    0.09020   0.09825   0.15055   0.17101   0.19227
 Alpha virt. eigenvalues --    0.22412   0.25976   0.29166   0.31030   0.61545

  Beta  occ. eigenvalues --  -10.18691 -10.18197  -0.73917  -0.59147  -0.44500
  Beta  occ. eigenvalues --   -0.40023  -0.38453  -0.35742
  Beta virt. eigenvalues --   -0.05846   0.02237   0.03319   0.05493   0.06402
  Beta virt. eigenvalues --    0.08418   0.09001   0.11259   0.15278   0.17543
  Beta virt. eigenvalues --    0.20146   0.23816   0.26854   0.29633   0.31328

 Mulliken charges and spin densities:
               1          2
     1  C   -0.259210   1.138253
     2  C   -0.520886  -0.129729
     3  H    0.151495  -0.049195
     4  H    0.144037  -0.048960
     5  H    0.164157   0.049678
     6  H    0.158283   0.002889
     7  H    0.162124   0.037064
 Sum of Mulliken charges =   0.00000   1.00000

 Dipole moment (field-independent basis, Debye):
    X=             -0.3709    Y=             -0.0472    Z=             -0.0877  Tot=              0.3841
 Quadrupole moment (field-independent basis, Debye-Ang):
   XX=            -14.4648   YY=            -13.7723   ZZ=            -15.6335
   XY=              0.0716   XZ=             -0.1324   YZ=             -0.0057

 Normal termination of Gaussian 16 at Fri Sep 22 17:08:22 2023.
