 Gaussian 16, Revision A.03,
 Gaussian 16:  ES64L-G16RevA.03 25-Dec-2016

 ------------------------------------------------------
 # b3lyp/6-31+g(d,p) scrf=(iefpcm,solvent=acetonitrile)
 ------------------------------------------------------

 -----------------------
 tmpdir/M3_conf_0_57.gjf
 -----------------------
 Symbolic Z-matrix:
 Charge =  0 Multiplicity = 1

                         Standard orientation:
 ---------------------------------------------------------------------
 Center     Atomic      Atomic             Coordinates (Angstroms)
 Number     Number       Type             X           Y           Z
 ---------------------------------------------------------------------
      1          8           0       -2.182803   -1.273404   -0.342262
      2         16           0       -1.676933    0.000552    0.224320
      3          6           0        0.117387   -0.000436    0.094622
      4          6           0        0.794134    1.222315    0.051334
      5          6           0        0.795521   -1.222394    0.054307
      6          6           0        2.187696    1.214942   -0.037212
      7          1           0        0.242632    2.155863    0.073226
      8          6           0        2.189441   -1.213109   -0.033220
      9          1           0        0.245769   -2.156829    0.077318
     10          6           0        2.882345    0.001222   -0.077288
     11          1           0        2.727707    2.155451   -0.078509
     12          1           0        2.730957   -2.152893   -0.071258
     13          1           0        3.965712    0.001621   -0.146800
     14          1           0       -1.909706   -0.024317    1.628540
     15          8           0       -2.188608    1.273035   -0.331101
 ---------------------------------------------------------------------

 SCF Done:  E(RB3LYP) =  -780.843826149     A.U. after   14 cycles

 The electronic state is 1-A.
 Alpha  occ. eigenvalues --  -89.12273 -19.17309 -19.17114 -10.24642 -10.22682
 Alpha  occ. eigenvalues --  -10.22676 -10.21926 -10.21750 -10.21741  -8.15123
 Alpha  occ. eigenvalues --   -6.11583  -6.11490  -6.11418  -1.12001  -1.01899
 Alpha  occ. eigenvalues --   -0.88743  -0.79418  -0.77493  -0.70615  -0.63337
 Alpha  occ. eigenvalues --   -0.61884  -0.56029  -0.52558  -0.49469  -0.48858
 Alpha  occ. eigenvalues --   -0.46464  -0.46354  -0.44804  -0.39662  -0.38905
 Alpha  occ. eigenvalues --   -0.37190  -0.35689  -0.34479  -0.32765  -0.31709
 Alpha  occ. eigenvalues --   -0.28724  -0.28011
 Alpha virt. eigenvalues --   -0.05932  -0.03645  -0.01039   0.00407   0.01876
 Alpha virt. eigenvalues --    0.01924   0.03280   0.03883   0.04819   0.06314
 Alpha virt. eigenvalues --    0.06478   0.06942   0.07781   0.08420   0.08633

 Mulliken charges:
               1
     1  O   -0.638080
     2  S    1.214396
     3  C   -0.495835
     4  C    0.033901
     5  C    0.000027
     6  C   -0.125221
     7  H    0.173396
     8  C   -0.126636
     9  H    0.173482
    10  C   -0.151796
    11  H    0.159976
    12  H    0.160022
    13  H    0.158406
    14  H    0.093447
    15  O   -0.629485
 Sum of Mulliken charges =  -0.00000

 Dipole moment (field-independent basis, Debye):
    X=              5.9943    Y=              0.0279    Z=              3.4722  Tot=              6.9274
 Quadrupole moment (field-independent basis, Debye-Ang):
   XX=            -61.4883   YY=            -59.5778   ZZ=            -60.1845
   XY=             -0.0552   XZ=             -7.9660   YZ=             -0.1034

 Normal termination of Gaussian 16 at Fri Sep 22 17:11:10 2023.
