 Gaussian 16, Revision A.03,
 Gaussian 16:  ES64L-G16RevA.03 25-Dec-2016

 ------------------------------------------------------
 # b3lyp/6-31+g(d,p) scrf=(iefpcm,solvent=acetonitrile)
 ------------------------------------------------------

 -----------------------
 tmpdir/M3_conf_0_20.gjf
 -----------------------
 Symbolic Z-matrix:
 Charge =  0 Multiplicity = 1

                         Standard orientation:
 ---------------------------------------------------------------------
 Center     Atomic      Atomic             Coordinates (Angstroms)
 Number     Number       Type             X           Y           Z
 ---------------------------------------------------------------------
      1          6           0       -0.091077   -0.049695   -0.156475
      2         16           0        1.693547   -0.143286   -0.443625
      3          7           0        2.012484   -0.943440    1.114305
      4          6           0       -0.679727    1.158928    0.213388
      5          6           0       -0.867783   -1.184773   -0.409135
      6          6           0       -2.066984    1.220146    0.358779
      7          1           0       -0.059493    2.033260    0.380289
      8          6           0       -2.251775   -1.105974   -0.258383
      9          1           0       -0.405953   -2.119565   -0.715027
     10          6           0       -2.873694    0.094905    0.125832
     11          1           0       -2.528768    2.158173    0.654700
     12          1           0       -2.857823   -1.987631   -0.447819
     13          8           0        2.196691    1.280464   -0.389915
     14          1           0        1.640130   -0.542516    1.959797
     15          1           0        2.401553   -1.844998    1.126043
     16          1           0       -3.961077    0.154999    0.215177
 ---------------------------------------------------------------------

 SCF Done:  E(RB3LYP) =  -760.994703057     A.U. after   14 cycles

 The electronic state is 1-A.
 Alpha  occ. eigenvalues --  -89.03834 -19.14762 -14.35377 -10.23133 -10.21543
 Alpha  occ. eigenvalues --  -10.21235 -10.21142 -10.21034 -10.20990  -8.07804
 Alpha  occ. eigenvalues --   -6.04318  -6.04128  -6.03562  -1.04274  -0.89059
 Alpha  occ. eigenvalues --   -0.87069  -0.77785  -0.76458  -0.69069  -0.62291
 Alpha  occ. eigenvalues --   -0.60212  -0.53840  -0.52802  -0.49044  -0.47180
 Alpha  occ. eigenvalues --   -0.46524  -0.44873  -0.43719  -0.40347  -0.38503
 Alpha  occ. eigenvalues --   -0.37634  -0.35954  -0.31353  -0.29933  -0.27169
 Alpha  occ. eigenvalues --   -0.26376  -0.25721
 Alpha virt. eigenvalues --   -0.04742  -0.02768   0.00005   0.00316   0.00918
 Alpha virt. eigenvalues --    0.02405   0.03352   0.03957   0.04691   0.05513
 Alpha virt. eigenvalues --    0.05981   0.07005   0.07434   0.08036   0.08288

 Mulliken charges:
               1
     1  C   -0.500949
     2  S    0.893245
     3  N   -0.846295
     4  C    0.485255
     5  C   -0.547896
     6  C   -0.019708
     7  H    0.168349
     8  C   -0.081276
     9  H    0.155113
    10  C   -0.142586
    11  H    0.149964
    12  H    0.150963
    13  O   -0.712638
    14  H    0.346717
    15  H    0.348243
    16  H    0.153500
 Sum of Mulliken charges =  -0.00000

 Dipole moment (field-independent basis, Debye):
    X=             -3.7703    Y=             -4.0988    Z=              1.4713  Tot=              5.7603
 Quadrupole moment (field-independent basis, Debye-Ang):
   XX=            -62.1547   YY=            -56.8254   ZZ=            -59.9595
   XY=            -10.1584   XZ=              2.1332   YZ=              2.1576

 Normal termination of Gaussian 16 at Fri Sep 22 17:10:16 2023.
