 Gaussian 16, Revision A.03,
 Gaussian 16:  ES64L-G16RevA.03 25-Dec-2016

 ------------------------------------------------------
 # b3lyp/6-31+g(d,p) scrf=(iefpcm,solvent=acetonitrile)
 ------------------------------------------------------

 -----------------------
 tmpdir/M3_conf_0_13.gjf
 -----------------------
 Symbolic Z-matrix:
 Charge =  0 Multiplicity = 1

                         Standard orientation:
 ---------------------------------------------------------------------
 Center     Atomic      Atomic             Coordinates (Angstroms)
 Number     Number       Type             X           Y           Z
 ---------------------------------------------------------------------
      1          6           0        0.913420    0.002893   -0.014611
      2          6           0        2.422718    0.001770    0.010046
      3          1           0        2.815233    0.940906   -0.389313
      4          6           0        0.192284    1.207527   -0.009337
      5          6           0        0.196050   -1.206198   -0.009470
      6          6           0       -1.203854    1.215403    0.002128
      7          1           0        0.728386    2.152662   -0.010948
      8          6           0       -1.198260   -1.216863    0.002504
      9          1           0        0.734499   -2.149887   -0.008792
     10          6           0       -1.887202    0.000072   -0.006290
     11          1           0       -1.759021    2.147315    0.020289
     12          1           0       -1.735253   -2.161412    0.014687
     13          1           0        2.792060   -0.109263    1.037018
     14          1           0        2.829615   -0.829381   -0.573446
     15          1           0       -3.016461   -0.018557    0.060692
 ---------------------------------------------------------------------

 SCF Done:  E(RB3LYP) =  -271.590194883     A.U. after   12 cycles

 The electronic state is 1-A.
 Alpha  occ. eigenvalues --  -10.20613 -10.19875 -10.19735 -10.19717 -10.19461
 Alpha  occ. eigenvalues --  -10.19405 -10.18507  -0.86084  -0.77426  -0.75036
 Alpha  occ. eigenvalues --   -0.68590  -0.60897  -0.58581  -0.51010  -0.46253
 Alpha  occ. eigenvalues --   -0.45721  -0.42524  -0.42155  -0.40529  -0.38650
 Alpha  occ. eigenvalues --   -0.36055  -0.34384  -0.34192  -0.25968  -0.24822
 Alpha virt. eigenvalues --   -0.01764  -0.01450   0.00824   0.02268   0.02875
 Alpha virt. eigenvalues --    0.04484   0.04912   0.05228   0.06149   0.07155
 Alpha virt. eigenvalues --    0.07714   0.08180   0.08674   0.10439   0.11797

 Mulliken charges:
               1
     1  C    0.332213
     2  C   -0.648776
     3  H    0.158445
     4  C   -0.310373
     5  C   -0.207763
     6  C   -0.121123
     7  H    0.134447
     8  C   -0.096476
     9  H    0.134799
    10  C   -0.131030
    11  H    0.142257
    12  H    0.141963
    13  H    0.172015
    14  H    0.161872
    15  H    0.137532
 Sum of Mulliken charges =  -0.00000

 Dipole moment (field-independent basis, Debye):
    X=              0.5978    Y=             -0.0350    Z=              0.1475  Tot=              0.6167
 Quadrupole moment (field-independent basis, Debye-Ang):
   XX=            -38.3381   YY=            -38.3983   ZZ=            -46.7848
   XY=             -0.0450   XZ=             -0.1388   YZ=              0.0015

 Normal termination of Gaussian 16 at Fri Sep 22 17:09:23 2023.
