 Gaussian 16, Revision A.03,
 Gaussian 16:  ES64L-G16RevA.03 25-Dec-2016

 ------------------------------------------------------
 # b3lyp/6-31+g(d,p) scrf=(iefpcm,solvent=acetonitrile)
 ------------------------------------------------------

 -----------------------
 tmpdir/M3_conf_0_33.gjf
 -----------------------
 Symbolic Z-matrix:
 Charge =  0 Multiplicity = 1

                         Standard orientation:
 ---------------------------------------------------------------------
 Center     Atomic      Atomic             Coordinates (Angstroms)
 Number     Number       Type             X           Y           Z
 ---------------------------------------------------------------------
      1          6           0       -0.008975    0.007573   -0.004130
      2          1           0        0.150640   -0.346314    1.015676
      3          1           0       -1.064749    0.181643   -0.173828
      4          1           0        0.372426   -0.784242   -0.664627
      5          1           0        0.595535    0.903478   -0.152438
 ---------------------------------------------------------------------

 SCF Done:  E(RB3LYP) =  -40.5257580490     A.U. after    7 cycles

 The electronic state is 1-A.
 Alpha  occ. eigenvalues --  -10.17075  -0.69568  -0.40042  -0.39196  -0.38670
 Alpha virt. eigenvalues --    0.01714   0.06170   0.06237   0.06276   0.17835
 Alpha virt. eigenvalues --    0.18198   0.18884   0.27956   0.63674   0.63879
 Alpha virt. eigenvalues --    0.64041   0.90258   0.90964   0.92320   1.05464

 Mulliken charges:
               1
     1  C   -0.624182
     2  H    0.154908
     3  H    0.158829
     4  H    0.153925
     5  H    0.156520
 Sum of Mulliken charges =  -0.00000

 Dipole moment (field-independent basis, Debye):
    X=              0.0273    Y=             -0.0253    Z=              0.0245  Tot=              0.0445
 Quadrupole moment (field-independent basis, Debye-Ang):
   XX=             -8.3548   YY=             -8.5167   ZZ=             -8.6242
   XY=              0.0041   XZ=              0.0123   YZ=             -0.0139

 Normal termination of Gaussian 16 at Fri Sep 22 17:09:28 2023.
