 Gaussian 16, Revision A.03,
 Gaussian 16:  ES64L-G16RevA.03 25-Dec-2016

 ------------------------------------------------------
 # b3lyp/6-31+g(d,p) scrf=(iefpcm,solvent=acetonitrile)
 ------------------------------------------------------

 -----------------------
 tmpdir/M3_conf_0_10.gjf
 -----------------------
 Symbolic Z-matrix:
 Charge =  0 Multiplicity = 1

                         Standard orientation:
 ---------------------------------------------------------------------
 Center     Atomic      Atomic             Coordinates (Angstroms)
 Number     Number       Type             X           Y           Z
 ---------------------------------------------------------------------
      1          6           0       -0.009105    0.000939   -0.002729
      2          1           0        0.439248    0.960670   -0.292452
      3          1           0       -1.100480    0.045531   -0.032663
      4          1           0        0.340143   -0.234756    1.010126
      5          1           0        0.375721   -0.777078   -0.668641
 ---------------------------------------------------------------------

 SCF Done:  E(RB3LYP) =  -40.5259712423     A.U. after    7 cycles

 The electronic state is 1-A.
 Alpha  occ. eigenvalues --  -10.17254  -0.69437  -0.39811  -0.39074  -0.38824
 Alpha virt. eigenvalues --    0.01691   0.06182   0.06239   0.06257   0.17883
 Alpha virt. eigenvalues --    0.18062   0.18558   0.27796   0.63822   0.63936
 Alpha virt. eigenvalues --    0.63999   0.90426   0.90793   0.91837   1.05080

 Mulliken charges:
               1
     1  C   -0.623563
     2  H    0.155191
     3  H    0.157809
     4  H    0.154773
     5  H    0.155789
 Sum of Mulliken charges =  -0.00000

 Dipole moment (field-independent basis, Debye):
    X=              0.0349    Y=             -0.0082    Z=              0.0106  Tot=              0.0374
 Quadrupole moment (field-independent basis, Debye-Ang):
   XX=             -8.3853   YY=             -8.5468   ZZ=             -8.6013
   XY=             -0.0045   XZ=             -0.0022   YZ=              0.0061

 Normal termination of Gaussian 16 at Fri Sep 22 17:08:11 2023.
