 Gaussian 16, Revision A.03,
 Gaussian 16:  ES64L-G16RevA.03 25-Dec-2016

 ------------------------------------------------------
 # b3lyp/6-31+g(d,p) scrf=(iefpcm,solvent=acetonitrile)
 ------------------------------------------------------

 ----------------------
 tmpdir/M3_conf_0_0.gjf
 ----------------------
 Symbolic Z-matrix:
 Charge =  0 Multiplicity = 2

                         Standard orientation:
 ---------------------------------------------------------------------
 Center     Atomic      Atomic             Coordinates (Angstroms)
 Number     Number       Type             X           Y           Z
 ---------------------------------------------------------------------
      1          6           0        1.210132   -0.149613   -0.003035
      2          6           0       -0.173415    0.433549   -0.059829
      3          1           0        2.071495    0.347915    0.426230
      4          1           0        1.304613   -1.167281   -0.339183
      5          1           0       -0.300655    1.523361   -0.166632
      6          8           0       -1.161969   -0.300951    0.057096
 ---------------------------------------------------------------------

 SCF Done:  E(UB3LYP) =  -153.184743569     A.U. after   13 cycles

 The electronic state is 2-A.
 Alpha  occ. eigenvalues --  -19.17706 -10.29674 -10.23803  -1.06130  -0.75139
 Alpha  occ. eigenvalues --   -0.59505  -0.49770  -0.45762  -0.44200  -0.40632
 Alpha  occ. eigenvalues --   -0.28558  -0.26340
 Alpha virt. eigenvalues --   -0.03249   0.02017   0.03187   0.04603   0.06152
 Alpha virt. eigenvalues --    0.08035   0.08728   0.10317   0.14874   0.17646
 Alpha virt. eigenvalues --    0.18638   0.20374   0.23276   0.24158   0.24662

  Beta  occ. eigenvalues --  -19.17109 -10.29812 -10.22608  -1.05023  -0.72231
  Beta  occ. eigenvalues --   -0.58700  -0.49094  -0.44997  -0.43004  -0.38524
  Beta  occ. eigenvalues --   -0.27705
  Beta virt. eigenvalues --   -0.13044  -0.00809   0.02204   0.03298   0.04708
  Beta virt. eigenvalues --    0.06620   0.08215   0.08852   0.11308   0.15048
  Beta virt. eigenvalues --    0.18140   0.19145   0.21046   0.23975   0.24514

 Mulliken charges and spin densities:
               1          2
     1  C   -0.214075   0.970953
     2  C    0.144147  -0.097926
     3  H    0.185508  -0.042133
     4  H    0.181985  -0.042257
     5  H    0.147181   0.000596
     6  O   -0.444746   0.210767
 Sum of Mulliken charges =  -0.00000   1.00000

 Dipole moment (field-independent basis, Debye):
    X=              3.4668    Y=              1.5606    Z=             -0.2067  Tot=              3.8074
 Quadrupole moment (field-independent basis, Debye-Ang):
   XX=            -19.6210   YY=            -16.8676   ZZ=            -18.4143
   XY=             -1.5670   XZ=              0.7447   YZ=              0.5058

 Normal termination of Gaussian 16 at Fri Sep 22 17:08:14 2023.
