 Gaussian 16, Revision A.03,
 Gaussian 16:  ES64L-G16RevA.03 25-Dec-2016

 ------------------------------------------------------
 # b3lyp/6-31+g(d,p) scrf=(iefpcm,solvent=acetonitrile)
 ------------------------------------------------------

 -----------------------
 tmpdir/M3_conf_0_48.gjf
 -----------------------
 Symbolic Z-matrix:
 Charge =  0 Multiplicity = 1

                         Standard orientation:
 ---------------------------------------------------------------------
 Center     Atomic      Atomic             Coordinates (Angstroms)
 Number     Number       Type             X           Y           Z
 ---------------------------------------------------------------------
      1          1           0        1.979128    0.934823    0.216840
      2          6           0        1.637620   -0.045593   -0.132528
      3         16           0       -0.194894   -0.000505    0.233744
      4          1           0        1.876501   -0.204957   -1.169398
      5          1           0        2.031804   -0.837043    0.505769
      6          8           0       -0.819844   -1.248218   -0.258358
      7          8           0       -0.723523    1.296537   -0.254226
      8          1           0       -0.247918    0.002255    1.602718
 ---------------------------------------------------------------------

 SCF Done:  E(RB3LYP) =  -589.098783980     A.U. after   11 cycles

 The electronic state is 1-A.
 Alpha  occ. eigenvalues --  -89.11891 -19.16967 -19.16859 -10.23616  -8.14883
 Alpha  occ. eigenvalues --   -6.11323  -6.11244  -6.11159  -1.11697  -1.01601
 Alpha  occ. eigenvalues --   -0.78197  -0.67080  -0.53594  -0.49447  -0.48187
 Alpha  occ. eigenvalues --   -0.44480  -0.43955  -0.35441  -0.34171  -0.32371
 Alpha  occ. eigenvalues --   -0.31292
 Alpha virt. eigenvalues --   -0.01381   0.00709   0.01142   0.02533   0.04704
 Alpha virt. eigenvalues --    0.06428   0.06997   0.07645   0.08943   0.11357
 Alpha virt. eigenvalues --    0.11567   0.13329   0.14308   0.17489   0.18718

 Mulliken charges:
               1
     1  H    0.214684
     2  C   -0.550786
     3  S    1.068865
     4  H    0.229882
     5  H    0.216845
     6  O   -0.631867
     7  O   -0.642330
     8  H    0.094707
 Sum of Mulliken charges =  -0.00000

 Dipole moment (field-independent basis, Debye):
    X=              5.1170    Y=             -0.1980    Z=              3.1124  Tot=              5.9925
 Quadrupole moment (field-independent basis, Debye-Ang):
   XX=            -29.8703   YY=            -39.1578   ZZ=            -27.8709
   XY=             -0.3539   XZ=             -2.2194   YZ=              0.0647

 Normal termination of Gaussian 16 at Fri Sep 22 17:09:56 2023.
