 Gaussian 16, Revision A.03,
 Gaussian 16:  ES64L-G16RevA.03 25-Dec-2016

 ------------------------------------------------------
 # b3lyp/6-31+g(d,p) scrf=(iefpcm,solvent=acetonitrile)
 ------------------------------------------------------

 -----------------------
 tmpdir/M3_conf_0_38.gjf
 -----------------------
 Symbolic Z-matrix:
 Charge =  0 Multiplicity = 1

                         Standard orientation:
 ---------------------------------------------------------------------
 Center     Atomic      Atomic             Coordinates (Angstroms)
 Number     Number       Type             X           Y           Z
 ---------------------------------------------------------------------
      1          1           0       -0.467014    0.961652    0.253310
      2          6           0        0.005173    0.003711   -0.007593
      3          1           0        0.107289   -0.601234    0.901094
      4          1           0        0.990518    0.157486   -0.430907
      5          1           0       -0.661830   -0.540171   -0.677938
 ---------------------------------------------------------------------

 SCF Done:  E(RB3LYP) =  -40.5258381753     A.U. after    7 cycles

 The electronic state is 1-A.
 Alpha  occ. eigenvalues --  -10.17130  -0.69526  -0.40011  -0.39163  -0.38678
 Alpha virt. eigenvalues --    0.01708   0.06172   0.06239   0.06269   0.17793
 Alpha virt. eigenvalues --    0.18104   0.18911   0.27887   0.63678   0.63934
 Alpha virt. eigenvalues --    0.64025   0.90202   0.90914   0.92327   1.05254

 Mulliken charges:
               1
     1  H    0.154903
     2  C   -0.623784
     3  H    0.154095
     4  H    0.158548
     5  H    0.156238
 Sum of Mulliken charges =  -0.00000

 Dipole moment (field-independent basis, Debye):
    X=             -0.0107    Y=             -0.0218    Z=              0.0225  Tot=              0.0332
 Quadrupole moment (field-independent basis, Debye-Ang):
   XX=             -8.3728   YY=             -8.5043   ZZ=             -8.6298
   XY=              0.0165   XZ=             -0.0136   YZ=              0.0066

 Normal termination of Gaussian 16 at Fri Sep 22 17:09:46 2023.
