 Gaussian 16, Revision A.03,
 Gaussian 16:  ES64L-G16RevA.03 25-Dec-2016

 ------------------------------------------------------
 # b3lyp/6-31+g(d,p) scrf=(iefpcm,solvent=acetonitrile)
 ------------------------------------------------------

 -----------------------
 tmpdir/M3_conf_0_27.gjf
 -----------------------
 Symbolic Z-matrix:
 Charge =  0 Multiplicity = 1

                         Standard orientation:
 ---------------------------------------------------------------------
 Center     Atomic      Atomic             Coordinates (Angstroms)
 Number     Number       Type             X           Y           Z
 ---------------------------------------------------------------------
      1          6           0        0.547463   -0.006358   -0.005393
      2          8           0       -0.683877    0.003813    0.001242
      3          1           0        1.075302   -0.933380    0.011389
      4          1           0        1.110934    0.941020    0.011038
 ---------------------------------------------------------------------

 SCF Done:  E(RB3LYP) =  -114.515944809     A.U. after    9 cycles

 The electronic state is 1-A.
 Alpha  occ. eigenvalues --  -19.18523 -10.29526  -1.06277  -0.64709  -0.50673
 Alpha  occ. eigenvalues --   -0.46072  -0.40495  -0.28295
 Alpha virt. eigenvalues --   -0.06502   0.02075   0.04139   0.05216   0.07298
 Alpha virt. eigenvalues --    0.16530   0.18695   0.20628   0.21392   0.25970
 Alpha virt. eigenvalues --    0.26196   0.35638   0.63098   0.66461   0.73020

 Mulliken charges:
               1
     1  C    0.112877
     2  O   -0.402756
     3  H    0.147085
     4  H    0.142794
 Sum of Mulliken charges =  -0.00000

 Dipole moment (field-independent basis, Debye):
    X=              3.2219    Y=             -0.0520    Z=              0.0043  Tot=              3.2223
 Quadrupole moment (field-independent basis, Debye-Ang):
   XX=            -12.3383   YY=            -11.4942   ZZ=            -11.7772
   XY=             -0.0152   XZ=              0.0125   YZ=              0.0003

 Normal termination of Gaussian 16 at Fri Sep 22 17:09:08 2023.
