 Gaussian 16, Revision A.03,
 Gaussian 16:  ES64L-G16RevA.03 25-Dec-2016

 ------------------------------------------------------
 # b3lyp/6-31+g(d,p) scrf=(iefpcm,solvent=acetonitrile)
 ------------------------------------------------------

 ----------------------
 tmpdir/M3_conf_0_4.gjf
 ----------------------
 Symbolic Z-matrix:
 Charge =  0 Multiplicity = 2

                         Standard orientation:
 ---------------------------------------------------------------------
 Center     Atomic      Atomic             Coordinates (Angstroms)
 Number     Number       Type             X           Y           Z
 ---------------------------------------------------------------------
      1          6           0       -0.912534    0.456354   -0.115994
      2          6           0        0.519514    0.729638    0.099967
      3          6           0        1.456374   -0.410509   -0.077355
      4          1           0       -1.580840    1.273878   -0.432706
      5          8           0       -1.368408   -0.673251    0.099860
      6          1           0        0.920085    1.669667    0.460015
      7          1           0        0.972006   -1.271846   -0.538528
      8          1           0        2.346028   -0.120307   -0.646733
      9          1           0        1.909861   -0.818281    0.919364
 ---------------------------------------------------------------------

 SCF Done:  E(UB3LYP) =  -192.509497932     A.U. after   14 cycles

 The electronic state is 2-A.
 Alpha  occ. eigenvalues --  -19.16772 -10.28445 -10.23603 -10.20009  -1.05501
 Alpha  occ. eigenvalues --   -0.79324  -0.67452  -0.56490  -0.51068  -0.45403
 Alpha  occ. eigenvalues --   -0.43639  -0.40814  -0.39272  -0.38183  -0.27950
 Alpha  occ. eigenvalues --   -0.23865
 Alpha virt. eigenvalues --   -0.02328   0.01367   0.02923   0.03874   0.05088
 Alpha virt. eigenvalues --    0.06237   0.07641   0.08588   0.09159   0.10288
 Alpha virt. eigenvalues --    0.12016   0.14124   0.15096   0.18421   0.19914

  Beta  occ. eigenvalues --  -19.16150 -10.28533 -10.22509 -10.20074  -1.04344
  Beta  occ. eigenvalues --   -0.77431  -0.66541  -0.55529  -0.50527  -0.44667
  Beta  occ. eigenvalues --   -0.41640  -0.39968  -0.38221  -0.37031  -0.27133
  Beta virt. eigenvalues --   -0.12057   0.00254   0.01706   0.02958   0.03995
  Beta virt. eigenvalues --    0.05229   0.06295   0.07695   0.08586   0.09403
  Beta virt. eigenvalues --    0.11045   0.12009   0.14283   0.15274   0.19257

 Mulliken charges and spin densities:
               1          2
     1  C    0.061873  -0.050524
     2  C    0.144127   0.871073
     3  C   -0.588476  -0.100396
     4  H    0.137448  -0.000459
     5  O   -0.459143   0.222144
     6  H    0.178057  -0.038146
     7  H    0.177516   0.002499
     8  H    0.177242   0.028373
     9  H    0.171357   0.065436
 Sum of Mulliken charges =  -0.00000   1.00000

 Dipole moment (field-independent basis, Debye):
    X=              2.8320    Y=              2.8143    Z=             -0.3513  Tot=              4.0080
 Quadrupole moment (field-independent basis, Debye-Ang):
   XX=            -25.8470   YY=            -24.3474   ZZ=            -24.8790
   XY=             -3.3378   XZ=              1.0430   YZ=              0.5653

 Normal termination of Gaussian 16 at Fri Sep 22 17:08:47 2023.
