 Gaussian 16, Revision A.03,
 Gaussian 16:  ES64L-G16RevA.03 25-Dec-2016

 ------------------------------------------------------
 # b3lyp/6-31+g(d,p) scrf=(iefpcm,solvent=acetonitrile)
 ------------------------------------------------------

 -----------------------
 tmpdir/M3_conf_0_14.gjf
 -----------------------
 Symbolic Z-matrix:
 Charge =  0 Multiplicity = 1

                         Standard orientation:
 ---------------------------------------------------------------------
 Center     Atomic      Atomic             Coordinates (Angstroms)
 Number     Number       Type             X           Y           Z
 ---------------------------------------------------------------------
      1          1           0        0.350447   -0.854085   -0.586513
      2          6           0       -0.007709    0.000199    0.001138
      3          1           0        0.256596    0.922315   -0.524863
      4          1           0       -1.088455   -0.061438    0.150088
      5          1           0        0.527663   -0.007986    0.954463
 ---------------------------------------------------------------------

 SCF Done:  E(RB3LYP) =  -40.5260662339     A.U. after    7 cycles

 The electronic state is 1-A.
 Alpha  occ. eigenvalues --  -10.17203  -0.69470  -0.39756  -0.39118  -0.38896
 Alpha virt. eigenvalues --    0.01698   0.06188   0.06238   0.06252   0.17947
 Alpha virt. eigenvalues --    0.18131   0.18551   0.27838   0.63830   0.63908
 Alpha virt. eigenvalues --    0.63962   0.90543   0.90887   0.91790   1.05133

 Mulliken charges:
               1
     1  H    0.154985
     2  C   -0.623607
     3  H    0.155601
     4  H    0.157409
     5  H    0.155612
 Sum of Mulliken charges =   0.00000

 Dipole moment (field-independent basis, Debye):
    X=              0.0315    Y=              0.0019    Z=             -0.0017  Tot=              0.0316
 Quadrupole moment (field-independent basis, Debye-Ang):
   XX=             -8.3965   YY=             -8.5384   ZZ=             -8.5863
   XY=              0.0039   XZ=             -0.0008   YZ=             -0.0049

 Normal termination of Gaussian 16 at Fri Sep 22 17:09:26 2023.
