 Gaussian 16, Revision A.03,
 Gaussian 16:  ES64L-G16RevA.03 25-Dec-2016

 ------------------------------------------------------
 # b3lyp/6-31+g(d,p) scrf=(iefpcm,solvent=acetonitrile)
 ------------------------------------------------------

 -----------------------
 tmpdir/M3_conf_0_31.gjf
 -----------------------
 Symbolic Z-matrix:
 Charge =  0 Multiplicity = 1

                         Standard orientation:
 ---------------------------------------------------------------------
 Center     Atomic      Atomic             Coordinates (Angstroms)
 Number     Number       Type             X           Y           Z
 ---------------------------------------------------------------------
      1          6           0       -0.008848    0.008263   -0.003364
      2          1           0        0.330300   -0.673113   -0.790177
      3          1           0       -1.064578    0.228421   -0.106932
      4          1           0        0.613389    0.903937   -0.028701
      5          1           0        0.173980   -0.508820    0.945997
 ---------------------------------------------------------------------

 SCF Done:  E(RB3LYP) =  -40.5257803802     A.U. after    7 cycles

 The electronic state is 1-A.
 Alpha  occ. eigenvalues --  -10.17081  -0.69564  -0.40046  -0.39202  -0.38656
 Alpha virt. eigenvalues --    0.01713   0.06170   0.06237   0.06277   0.17827
 Alpha virt. eigenvalues --    0.18194   0.18887   0.27949   0.63674   0.63896
 Alpha virt. eigenvalues --    0.64030   0.90230   0.90975   0.92326   1.05447

 Mulliken charges:
               1
     1  C   -0.624148
     2  H    0.154758
     3  H    0.158844
     4  H    0.156539
     5  H    0.154008
 Sum of Mulliken charges =  -0.00000

 Dipole moment (field-independent basis, Debye):
    X=              0.0279    Y=             -0.0297    Z=              0.0121  Tot=              0.0425
 Quadrupole moment (field-independent basis, Debye-Ang):
   XX=             -8.3548   YY=             -8.5157   ZZ=             -8.6265
   XY=             -0.0009   XZ=              0.0043   YZ=              0.0023

 Normal termination of Gaussian 16 at Fri Sep 22 17:09:30 2023.
