 Gaussian 16, Revision A.03,
 Gaussian 16:  ES64L-G16RevA.03 25-Dec-2016

 ------------------------------------------------------
 # b3lyp/6-31+g(d,p) scrf=(iefpcm,solvent=acetonitrile)
 ------------------------------------------------------

 ----------------------
 tmpdir/M3_conf_0_7.gjf
 ----------------------
 Symbolic Z-matrix:
 Charge =  0 Multiplicity = 1

                         Standard orientation:
 ---------------------------------------------------------------------
 Center     Atomic      Atomic             Coordinates (Angstroms)
 Number     Number       Type             X           Y           Z
 ---------------------------------------------------------------------
      1          6           0        0.914029    0.002992   -0.014628
      2          6           0        2.418427    0.001887    0.009971
      3          6           0        0.192883    1.207623   -0.009455
      4          6           0        0.196668   -1.206100   -0.009403
      5          6           0       -1.203256    1.215487    0.001990
      6          1           0        0.728977    2.152760   -0.011133
      7          6           0       -1.197642   -1.216776    0.002551
      8          1           0        0.735125   -2.149786   -0.008648
      9          6           0       -1.886594    0.000148   -0.006349
     10          1           0       -1.758431    2.147395    0.020070
     11          1           0       -1.734628   -2.161332    0.014805
     12          1           0        2.787754   -0.109057    1.036959
     13          1           0        2.825342   -0.829205   -0.573595
     14          1           0        2.824621    0.936142   -0.387137
     15          1           0       -3.015854   -0.018488    0.060621
 ---------------------------------------------------------------------

 SCF Done:  E(RB3LYP) =  -271.590193246     A.U. after   12 cycles

 The electronic state is 1-A.
 Alpha  occ. eigenvalues --  -10.20594 -10.19872 -10.19732 -10.19717 -10.19453
 Alpha  occ. eigenvalues --  -10.19405 -10.18469  -0.86096  -0.77477  -0.75035
 Alpha  occ. eigenvalues --   -0.68602  -0.60901  -0.58584  -0.51021  -0.46255
 Alpha  occ. eigenvalues --   -0.45740  -0.42521  -0.42179  -0.40594  -0.38588
 Alpha  occ. eigenvalues --   -0.36041  -0.34375  -0.34230  -0.25967  -0.24809
 Alpha virt. eigenvalues --   -0.01764  -0.01454   0.00824   0.02267   0.02876
 Alpha virt. eigenvalues --    0.04486   0.04912   0.05230   0.06145   0.07168
 Alpha virt. eigenvalues --    0.07714   0.08175   0.08675   0.10445   0.11800

 Mulliken charges:
               1
     1  C    0.331893
     2  C   -0.651647
     3  C   -0.309249
     4  C   -0.205975
     5  C   -0.120892
     6  H    0.134503
     7  C   -0.097168
     8  H    0.134803
     9  C   -0.130562
    10  H    0.142217
    11  H    0.141979
    12  H    0.172067
    13  H    0.161759
    14  H    0.158771
    15  H    0.137501
 Sum of Mulliken charges =  -0.00000

 Dipole moment (field-independent basis, Debye):
    X=              0.6045    Y=             -0.0332    Z=              0.1478  Tot=              0.6232
 Quadrupole moment (field-independent basis, Debye-Ang):
   XX=            -38.3086   YY=            -38.4103   ZZ=            -46.7817
   XY=             -0.0233   XZ=             -0.1447   YZ=              0.0071

 Normal termination of Gaussian 16 at Fri Sep 22 17:09:33 2023.
