 Gaussian 16, Revision A.03,
 Gaussian 16:  ES64L-G16RevA.03 25-Dec-2016

 ------------------------------------------------------
 # b3lyp/6-31+g(d,p) scrf=(iefpcm,solvent=acetonitrile)
 ------------------------------------------------------

 -----------------------
 tmpdir/M3_conf_0_56.gjf
 -----------------------
 Symbolic Z-matrix:
 Charge =  0 Multiplicity = 1

                         Standard orientation:
 ---------------------------------------------------------------------
 Center     Atomic      Atomic             Coordinates (Angstroms)
 Number     Number       Type             X           Y           Z
 ---------------------------------------------------------------------
      1          8           0       -2.162665    1.281096   -0.333569
      2         16           0       -1.677580   -0.000092    0.225681
      3          6           0        0.116696   -0.002412    0.095371
      4          6           0        0.794405    1.219825    0.052919
      5          6           0        0.793826   -1.224890    0.053765
      6          6           0        2.187944    1.211406   -0.036110
      7          1           0        0.243677    2.153794    0.075818
      8          6           0        2.187729   -1.216647   -0.034241
      9          1           0        0.243327   -2.158898    0.076131
     10          6           0        2.881596   -0.002840   -0.077477
     11          1           0        2.728695    2.151512   -0.076770
     12          1           0        2.728472   -2.156833   -0.073279
     13          1           0        3.964944   -0.003255   -0.147353
     14          1           0       -1.920320   -0.019926    1.628292
     15          8           0       -2.202423   -1.265042   -0.343817
 ---------------------------------------------------------------------

 SCF Done:  E(RB3LYP) =  -780.843736501     A.U. after   14 cycles

 The electronic state is 1-A.
 Alpha  occ. eigenvalues --  -89.12269 -19.17192 -19.17189 -10.24637 -10.22679
 Alpha  occ. eigenvalues --  -10.22667 -10.21925 -10.21746 -10.21738  -8.15119
 Alpha  occ. eigenvalues --   -6.11579  -6.11487  -6.11414  -1.11991  -1.01887
 Alpha  occ. eigenvalues --   -0.88736  -0.79403  -0.77489  -0.70609  -0.63332
 Alpha  occ. eigenvalues --   -0.61900  -0.56042  -0.52548  -0.49453  -0.48851
 Alpha  occ. eigenvalues --   -0.46463  -0.46345  -0.44800  -0.39661  -0.38896
 Alpha  occ. eigenvalues --   -0.37186  -0.35674  -0.34463  -0.32755  -0.31708
 Alpha  occ. eigenvalues --   -0.28718  -0.28007
 Alpha virt. eigenvalues --   -0.05940  -0.03640  -0.01045   0.00413   0.01860
 Alpha virt. eigenvalues --    0.01928   0.03280   0.03869   0.04828   0.06297
 Alpha virt. eigenvalues --    0.06456   0.06953   0.07771   0.08467   0.08636

 Mulliken charges:
               1
     1  O   -0.632052
     2  S    1.218315
     3  C   -0.503100
     4  C    0.026892
     5  C    0.011756
     6  C   -0.126578
     7  H    0.173759
     8  C   -0.126485
     9  H    0.173137
    10  C   -0.151465
    11  H    0.160004
    12  H    0.159931
    13  H    0.158385
    14  H    0.093823
    15  O   -0.636322
 Sum of Mulliken charges =  -0.00000

 Dipole moment (field-independent basis, Debye):
    X=              5.9698    Y=             -0.0325    Z=              3.4950  Tot=              6.9177
 Quadrupole moment (field-independent basis, Debye-Ang):
   XX=            -61.4059   YY=            -59.5856   ZZ=            -60.1810
   XY=             -0.0423   XZ=             -8.0258   YZ=             -0.0587

 Normal termination of Gaussian 16 at Fri Sep 22 17:12:27 2023.
