 Gaussian 16, Revision A.03,
 Gaussian 16:  ES64L-G16RevA.03 25-Dec-2016

 ------------------------------------------------------
 # b3lyp/6-31+g(d,p) scrf=(iefpcm,solvent=acetonitrile)
 ------------------------------------------------------

 ----------------------
 tmpdir/M3_conf_0_9.gjf
 ----------------------
 Symbolic Z-matrix:
 Charge =  0 Multiplicity = 1

                         Standard orientation:
 ---------------------------------------------------------------------
 Center     Atomic      Atomic             Coordinates (Angstroms)
 Number     Number       Type             X           Y           Z
 ---------------------------------------------------------------------
      1          6           0       -0.008971    0.000708   -0.002874
      2          1           0        0.399499   -0.817710   -0.602112
      3          1           0       -1.101525   -0.000492   -0.020681
      4          1           0        0.360626   -0.129428    1.021759
      5          1           0        0.395224    0.943379   -0.381721
 ---------------------------------------------------------------------

 SCF Done:  E(RB3LYP) =  -40.5259853781     A.U. after    7 cycles

 The electronic state is 1-A.
 Alpha  occ. eigenvalues --  -10.17198  -0.69476  -0.39814  -0.39125  -0.38831
 Alpha virt. eigenvalues --    0.01699   0.06184   0.06237   0.06259   0.17912
 Alpha virt. eigenvalues --    0.18150   0.18571   0.27849   0.63826   0.63894
 Alpha virt. eigenvalues --    0.63985   0.90454   0.90903   0.91853   1.05189

 Mulliken charges:
               1
     1  C   -0.623722
     2  H    0.155690
     3  H    0.157632
     4  H    0.154586
     5  H    0.155814
 Sum of Mulliken charges =  -0.00000

 Dipole moment (field-independent basis, Debye):
    X=              0.0368    Y=             -0.0026    Z=              0.0091  Tot=              0.0380
 Quadrupole moment (field-independent basis, Debye-Ang):
   XX=             -8.3808   YY=             -8.5428   ZZ=             -8.5973
   XY=              0.0011   XZ=             -0.0048   YZ=              0.0015

 Normal termination of Gaussian 16 at Fri Sep 22 17:08:08 2023.
