 Gaussian 16, Revision A.03,
 Gaussian 16:  ES64L-G16RevA.03 25-Dec-2016

 ------------------------------------------------------
 # b3lyp/6-31+g(d,p) scrf=(iefpcm,solvent=acetonitrile)
 ------------------------------------------------------

 -----------------------
 tmpdir/M3_conf_0_25.gjf
 -----------------------
 Symbolic Z-matrix:
 Charge =  0 Multiplicity = 1

                         Standard orientation:
 ---------------------------------------------------------------------
 Center     Atomic      Atomic             Coordinates (Angstroms)
 Number     Number       Type             X           Y           Z
 ---------------------------------------------------------------------
      1         16           0       -1.113107   -0.441228    0.072962
      2          7           0        0.446872    0.397028    0.254356
      3          6           0        1.582354   -0.144222   -0.365916
      4          1           0       -1.365095   -0.749605    1.392685
      5          8           0       -2.141373    0.596355   -0.313326
      6          1           0        0.531229    1.141390    0.927455
      7          1           0        1.470695   -0.727197   -1.252457
      8          8           0        2.710204    0.088794    0.085818
 ---------------------------------------------------------------------

 SCF Done:  E(RB3LYP) =  -643.259123512     A.U. after   12 cycles

 The electronic state is 1-A.
 Alpha  occ. eigenvalues --  -89.05073 -19.16878 -19.15848 -14.40673 -10.32964
 Alpha  occ. eigenvalues --   -8.09362  -6.05901  -6.05656  -6.05040  -1.06947
 Alpha  occ. eigenvalues --   -1.05160  -0.93241  -0.73122  -0.65647  -0.55060
 Alpha  occ. eigenvalues --   -0.53205  -0.48028  -0.45795  -0.42610  -0.41569
 Alpha  occ. eigenvalues --   -0.33301  -0.31263  -0.29500  -0.27417
 Alpha virt. eigenvalues --   -0.04824  -0.02368  -0.01393   0.00508   0.02560
 Alpha virt. eigenvalues --    0.03090   0.05478   0.05922   0.07883   0.08784
 Alpha virt. eigenvalues --    0.10462   0.12000   0.12871   0.16133   0.16941

 Mulliken charges:
               1
     1  S    0.852363
     2  N   -0.574616
     3  C    0.290408
     4  H    0.094974
     5  O   -0.705624
     6  H    0.370112
     7  H    0.176355
     8  O   -0.503972
 Sum of Mulliken charges =  -0.00000

 Dipole moment (field-independent basis, Debye):
    X=             -0.8799    Y=             -2.7424    Z=              1.7578  Tot=              3.3741
 Quadrupole moment (field-independent basis, Debye-Ang):
   XX=            -57.2902   YY=            -34.6978   ZZ=            -32.4688
   XY=              4.5844   XZ=             -6.1353   YZ=              1.5030

 Normal termination of Gaussian 16 at Fri Sep 22 17:10:09 2023.
