 Gaussian 16, Revision A.03,
 Gaussian 16:  ES64L-G16RevA.03 25-Dec-2016

 ------------------------------------------------------
 # b3lyp/6-31+g(d,p) scrf=(iefpcm,solvent=acetonitrile)
 ------------------------------------------------------

 -----------------------
 tmpdir/M3_conf_0_24.gjf
 -----------------------
 Symbolic Z-matrix:
 Charge =  0 Multiplicity = 1

                         Standard orientation:
 ---------------------------------------------------------------------
 Center     Atomic      Atomic             Coordinates (Angstroms)
 Number     Number       Type             X           Y           Z
 ---------------------------------------------------------------------
      1         16           0        2.381142   -0.285055   -0.220107
      2          7           0        1.044618   -0.581132    0.917942
      3          6           0       -0.295425   -0.294862    0.480537
      4          6           0       -0.752496    1.025922    0.552779
      5          6           0       -1.124867   -1.305848   -0.021347
      6          6           0       -2.044890    1.336511    0.118625
      7          1           0       -0.098608    1.794558    0.949706
      8          6           0       -2.417481   -0.990550   -0.443225
      9          1           0       -0.760283   -2.325456   -0.071668
     10          6           0       -2.878145    0.329938   -0.377125
     11          1           0       -2.398720    2.361539    0.174131
     12          1           0       -3.063774   -1.775125   -0.824929
     13          1           0       -3.883574    0.570957   -0.709111
     14          1           0        1.902737   -0.963452   -1.320641
     15          8           0        2.344617    1.179844   -0.588699
     16          1           0        1.214520   -1.079645    1.746758
 ---------------------------------------------------------------------

 SCF Done:  E(RB3LYP) =  -760.978985713     A.U. after   14 cycles

 The electronic state is 1-A.
 Alpha  occ. eigenvalues --  -89.03307 -19.14569 -14.36896 -10.24163 -10.20510
 Alpha  occ. eigenvalues --  -10.20457 -10.20415 -10.20365 -10.20271  -8.07531
 Alpha  occ. eigenvalues --   -6.04018  -6.03859  -6.03251  -1.04023  -0.92447
 Alpha  occ. eigenvalues --   -0.85429  -0.75879  -0.75272  -0.69853  -0.61914
 Alpha  occ. eigenvalues --   -0.61108  -0.54283  -0.51951  -0.49421  -0.46957
 Alpha  occ. eigenvalues --   -0.46222  -0.44373  -0.43187  -0.40497  -0.37801
 Alpha  occ. eigenvalues --   -0.36995  -0.36036  -0.31697  -0.28255  -0.26813
 Alpha  occ. eigenvalues --   -0.26167  -0.25487
 Alpha virt. eigenvalues --   -0.03743  -0.02390  -0.00930  -0.00321   0.00542
 Alpha virt. eigenvalues --    0.01467   0.03001   0.03450   0.04378   0.05391
 Alpha virt. eigenvalues --    0.05996   0.06645   0.07094   0.08016   0.09139

 Mulliken charges:
               1
     1  S    0.898055
     2  N   -0.768694
     3  C   -0.192340
     4  C    0.227364
     5  C   -0.012338
     6  C   -0.255086
     7  H    0.147615
     8  C   -0.226805
     9  H    0.149172
    10  C   -0.101295
    11  H    0.147325
    12  H    0.147384
    13  H    0.145008
    14  H    0.067820
    15  O   -0.742094
    16  H    0.368911
 Sum of Mulliken charges =  -0.00000

 Dipole moment (field-independent basis, Debye):
    X=             -2.0458    Y=             -4.7014    Z=              0.8661  Tot=              5.1999
 Quadrupole moment (field-independent basis, Debye-Ang):
   XX=            -59.8056   YY=            -58.2121   ZZ=            -59.4965
   XY=            -10.5150   XZ=              3.9009   YZ=              2.7999

 Normal termination of Gaussian 16 at Fri Sep 22 17:09:55 2023.
