 Gaussian 16, Revision A.03,
 Gaussian 16:  ES64L-G16RevA.03 25-Dec-2016

 ------------------------------------------------------
 # b3lyp/6-31+g(d,p) scrf=(iefpcm,solvent=acetonitrile)
 ------------------------------------------------------

 -----------------------
 tmpdir/M3_conf_0_35.gjf
 -----------------------
 Symbolic Z-matrix:
 Charge =  0 Multiplicity = 2

                         Standard orientation:
 ---------------------------------------------------------------------
 Center     Atomic      Atomic             Coordinates (Angstroms)
 Number     Number       Type             X           Y           Z
 ---------------------------------------------------------------------
      1          6           0        0.793172    0.002789    0.014671
      2          6           0       -0.703422    0.009926   -0.001712
      3          1           0       -1.075104    1.024892   -0.149244
      4          1           0        1.404630    0.876496   -0.017202
      5          1           0        1.314642   -0.937020   -0.034179
      6          1           0       -1.111061   -0.405447    0.931013
      7          1           0       -1.071607   -0.635215   -0.808140
 ---------------------------------------------------------------------

 SCF Done:  E(UB3LYP) =  -79.1696318558     A.U. after   11 cycles

 The electronic state is 2-A.
 Alpha  occ. eigenvalues --  -10.19377 -10.18527  -0.75837  -0.61310  -0.45385
 Alpha  occ. eigenvalues --   -0.41520  -0.39302  -0.36123  -0.20489
 Alpha virt. eigenvalues --    0.02103   0.03168   0.05442   0.05922   0.08392
 Alpha virt. eigenvalues --    0.09031   0.09842   0.15070   0.17058   0.19228
 Alpha virt. eigenvalues --    0.22676   0.26295   0.29018   0.31064   0.61163

  Beta  occ. eigenvalues --  -10.18604 -10.18040  -0.74162  -0.58955  -0.44756
  Beta  occ. eigenvalues --   -0.40077  -0.38455  -0.35662
  Beta virt. eigenvalues --   -0.05796   0.02260   0.03356   0.05445   0.06377
  Beta virt. eigenvalues --    0.08366   0.09012   0.11264   0.15295   0.17561
  Beta virt. eigenvalues --    0.20142   0.23984   0.27156   0.29435   0.31482

 Mulliken charges and spin densities:
               1          2
     1  C   -0.257510   1.135597
     2  C   -0.521072  -0.130874
     3  H    0.157515   0.002911
     4  H    0.151532  -0.049120
     5  H    0.142700  -0.048799
     6  H    0.164459   0.051584
     7  H    0.162375   0.038701
 Sum of Mulliken charges =   0.00000   1.00000

 Dipole moment (field-independent basis, Debye):
    X=             -0.3643    Y=             -0.0419    Z=             -0.0879  Tot=              0.3771
 Quadrupole moment (field-independent basis, Debye-Ang):
   XX=            -14.5962   YY=            -13.7117   ZZ=            -15.6156
   XY=              0.1413   XZ=             -0.1397   YZ=             -0.0083

 Normal termination of Gaussian 16 at Fri Sep 22 17:09:44 2023.
