 Gaussian 16, Revision A.03,
 Gaussian 16:  ES64L-G16RevA.03 25-Dec-2016

 ------------------------------------------------------
 # b3lyp/6-31+g(d,p) scrf=(iefpcm,solvent=acetonitrile)
 ------------------------------------------------------

 -----------------------
 tmpdir/M3_conf_0_52.gjf
 -----------------------
 Symbolic Z-matrix:
 Charge =  0 Multiplicity = 1

                         Standard orientation:
 ---------------------------------------------------------------------
 Center     Atomic      Atomic             Coordinates (Angstroms)
 Number     Number       Type             X           Y           Z
 ---------------------------------------------------------------------
      1          6           0       -1.607600   -0.153914   -0.124298
      2         16           0        0.217842    0.014277    0.241427
      3          8           0        0.561083    1.362627   -0.262217
      4          1           0       -1.867035   -0.001398   -1.157252
      5          1           0       -2.093205    0.569119    0.531912
      6          1           0       -1.826318   -1.176202    0.202806
      7          8           0        0.897983   -1.198045   -0.275847
      8          1           0        0.274160   -0.013118    1.610002
 ---------------------------------------------------------------------

 SCF Done:  E(RB3LYP) =  -589.096532347     A.U. after   11 cycles

 The electronic state is 1-A.
 Alpha  occ. eigenvalues --  -89.11911 -19.17236 -19.16960 -10.23178  -8.14898
 Alpha  occ. eigenvalues --   -6.11337  -6.11262  -6.11174  -1.11722  -1.01924
 Alpha  occ. eigenvalues --   -0.77748  -0.67199  -0.53522  -0.49431  -0.48184
 Alpha  occ. eigenvalues --   -0.44218  -0.43833  -0.35496  -0.34367  -0.32758
 Alpha  occ. eigenvalues --   -0.30918
 Alpha virt. eigenvalues --   -0.01312   0.00100   0.00923   0.02730   0.05062
 Alpha virt. eigenvalues --    0.06466   0.06666   0.07651   0.09165   0.11441
 Alpha virt. eigenvalues --    0.11970   0.13510   0.14463   0.17136   0.18842

 Mulliken charges:
               1
     1  C   -0.559199
     2  S    1.075117
     3  O   -0.631672
     4  H    0.227845
     5  H    0.214283
     6  H    0.207668
     7  O   -0.631596
     8  H    0.097555
 Sum of Mulliken charges =  -0.00000

 Dipole moment (field-independent basis, Debye):
    X=             -4.5800    Y=             -0.5737    Z=              3.2431  Tot=              5.6412
 Quadrupole moment (field-independent basis, Debye-Ang):
   XX=            -30.0015   YY=            -39.1915   ZZ=            -27.8214
   XY=              0.9684   XZ=              2.2739   YZ=              0.1136

 Normal termination of Gaussian 16 at Fri Sep 22 17:10:56 2023.
