 Gaussian 16, Revision A.03,
 Gaussian 16:  ES64L-G16RevA.03 25-Dec-2016

 ------------------------------------------------------
 # b3lyp/6-31+g(d,p) scrf=(iefpcm,solvent=acetonitrile)
 ------------------------------------------------------

 -----------------------
 tmpdir/M3_conf_0_54.gjf
 -----------------------
 Symbolic Z-matrix:
 Charge =  0 Multiplicity = 1

                         Standard orientation:
 ---------------------------------------------------------------------
 Center     Atomic      Atomic             Coordinates (Angstroms)
 Number     Number       Type             X           Y           Z
 ---------------------------------------------------------------------
      1          6           0       -2.132381   -0.038022    1.577370
      2         16           0       -1.465296    0.010763   -0.168167
      3          6           0        0.331186    0.003100   -0.073329
      4          6           0        1.011879    1.223183   -0.018363
      5          6           0        1.005233   -1.221397   -0.042438
      6          6           0        2.405583    1.210494    0.067310
      7          1           0        0.464875    2.158915   -0.054950
      8          6           0        2.399222   -1.217436    0.044463
      9          1           0        0.453978   -2.153541   -0.098500
     10          6           0        3.096002   -0.005834    0.100585
     11          1           0        2.949474    2.148959    0.104082
     12          1           0        2.938304   -2.159187    0.063729
     13          1           0        4.179586   -0.009561    0.166590
     14          1           0       -3.194980    0.114834    1.648592
     15          1           0       -1.570629    0.727181    2.114116
     16          1           0       -1.842081   -1.037453    1.919078
     17          8           0       -1.849178    1.292708   -0.799654
     18          8           0       -1.855090   -1.253568   -0.838552
 ---------------------------------------------------------------------

 SCF Done:  E(RB3LYP) =  -820.176535936     A.U. after   15 cycles

 The electronic state is 1-A.
 Alpha  occ. eigenvalues --  -89.11316 -19.16066 -19.15962 -10.24282 -10.23385
 Alpha  occ. eigenvalues --  -10.22413 -10.22405 -10.21763 -10.21589 -10.21581
 Alpha  occ. eigenvalues --   -8.14149  -6.10612  -6.10529  -6.10426  -1.11221
 Alpha  occ. eigenvalues --   -1.01012  -0.88507  -0.79711  -0.77305  -0.76248
 Alpha  occ. eigenvalues --   -0.66992  -0.63135  -0.59844  -0.54790  -0.50147
 Alpha  occ. eigenvalues --   -0.49202  -0.48827  -0.46601  -0.46412  -0.44636
 Alpha  occ. eigenvalues --   -0.44183  -0.43609  -0.39421  -0.38502  -0.37000
 Alpha  occ. eigenvalues --   -0.34598  -0.33358  -0.31649  -0.30529  -0.28322
 Alpha  occ. eigenvalues --   -0.27850
 Alpha virt. eigenvalues --   -0.05589  -0.03454  -0.00366   0.01702   0.02386
 Alpha virt. eigenvalues --    0.02763   0.03472   0.04218   0.04296   0.04735
 Alpha virt. eigenvalues --    0.05892   0.06207   0.06609   0.07416   0.07669

 Mulliken charges:
               1
     1  C   -0.499274
     2  S    1.178846
     3  C   -0.648826
     4  C    0.163902
     5  C    0.137153
     6  C   -0.250158
     7  H    0.172885
     8  C   -0.252707
     9  H    0.172466
    10  C   -0.094110
    11  H    0.158779
    12  H    0.158734
    13  H    0.156886
    14  H    0.225696
    15  H    0.211914
    16  H    0.210098
    17  O   -0.594423
    18  O   -0.607862
 Sum of Mulliken charges =  -0.00000

 Dipole moment (field-independent basis, Debye):
    X=              4.6249    Y=             -0.1024    Z=              5.5904  Tot=              7.2563
 Quadrupole moment (field-independent basis, Debye-Ang):
   XX=            -60.6341   YY=            -66.0426   ZZ=            -68.5336
   XY=              0.1719   XZ=            -11.0180   YZ=             -0.0058

 Normal termination of Gaussian 16 at Fri Sep 22 17:11:32 2023.
