 Gaussian 16, Revision A.03,
 Gaussian 16:  ES64L-G16RevA.03 25-Dec-2016

 ------------------------------------------------------
 # b3lyp/6-31+g(d,p) scrf=(iefpcm,solvent=acetonitrile)
 ------------------------------------------------------

 -----------------------
 tmpdir/M3_conf_0_22.gjf
 -----------------------
 Symbolic Z-matrix:
 Charge =  0 Multiplicity = 1

                         Standard orientation:
 ---------------------------------------------------------------------
 Center     Atomic      Atomic             Coordinates (Angstroms)
 Number     Number       Type             X           Y           Z
 ---------------------------------------------------------------------
      1          7           0        2.348749   -0.016497   -0.005533
      2          6           0        0.914283    0.009020   -0.010224
      3          6           0        0.225806   -1.209414   -0.015281
      4          6           0        0.211527    1.220573    0.005072
      5          6           0       -1.172425   -1.215146   -0.002753
      6          1           0        0.786359   -2.137517   -0.033181
      7          6           0       -1.184209    1.207550    0.006941
      8          1           0        0.755562    2.158165    0.007930
      9          6           0       -1.877812   -0.008653    0.006292
     10          1           0       -1.706081   -2.160753   -0.005855
     11          1           0       -1.729632    2.146409    0.010726
     12          1           0       -2.963696   -0.013838    0.010606
     13          1           0        2.864236   -0.151817    0.915252
     14          1           0        2.848993    0.251246   -0.807033
 ---------------------------------------------------------------------

 SCF Done:  E(RB3LYP) =  -287.618538082     A.U. after   13 cycles

 The electronic state is 1-A.
 Alpha  occ. eigenvalues --  -14.32653 -10.23085 -10.19882 -10.19849 -10.19733
 Alpha  occ. eigenvalues --  -10.19500 -10.19399  -0.89624  -0.83843  -0.75190
 Alpha  occ. eigenvalues --   -0.72930  -0.61104  -0.59963  -0.52550  -0.50061
 Alpha  occ. eigenvalues --   -0.47411  -0.45705  -0.43391  -0.42590  -0.36954
 Alpha  occ. eigenvalues --   -0.36091  -0.35327  -0.26176  -0.26056  -0.23317
 Alpha virt. eigenvalues --   -0.01807  -0.01661   0.00504   0.01786   0.02981
 Alpha virt. eigenvalues --    0.04393   0.05324   0.05731   0.06840   0.07913
 Alpha virt. eigenvalues --    0.08403   0.08814   0.10561   0.12172   0.12535

 Mulliken charges:
               1
     1  N   -0.755691
     2  C   -0.265012
     3  C    0.087891
     4  C    0.069365
     5  C   -0.162779
     6  H    0.140074
     7  C   -0.165787
     8  H    0.140389
     9  C   -0.156362
    10  H    0.141344
    11  H    0.141597
    12  H    0.139282
    13  H    0.324136
    14  H    0.321553
 Sum of Mulliken charges =  -0.00000

 Dipole moment (field-independent basis, Debye):
    X=              0.4401    Y=              0.3280    Z=              0.1584  Tot=              0.5713
 Quadrupole moment (field-independent basis, Debye-Ang):
   XX=            -35.5708   YY=            -39.2919   ZZ=            -44.0890
   XY=              0.9126   XZ=              0.4707   YZ=             -0.8588

 Normal termination of Gaussian 16 at Fri Sep 22 17:09:15 2023.
