 Gaussian 16, Revision A.03,
 Gaussian 16:  ES64L-G16RevA.03 25-Dec-2016

 ------------------------------------------------------
 # b3lyp/6-31+g(d,p) scrf=(iefpcm,solvent=acetonitrile)
 ------------------------------------------------------

 -----------------------
 tmpdir/M3_conf_0_16.gjf
 -----------------------
 Symbolic Z-matrix:
 Charge =  0 Multiplicity = 1

                         Standard orientation:
 ---------------------------------------------------------------------
 Center     Atomic      Atomic             Coordinates (Angstroms)
 Number     Number       Type             X           Y           Z
 ---------------------------------------------------------------------
      1          1           0        0.410307   -0.011125    1.009446
      2          6           0       -0.009751   -0.003303   -0.000666
      3          1           0        0.493901   -0.788880   -0.570513
      4          1           0       -1.093398   -0.142371    0.018426
      5          1           0        0.247697    0.962194   -0.453366
 ---------------------------------------------------------------------

 SCF Done:  E(RB3LYP) =  -40.5259073877     A.U. after    7 cycles

 The electronic state is 1-A.
 Alpha  occ. eigenvalues --  -10.17204  -0.69475  -0.39898  -0.38998  -0.38867
 Alpha virt. eigenvalues --    0.01697   0.06177   0.06246   0.06255   0.17949
 Alpha virt. eigenvalues --    0.18033   0.18631   0.27845   0.63824   0.63916
 Alpha virt. eigenvalues --    0.63976   0.90516   0.90690   0.91969   1.05206

 Mulliken charges:
               1
     1  H    0.155318
     2  C   -0.623789
     3  H    0.155848
     4  H    0.157848
     5  H    0.154775
 Sum of Mulliken charges =  -0.00000

 Dipole moment (field-independent basis, Debye):
    X=              0.0402    Y=              0.0106    Z=              0.0045  Tot=              0.0418
 Quadrupole moment (field-independent basis, Debye-Ang):
   XX=             -8.3626   YY=             -8.5666   ZZ=             -8.5936
   XY=             -0.0001   XZ=             -0.0010   YZ=              0.0063

 Normal termination of Gaussian 16 at Fri Sep 22 17:08:11 2023.
