 Gaussian 16, Revision A.03,
 Gaussian 16:  ES64L-G16RevA.03 25-Dec-2016

 ------------------------------------------------------
 # b3lyp/6-31+g(d,p) scrf=(iefpcm,solvent=acetonitrile)
 ------------------------------------------------------

 -----------------------
 tmpdir/M3_conf_0_12.gjf
 -----------------------
 Symbolic Z-matrix:
 Charge =  0 Multiplicity = 1

                         Standard orientation:
 ---------------------------------------------------------------------
 Center     Atomic      Atomic             Coordinates (Angstroms)
 Number     Number       Type             X           Y           Z
 ---------------------------------------------------------------------
      1          6           0        0.913099    0.002984   -0.014629
      2          6           0        2.422398    0.001879    0.009988
      3          1           0        2.831591   -0.828519   -0.572972
      4          6           0        0.191951    1.207616   -0.009507
      5          6           0        0.195744   -1.206114   -0.009498
      6          6           0       -1.204186    1.215469    0.001991
      7          1           0        0.728044    2.152751   -0.011278
      8          6           0       -1.198565   -1.216792    0.002508
      9          1           0        0.734205   -2.149797   -0.008864
     10          6           0       -1.887523    0.000131   -0.006233
     11          1           0       -1.759362    2.147378    0.020030
     12          1           0       -1.735547   -2.161352    0.014683
     13          1           0        2.791768   -0.109178    1.036948
     14          1           0        2.828571    0.936177   -0.387042
     15          1           0       -3.016780   -0.018499    0.060782
 ---------------------------------------------------------------------

 SCF Done:  E(RB3LYP) =  -271.590225611     A.U. after   12 cycles

 The electronic state is 1-A.
 Alpha  occ. eigenvalues --  -10.20631 -10.19878 -10.19737 -10.19721 -10.19464
 Alpha  occ. eigenvalues --  -10.19414 -10.18505  -0.86086  -0.77418  -0.75039
 Alpha  occ. eigenvalues --   -0.68599  -0.60896  -0.58597  -0.51027  -0.46233
 Alpha  occ. eigenvalues --   -0.45732  -0.42525  -0.42133  -0.40572  -0.38598
 Alpha  occ. eigenvalues --   -0.36054  -0.34385  -0.34212  -0.25971  -0.24827
 Alpha virt. eigenvalues --   -0.01765  -0.01455   0.00824   0.02262   0.02877
 Alpha virt. eigenvalues --    0.04480   0.04912   0.05230   0.06149   0.07162
 Alpha virt. eigenvalues --    0.07714   0.08174   0.08676   0.10442   0.11799

 Mulliken charges:
               1
     1  C    0.329558
     2  C   -0.649747
     3  H    0.161905
     4  C   -0.309451
     5  C   -0.206747
     6  C   -0.120390
     7  H    0.134593
     8  C   -0.096562
     9  H    0.134891
    10  C   -0.130737
    11  H    0.142273
    12  H    0.142026
    13  H    0.171945
    14  H    0.158874
    15  H    0.137569
 Sum of Mulliken charges =  -0.00000

 Dipole moment (field-independent basis, Debye):
    X=              0.6001    Y=             -0.0332    Z=              0.1468  Tot=              0.6187
 Quadrupole moment (field-independent basis, Debye-Ang):
   XX=            -38.2864   YY=            -38.4083   ZZ=            -46.7899
   XY=             -0.0263   XZ=             -0.1469   YZ=              0.0058

 Normal termination of Gaussian 16 at Fri Sep 22 17:08:43 2023.
