 Gaussian 16, Revision A.03,
 Gaussian 16:  ES64L-G16RevA.03 25-Dec-2016

 ------------------------------------------------------
 # b3lyp/6-31+g(d,p) scrf=(iefpcm,solvent=acetonitrile)
 ------------------------------------------------------

 ---------------------------
 tmpdir/M3_frag_conf_0_1.gjf
 ---------------------------
 Symbolic Z-matrix:
 Charge =  0 Multiplicity = 1

                         Standard orientation:
 ---------------------------------------------------------------------
 Center     Atomic      Atomic             Coordinates (Angstroms)
 Number     Number       Type             X           Y           Z
 ---------------------------------------------------------------------
      1          6           0        0.070519    1.389774   -0.002527
      2          6           0        1.248972    0.634671    0.001184
      3          6           0       -1.178285    0.758749    0.001152
      4          6           0        1.174711   -0.759878    0.000198
      5          1           0        2.209843    1.139050   -0.000628
      6          6           0       -1.245708   -0.636675   -0.000318
      7          1           0       -2.082310    1.357631    0.000666
      8          6           0       -0.071315   -1.396109   -0.000109
      9          1           0        2.087811   -1.347106   -0.000718
     10          1           0       -2.213754   -1.128055   -0.000151
     11          1           0       -0.126535   -2.480533   -0.000067
     12          1           0        0.131580    2.515819    0.003418
 ---------------------------------------------------------------------

 SCF Done:  E(RB3LYP) =  -232.270048088     A.U. after   10 cycles

 The electronic state is 1-A.
 Alpha  occ. eigenvalues --  -10.20327 -10.20015 -10.19992 -10.19960 -10.19935
 Alpha  occ. eigenvalues --  -10.19919  -0.85943  -0.75239  -0.75010  -0.60788
 Alpha  occ. eigenvalues --   -0.60573  -0.52584  -0.46417  -0.45034  -0.42714
 Alpha  occ. eigenvalues --   -0.42322  -0.37383  -0.34942  -0.34730  -0.26167
 Alpha  occ. eigenvalues --   -0.26070
 Alpha virt. eigenvalues --   -0.01841  -0.01833   0.01091   0.02991   0.03041
 Alpha virt. eigenvalues --    0.05044   0.05069   0.05915   0.07022   0.08328
 Alpha virt. eigenvalues --    0.08869   0.08884   0.10358   0.12377   0.14198

 Mulliken charges:
               1
     1  C   -0.120644
     2  C   -0.158043
     3  C   -0.158239
     4  C   -0.135400
     5  H    0.142543
     6  C   -0.135076
     7  H    0.142567
     8  C   -0.146664
     9  H    0.141877
    10  H    0.141878
    11  H    0.142015
    12  H    0.143186
 Sum of Mulliken charges =  -0.00000

 Dipole moment (field-independent basis, Debye):
    X=             -0.0002    Y=             -0.0226    Z=              0.0025  Tot=              0.0228
 Quadrupole moment (field-independent basis, Debye-Ang):
   XX=            -31.5943   YY=            -31.7130   ZZ=            -40.5460
   XY=             -0.0008   XZ=             -0.0044   YZ=              0.0127

 Normal termination of Gaussian 16 at Fri Sep 22 17:12:47 2023.
