 Gaussian 16, Revision A.03,
 Gaussian 16:  ES64L-G16RevA.03 25-Dec-2016

 ------------------------------------------------------
 # b3lyp/6-31+g(d,p) scrf=(iefpcm,solvent=acetonitrile)
 ------------------------------------------------------

 ---------------------------
 tmpdir/M3_frag_conf_0_2.gjf
 ---------------------------
 Symbolic Z-matrix:
 Charge =  0 Multiplicity = 1

                         Standard orientation:
 ---------------------------------------------------------------------
 Center     Atomic      Atomic             Coordinates (Angstroms)
 Number     Number       Type             X           Y           Z
 ---------------------------------------------------------------------
      1          6           0       -1.386846    0.360684   -0.119200
      2          6           0       -0.360806    1.359382   -0.002403
      3          6           0       -0.976280   -1.009742    0.000066
      4          6           0        0.971153    0.998016    0.013488
      5          1           0       -0.636396    2.408192    0.046517
      6          6           0        0.367370   -1.344530    0.006781
      7          1           0       -1.724225   -1.794512    0.064296
      8          6           0        1.375628   -0.357910   -0.004061
      9          1           0        1.727939    1.776722    0.060493
     10          1           0        0.649123   -2.393009    0.051775
     11          1           0       -2.388526    0.594860    0.425019
     12          1           0        2.430777   -0.627655   -0.016133
 ---------------------------------------------------------------------

 SCF Done:  E(RB3LYP) =  -232.249089751     A.U. after   12 cycles

 The electronic state is 1-A.
 Alpha  occ. eigenvalues --  -10.21007 -10.20728 -10.20441 -10.20421 -10.20082
 Alpha  occ. eigenvalues --  -10.20070  -0.85566  -0.75442  -0.74480  -0.60933
 Alpha  occ. eigenvalues --   -0.60186  -0.52218  -0.46367  -0.44802  -0.42661
 Alpha  occ. eigenvalues --   -0.42029  -0.37373  -0.34588  -0.34268  -0.26411
 Alpha  occ. eigenvalues --   -0.25648
 Alpha virt. eigenvalues --   -0.03941  -0.01584   0.01052   0.02987   0.03090
 Alpha virt. eigenvalues --    0.05033   0.05055   0.05666   0.07114   0.08381
 Alpha virt. eigenvalues --    0.08672   0.08825   0.10341   0.11078   0.13752

 Mulliken charges:
               1
     1  C   -0.200296
     2  C   -0.105677
     3  C   -0.101011
     4  C   -0.163093
     5  H    0.145640
     6  C   -0.165012
     7  H    0.145723
     8  C   -0.125470
     9  H    0.140202
    10  H    0.139950
    11  H    0.139318
    12  H    0.149726
 Sum of Mulliken charges =  -0.00000

 Dipole moment (field-independent basis, Debye):
    X=              0.4682    Y=             -0.1322    Z=              0.6353  Tot=              0.8002
 Quadrupole moment (field-independent basis, Debye-Ang):
   XX=            -32.4967   YY=            -31.7137   ZZ=            -40.4933
   XY=              0.2735   XZ=             -1.3395   YZ=              0.3031

 Normal termination of Gaussian 16 at Fri Sep 22 17:12:50 2023.
