 Gaussian 16, Revision A.03,
 Gaussian 16:  ES64L-G16RevA.03 25-Dec-2016

 ------------------------------------------------------
 # b3lyp/6-31+g(d,p) scrf=(iefpcm,solvent=acetonitrile)
 ------------------------------------------------------

 --------------------
 tmpdir/M3_ref_56.gjf
 --------------------
 Symbolic Z-matrix:
 Charge =  0 Multiplicity = 1

                         Standard orientation:
 ---------------------------------------------------------------------
 Center     Atomic      Atomic             Coordinates (Angstroms)
 Number     Number       Type             X           Y           Z
 ---------------------------------------------------------------------
      1          8           0       -2.187510    1.273546   -0.330975
      2         16           0       -1.676850    0.000530    0.224200
      3          6           0        0.117436   -0.000525    0.094538
      4          6           0        0.794253    1.222235    0.051325
      5          6           0        0.795420   -1.222581    0.054212
      6          6           0        2.187877    1.214805   -0.037110
      7          1           0        0.242785    2.155751    0.073316
      8          6           0        2.189382   -1.213409   -0.033254
      9          1           0        0.245517   -2.156958    0.077148
     10          6           0        2.882328    0.000949   -0.077318
     11          1           0        2.727942    2.155247   -0.078298
     12          1           0        2.730736   -2.153265   -0.071343
     13          1           0        3.965722    0.001299   -0.146740
     14          1           0       -1.909114   -0.023978    1.628535
     15          8           0       -2.184262   -1.272973   -0.342047
 ---------------------------------------------------------------------

 SCF Done:  E(RB3LYP) =  -780.843832337     A.U. after   14 cycles

 The electronic state is 1-A.
 Alpha  occ. eigenvalues --  -89.12273 -19.17304 -19.17120 -10.24643 -10.22683
 Alpha  occ. eigenvalues --  -10.22677 -10.21928 -10.21752 -10.21743  -8.15123
 Alpha  occ. eigenvalues --   -6.11583  -6.11490  -6.11418  -1.12000  -1.01899
 Alpha  occ. eigenvalues --   -0.88742  -0.79419  -0.77494  -0.70614  -0.63338
 Alpha  occ. eigenvalues --   -0.61882  -0.56028  -0.52559  -0.49469  -0.48859
 Alpha  occ. eigenvalues --   -0.46466  -0.46354  -0.44805  -0.39662  -0.38904
 Alpha  occ. eigenvalues --   -0.37193  -0.35689  -0.34480  -0.32766  -0.31709
 Alpha  occ. eigenvalues --   -0.28725  -0.28012
 Alpha virt. eigenvalues --   -0.05932  -0.03646  -0.01038   0.00407   0.01876
 Alpha virt. eigenvalues --    0.01925   0.03280   0.03884   0.04818   0.06315
 Alpha virt. eigenvalues --    0.06479   0.06942   0.07781   0.08415   0.08633

 Mulliken charges:
               1
     1  O   -0.629586
     2  S    1.214136
     3  C   -0.495396
     4  C    0.033325
     5  C    0.000438
     6  C   -0.125288
     7  H    0.173413
     8  C   -0.126644
     9  H    0.173478
    10  C   -0.151803
    11  H    0.159996
    12  H    0.160030
    13  H    0.158404
    14  H    0.093412
    15  O   -0.637915
 Sum of Mulliken charges =  -0.00000

 Dipole moment (field-independent basis, Debye):
    X=              5.9964    Y=              0.0245    Z=              3.4704  Tot=              6.9283
 Quadrupole moment (field-independent basis, Debye-Ang):
   XX=            -61.4952   YY=            -59.5759   ZZ=            -60.1855
   XY=             -0.0535   XZ=             -7.9611   YZ=             -0.1002

 Normal termination of Gaussian 16 at Fri Sep 22 17:07:44 2023.
