 Gaussian 16, Revision A.03,
 Gaussian 16:  ES64L-G16RevA.03 25-Dec-2016

 ------------------------------------------------------
 # b3lyp/6-31+g(d,p) scrf=(iefpcm,solvent=acetonitrile)
 ------------------------------------------------------

 --------------------
 tmpdir/M3_ref_12.gjf
 --------------------
 Symbolic Z-matrix:
 Charge =  0 Multiplicity = 1

                         Standard orientation:
 ---------------------------------------------------------------------
 Center     Atomic      Atomic             Coordinates (Angstroms)
 Number     Number       Type             X           Y           Z
 ---------------------------------------------------------------------
      1          6           0        0.913145    0.003026   -0.014635
      2          6           0        2.422414    0.001903    0.009958
      3          1           0        2.829266   -0.829277   -0.573577
      4          6           0        0.191973    1.207681   -0.009430
      5          6           0        0.195835   -1.206071   -0.009439
      6          6           0       -1.204175    1.215485    0.001989
      7          1           0        0.728037    2.152828   -0.011183
      8          6           0       -1.198505   -1.216778    0.002627
      9          1           0        0.734338   -2.149767   -0.008824
     10          6           0       -1.887430    0.000074   -0.006337
     11          1           0       -1.759461    2.147356    0.020035
     12          1           0       -1.735392   -2.161385    0.014822
     13          1           0        2.791791   -0.109109    1.036958
     14          1           0        2.828597    0.936118   -0.387150
     15          1           0       -3.016709   -0.018683    0.060524
 ---------------------------------------------------------------------

 SCF Done:  E(RB3LYP) =  -271.590222346     A.U. after   12 cycles

 The electronic state is 1-A.
 Alpha  occ. eigenvalues --  -10.20629 -10.19877 -10.19737 -10.19721 -10.19463
 Alpha  occ. eigenvalues --  -10.19414 -10.18505  -0.86086  -0.77420  -0.75038
 Alpha  occ. eigenvalues --   -0.68597  -0.60896  -0.58594  -0.51024  -0.46235
 Alpha  occ. eigenvalues --   -0.45731  -0.42525  -0.42138  -0.40565  -0.38604
 Alpha  occ. eigenvalues --   -0.36054  -0.34386  -0.34208  -0.25970  -0.24826
 Alpha virt. eigenvalues --   -0.01765  -0.01454   0.00824   0.02263   0.02876
 Alpha virt. eigenvalues --    0.04481   0.04912   0.05229   0.06149   0.07162
 Alpha virt. eigenvalues --    0.07714   0.08175   0.08676   0.10441   0.11799

 Mulliken charges:
               1
     1  C    0.329915
     2  C   -0.649582
     3  H    0.161835
     4  C   -0.309547
     5  C   -0.206923
     6  C   -0.120312
     7  H    0.134584
     8  C   -0.096750
     9  H    0.134876
    10  C   -0.130788
    11  H    0.142270
    12  H    0.142024
    13  H    0.171957
    14  H    0.158886
    15  H    0.137554
 Sum of Mulliken charges =  -0.00000

 Dipole moment (field-independent basis, Debye):
    X=              0.6000    Y=             -0.0330    Z=              0.1467  Tot=              0.6185
 Quadrupole moment (field-independent basis, Debye-Ang):
   XX=            -38.2944   YY=            -38.4072   ZZ=            -46.7886
   XY=             -0.0229   XZ=             -0.1451   YZ=              0.0071

 Normal termination of Gaussian 16 at Fri Sep 22 17:04:07 2023.
