 Gaussian 16, Revision A.03,
 Gaussian 16:  ES64L-G16RevA.03 25-Dec-2016

 ------------------------------------------------------
 # b3lyp/6-31+g(d,p) scrf=(iefpcm,solvent=acetonitrile)
 ------------------------------------------------------

 -------------------
 tmpdir/M3_ref_6.gjf
 -------------------
 Symbolic Z-matrix:
 Charge =  0 Multiplicity = 1

                         Standard orientation:
 ---------------------------------------------------------------------
 Center     Atomic      Atomic             Coordinates (Angstroms)
 Number     Number       Type             X           Y           Z
 ---------------------------------------------------------------------
      1          6           0        0.132336   -0.181946    0.050966
      2         16           0        1.916425   -0.482347   -0.004137
      3          6           0       -0.358792    1.122572    0.084969
      4          6           0       -0.731617   -1.277663   -0.040788
      5          6           0       -1.739571    1.327421    0.054842
      6          1           0        0.331113    1.958602    0.131184
      7          6           0       -2.107838   -1.054845   -0.069265
      8          1           0       -0.343431   -2.291553   -0.085675
      9          6           0       -2.634060    0.248012   -0.023092
     10          1           0       -2.126477    2.342204    0.089357
     11          1           0       -2.782262   -1.904246   -0.134222
     12          8           0        2.558450    0.871578   -0.198214
     13          1           0        2.140689   -0.876168    1.378557
     14          1           0       -3.712786    0.414778   -0.073086
 ---------------------------------------------------------------------

 SCF Done:  E(RB3LYP) =  -705.629151454     A.U. after   14 cycles

 The electronic state is 1-A.
 Alpha  occ. eigenvalues --  -89.01336 -19.13922 -10.23668 -10.21786 -10.21473
 Alpha  occ. eigenvalues --  -10.21297 -10.21175 -10.21149  -8.05968  -6.02412
 Alpha  occ. eigenvalues --   -6.02262  -6.01695  -1.03283  -0.87809  -0.78744
 Alpha  occ. eigenvalues --   -0.76625  -0.70584  -0.62446  -0.60535  -0.53663
 Alpha  occ. eigenvalues --   -0.48805  -0.47276  -0.46213  -0.44659  -0.43831
 Alpha  occ. eigenvalues --   -0.40528  -0.38264  -0.37598  -0.36091  -0.29879
 Alpha  occ. eigenvalues --   -0.28350  -0.27294  -0.24931
 Alpha virt. eigenvalues --   -0.04803  -0.02911  -0.01110  -0.00547   0.01018
 Alpha virt. eigenvalues --    0.02629   0.03418   0.03837   0.04670   0.05982
 Alpha virt. eigenvalues --    0.06736   0.06970   0.08039   0.08553   0.08809

 Mulliken charges:
               1
     1  C   -0.406103
     2  S    0.705812
     3  C    0.291361
     4  C   -0.329247
     5  C   -0.116613
     6  H    0.170886
     7  C   -0.078830
     8  H    0.158175
     9  C   -0.159296
    10  H    0.151304
    11  H    0.152171
    12  O   -0.757491
    13  H    0.062874
    14  H    0.154997
 Sum of Mulliken charges =  -0.00000

 Dipole moment (field-independent basis, Debye):
    X=             -4.1482    Y=             -3.2942    Z=              1.5099  Tot=              5.5081
 Quadrupole moment (field-independent basis, Debye-Ang):
   XX=            -57.8923   YY=            -49.9334   ZZ=            -56.4818
   XY=             -8.2754   XZ=              4.2467   YZ=             -0.2439

 Normal termination of Gaussian 16 at Fri Sep 22 17:04:16 2023.
