 Gaussian 16, Revision A.03,
 Gaussian 16:  ES64L-G16RevA.03 25-Dec-2016

 ------------------------------------------------------
 # b3lyp/6-31+g(d,p) scrf=(iefpcm,solvent=acetonitrile)
 ------------------------------------------------------

 --------------------
 tmpdir/M3_ref_54.gjf
 --------------------
 Symbolic Z-matrix:
 Charge =  0 Multiplicity = 1

                         Standard orientation:
 ---------------------------------------------------------------------
 Center     Atomic      Atomic             Coordinates (Angstroms)
 Number     Number       Type             X           Y           Z
 ---------------------------------------------------------------------
      1          6           0       -1.998542   -0.040463    1.618394
      2         16           0       -1.472081    0.010944   -0.174519
      3          6           0        0.324675    0.003566   -0.085690
      4          6           0        1.005335    1.223791   -0.032358
      5          6           0        0.998942   -1.220888   -0.057677
      6          6           0        2.399369    1.211314    0.048741
      7          1           0        0.458023    2.159382   -0.066575
      8          6           0        2.393243   -1.216775    0.024618
      9          1           0        0.447566   -2.153073   -0.112406
     10          6           0        3.089992   -0.005013    0.078963
     11          1           0        2.943210    2.149810    0.084233
     12          1           0        2.932449   -2.158483    0.041556
     13          1           0        4.173804   -0.008580    0.141412
     14          1           0       -3.052546    0.109819    1.773686
     15          1           0       -1.397922    0.725814    2.109518
     16          1           0       -1.679697   -1.039402    1.935300
     17          8           0       -1.907888    1.292265   -0.772724
     18          8           0       -1.910821   -1.253962   -0.812823
 ---------------------------------------------------------------------

 SCF Done:  E(RB3LYP) =  -820.177407038     A.U. after   14 cycles

 The electronic state is 1-A.
 Alpha  occ. eigenvalues --  -89.11397 -19.16323 -19.16206 -10.24351 -10.23141
 Alpha  occ. eigenvalues --  -10.22487 -10.22476 -10.21794 -10.21643 -10.21633
 Alpha  occ. eigenvalues --   -8.14226  -6.10694  -6.10598  -6.10506  -1.11340
 Alpha  occ. eigenvalues --   -1.01174  -0.88604  -0.79951  -0.77368  -0.76041
 Alpha  occ. eigenvalues --   -0.67019  -0.63215  -0.59871  -0.54765  -0.50125
 Alpha  occ. eigenvalues --   -0.49305  -0.48936  -0.46588  -0.46462  -0.44691
 Alpha  occ. eigenvalues --   -0.44141  -0.43601  -0.39437  -0.38601  -0.37064
 Alpha  occ. eigenvalues --   -0.34793  -0.33526  -0.31806  -0.30511  -0.28454
 Alpha  occ. eigenvalues --   -0.27911
 Alpha virt. eigenvalues --   -0.05534  -0.03511  -0.00374   0.01731   0.02550
 Alpha virt. eigenvalues --    0.02753   0.03574   0.04159   0.04296   0.04663
 Alpha virt. eigenvalues --    0.05880   0.06160   0.06761   0.07532   0.07850

 Mulliken charges:
               1
     1  C   -0.515776
     2  S    1.206389
     3  C   -0.707128
     4  C    0.187914
     5  C    0.179533
     6  C   -0.275514
     7  H    0.172931
     8  C   -0.278807
     9  H    0.172666
    10  C   -0.076473
    11  H    0.159321
    12  H    0.159310
    13  H    0.157150
    14  H    0.222599
    15  H    0.211595
    16  H    0.209578
    17  O   -0.586832
    18  O   -0.598455
 Sum of Mulliken charges =  -0.00000

 Dipole moment (field-independent basis, Debye):
    X=              5.0714    Y=             -0.0942    Z=              5.3333  Tot=              7.3602
 Quadrupole moment (field-independent basis, Debye-Ang):
   XX=            -62.3151   YY=            -65.9278   ZZ=            -68.2104
   XY=              0.1757   XZ=            -10.5927   YZ=             -0.0099

 Normal termination of Gaussian 16 at Fri Sep 22 17:06:50 2023.
