 Gaussian 16, Revision A.03,
 Gaussian 16:  ES64L-G16RevA.03 25-Dec-2016

 ------------------------------------------------------
 # b3lyp/6-31+g(d,p) scrf=(iefpcm,solvent=acetonitrile)
 ------------------------------------------------------

 --------------------
 tmpdir/M3_ref_26.gjf
 --------------------
 Symbolic Z-matrix:
 Charge =  0 Multiplicity = 1

                         Standard orientation:
 ---------------------------------------------------------------------
 Center     Atomic      Atomic             Coordinates (Angstroms)
 Number     Number       Type             X           Y           Z
 ---------------------------------------------------------------------
      1          6           0        0.162525   -0.264020    0.378233
      2          7           0        1.527673   -0.570707    0.711759
      3          6           0        2.570552   -0.129892   -0.116018
      4          6           0       -0.664591   -1.301770   -0.066147
      5          6           0       -0.339555    1.037229    0.506697
      6          6           0       -2.000803   -1.036185   -0.381303
      7          1           0       -0.257186   -2.301874   -0.165309
      8          6           0       -1.671512    1.297203    0.180353
      9          1           0        0.310736    1.833240    0.850985
     10          6           0       -2.504373    0.261954   -0.260595
     11          1           0       -2.642297   -1.841848   -0.725185
     12          1           0       -2.059284    2.307277    0.272052
     13          1           0       -3.540725    0.468514   -0.510699
     14          1           0        1.751854   -0.972425    1.671026
     15          1           0        3.536892   -0.573125   -0.026820
     16          8           0        2.361607    0.736008   -0.974461
 ---------------------------------------------------------------------

 SCF Done:  E(RB3LYP) =  -400.968261322     A.U. after   14 cycles

 The electronic state is 1-A.
 Alpha  occ. eigenvalues --  -19.14734 -14.38326 -10.30741 -10.24315 -10.20524
 Alpha  occ. eigenvalues --  -10.20459 -10.20444 -10.20400 -10.20353  -1.05036
 Alpha  occ. eigenvalues --   -0.93169  -0.85636  -0.75906  -0.75194  -0.64624
 Alpha  occ. eigenvalues --   -0.61962  -0.58998  -0.55229  -0.52648  -0.48770
 Alpha  occ. eigenvalues --   -0.46983  -0.44744  -0.43698  -0.43244  -0.40186
 Alpha  occ. eigenvalues --   -0.37680  -0.36892  -0.35961  -0.28510  -0.27905
 Alpha  occ. eigenvalues --   -0.26501  -0.25961
 Alpha virt. eigenvalues --   -0.02902  -0.02303  -0.01469   0.00786   0.01815
 Alpha virt. eigenvalues --    0.02820   0.03406   0.04181   0.04889   0.05116
 Alpha virt. eigenvalues --    0.06278   0.07196   0.07915   0.09174   0.09611

 Mulliken charges:
               1
     1  C   -0.218159
     2  N   -0.459111
     3  C    0.356388
     4  C    0.055538
     5  C    0.089177
     6  C   -0.170009
     7  H    0.147749
     8  C   -0.233992
     9  H    0.144967
    10  C   -0.111260
    11  H    0.147755
    12  H    0.147466
    13  H    0.144774
    14  H    0.345860
    15  H    0.151727
    16  O   -0.538870
 Sum of Mulliken charges =  -0.00000

 Dipole moment (field-independent basis, Debye):
    X=             -0.7924    Y=             -2.7177    Z=              3.6539  Tot=              4.6222
 Quadrupole moment (field-independent basis, Debye-Ang):
   XX=            -46.4897   YY=            -49.0549   ZZ=            -55.4017
   XY=             -7.1540   XZ=             10.1632   YZ=              2.3134

 Normal termination of Gaussian 16 at Fri Sep 22 17:06:30 2023.
