 Gaussian 16, Revision A.03,
 Gaussian 16:  ES64L-G16RevA.03 25-Dec-2016

 ------------------------------------------------------
 # b3lyp/6-31+g(d,p) scrf=(iefpcm,solvent=acetonitrile)
 ------------------------------------------------------

 --------------------
 tmpdir/M3_ref_46.gjf
 --------------------
 Symbolic Z-matrix:
 Charge =  0 Multiplicity = 1

                         Standard orientation:
 ---------------------------------------------------------------------
 Center     Atomic      Atomic             Coordinates (Angstroms)
 Number     Number       Type             X           Y           Z
 ---------------------------------------------------------------------
      1          1           0       -0.023136    0.977192    0.483869
      2          6           0       -0.025515    0.000239   -0.000573
      3          1           0        0.195130   -0.788958    0.726376
      4          1           0       -0.944468   -0.188309   -0.527451
      5          1           0        0.925563   -0.001359   -0.679360
 ---------------------------------------------------------------------

 SCF Done:  E(RB3LYP) =  -40.5215704088     A.U. after    8 cycles

 The electronic state is 1-A.
 Alpha  occ. eigenvalues --  -10.17778  -0.69176  -0.40554  -0.39569  -0.37072
 Alpha virt. eigenvalues --    0.01597   0.06088   0.06181   0.06377   0.15634
 Alpha virt. eigenvalues --    0.18464   0.19125   0.27245   0.63398   0.63742
 Alpha virt. eigenvalues --    0.65001   0.87579   0.91466   0.92784   1.04246

 Mulliken charges:
               1
     1  H    0.158718
     2  C   -0.621046
     3  H    0.157224
     4  H    0.163161
     5  H    0.141942
 Sum of Mulliken charges =  -0.00000

 Dipole moment (field-independent basis, Debye):
    X=              0.0137    Y=             -0.0013    Z=              0.0597  Tot=              0.0613
 Quadrupole moment (field-independent basis, Debye-Ang):
   XX=             -8.3452   YY=             -8.5199   ZZ=             -8.8039
   XY=              0.0133   XZ=              0.1750   YZ=              0.0186

 Normal termination of Gaussian 16 at Fri Sep 22 17:05:41 2023.
