 Gaussian 16, Revision A.03,
 Gaussian 16:  ES64L-G16RevA.03 25-Dec-2016

 ------------------------------------------------------
 # b3lyp/6-31+g(d,p) scrf=(iefpcm,solvent=acetonitrile)
 ------------------------------------------------------

 -------------------
 tmpdir/M3_ref_3.gjf
 -------------------
 Symbolic Z-matrix:
 Charge =  0 Multiplicity = 2

                         Standard orientation:
 ---------------------------------------------------------------------
 Center     Atomic      Atomic             Coordinates (Angstroms)
 Number     Number       Type             X           Y           Z
 ---------------------------------------------------------------------
      1          6           0       -0.794245    0.378374   -0.161121
      2          6           0        0.446748   -0.415905   -0.195738
      3          6           0        1.807749    0.116708    0.126708
      4          1           0       -0.761195    1.450711   -0.414733
      5          8           0       -1.857214   -0.146008    0.193119
      6          1           0        0.325293   -1.468450   -0.382884
      7          1           0        2.468425    0.070977   -0.750796
      8          1           0        1.783286    1.145474    0.488724
      9          1           0        2.280393   -0.505709    0.895647
 ---------------------------------------------------------------------

 SCF Done:  E(UB3LYP) =  -192.513687182     A.U. after   14 cycles

 The electronic state is 2-A.
 Alpha  occ. eigenvalues --  -19.16767 -10.28410 -10.23446 -10.20058  -1.05431
 Alpha  occ. eigenvalues --   -0.79602  -0.67522  -0.58180  -0.47712  -0.46975
 Alpha  occ. eigenvalues --   -0.44011  -0.41862  -0.40095  -0.38488  -0.27814
 Alpha  occ. eigenvalues --   -0.23785
 Alpha virt. eigenvalues --   -0.02422   0.01721   0.03003   0.03301   0.05155
 Alpha virt. eigenvalues --    0.06689   0.07527   0.08547   0.09521   0.10166
 Alpha virt. eigenvalues --    0.11783   0.13895   0.15468   0.18186   0.21109

  Beta  occ. eigenvalues --  -19.16114 -10.28507 -10.22339 -10.20111  -1.04218
  Beta  occ. eigenvalues --   -0.77785  -0.66475  -0.57316  -0.47106  -0.46199
  Beta  occ. eigenvalues --   -0.42245  -0.41070  -0.38871  -0.37221  -0.26964
  Beta virt. eigenvalues --   -0.11749   0.00180   0.01848   0.03233   0.03411
  Beta virt. eigenvalues --    0.05264   0.06764   0.07551   0.08522   0.09786
  Beta virt. eigenvalues --    0.10864   0.11892   0.14021   0.15738   0.18757

 Mulliken charges and spin densities:
               1          2
     1  C    0.095955  -0.049567
     2  C    0.136889   0.866476
     3  C   -0.620142  -0.087101
     4  H    0.139173  -0.000269
     5  O   -0.467003   0.226647
     6  H    0.173122  -0.037979
     7  H    0.184870   0.051493
     8  H    0.172653   0.002185
     9  H    0.184482   0.028114
 Sum of Mulliken charges =  -0.00000   1.00000

 Dipole moment (field-independent basis, Debye):
    X=              4.5298    Y=              0.8561    Z=             -0.8049  Tot=              4.6797
 Quadrupole moment (field-independent basis, Debye-Ang):
   XX=            -30.3337   YY=            -22.9802   ZZ=            -24.8371
   XY=             -1.8399   XZ=              1.5307   YZ=              0.1687

 Normal termination of Gaussian 16 at Fri Sep 22 17:03:48 2023.
