 Gaussian 16, Revision A.03,
 Gaussian 16:  ES64L-G16RevA.03 25-Dec-2016

 ------------------------------------------------------
 # b3lyp/6-31+g(d,p) scrf=(iefpcm,solvent=acetonitrile)
 ------------------------------------------------------

 --------------------
 tmpdir/M3_ref_24.gjf
 --------------------
 Symbolic Z-matrix:
 Charge =  0 Multiplicity = 1

                         Standard orientation:
 ---------------------------------------------------------------------
 Center     Atomic      Atomic             Coordinates (Angstroms)
 Number     Number       Type             X           Y           Z
 ---------------------------------------------------------------------
      1         16           0        2.394456   -0.289032   -0.211073
      2          7           0        1.039388   -0.571973    0.908247
      3          6           0       -0.302758   -0.289749    0.474754
      4          6           0       -0.762020    1.030418    0.543720
      5          6           0       -1.132239   -1.304004   -0.020307
      6          6           0       -2.056620    1.337023    0.113226
      7          1           0       -0.108071    1.801738    0.935431
      8          6           0       -2.426971   -0.992577   -0.438494
      9          1           0       -0.765986   -2.323129   -0.068153
     10          6           0       -2.889930    0.327101   -0.375620
     11          1           0       -2.412116    2.361565    0.166137
     12          1           0       -3.073342   -1.779684   -0.814912
     13          1           0       -3.897071    0.565041   -0.704701
     14          1           0        1.929135   -0.971092   -1.314923
     15          8           0        2.371192    1.173918   -0.588178
     16          1           0        1.194122   -1.066739    1.742321
 ---------------------------------------------------------------------

 SCF Done:  E(RB3LYP) =  -760.979242400     A.U. after   14 cycles

 The electronic state is 1-A.
 Alpha  occ. eigenvalues --  -89.03352 -19.14585 -14.36865 -10.24152 -10.20510
 Alpha  occ. eigenvalues --  -10.20458 -10.20417 -10.20368 -10.20274  -8.07569
 Alpha  occ. eigenvalues --   -6.04058  -6.03896  -6.03289  -1.04031  -0.92432
 Alpha  occ. eigenvalues --   -0.85429  -0.75879  -0.75295  -0.69871  -0.61911
 Alpha  occ. eigenvalues --   -0.61057  -0.54225  -0.51976  -0.49420  -0.46966
 Alpha  occ. eigenvalues --   -0.46228  -0.44379  -0.43187  -0.40495  -0.37827
 Alpha  occ. eigenvalues --   -0.36985  -0.36036  -0.31722  -0.28246  -0.26798
 Alpha  occ. eigenvalues --   -0.26161  -0.25526
 Alpha virt. eigenvalues --   -0.03773  -0.02396  -0.00943  -0.00314   0.00541
 Alpha virt. eigenvalues --    0.01457   0.02983   0.03442   0.04374   0.05395
 Alpha virt. eigenvalues --    0.05999   0.06624   0.07091   0.08014   0.09120

 Mulliken charges:
               1
     1  S    0.901322
     2  N   -0.766495
     3  C   -0.212624
     4  C    0.230007
     5  C   -0.008795
     6  C   -0.247208
     7  H    0.147640
     8  C   -0.225334
     9  H    0.149082
    10  C   -0.101737
    11  H    0.147320
    12  H    0.147391
    13  H    0.145048
    14  H    0.067632
    15  O   -0.741452
    16  H    0.368203
 Sum of Mulliken charges =  -0.00000

 Dipole moment (field-independent basis, Debye):
    X=             -2.0864    Y=             -4.6947    Z=              0.8749  Tot=              5.2114
 Quadrupole moment (field-independent basis, Debye-Ang):
   XX=            -59.8753   YY=            -58.1855   ZZ=            -59.5580
   XY=            -10.5788   XZ=              3.8589   YZ=              2.8045

 Normal termination of Gaussian 16 at Fri Sep 22 17:05:17 2023.
