 Gaussian 16, Revision A.03,
 Gaussian 16:  ES64L-G16RevA.03 25-Dec-2016

 ------------------------------------------------------
 # b3lyp/6-31+g(d,p) scrf=(iefpcm,solvent=acetonitrile)
 ------------------------------------------------------

 --------------------
 tmpdir/M3_ref_25.gjf
 --------------------
 Symbolic Z-matrix:
 Charge =  0 Multiplicity = 1

                         Standard orientation:
 ---------------------------------------------------------------------
 Center     Atomic      Atomic             Coordinates (Angstroms)
 Number     Number       Type             X           Y           Z
 ---------------------------------------------------------------------
      1         16           0       -1.117750   -0.442146    0.068321
      2          7           0        0.447155    0.386080    0.253403
      3          6           0        1.588312   -0.141428   -0.368390
      4          1           0       -1.367703   -0.761762    1.385736
      5          8           0       -2.141548    0.604403   -0.305239
      6          1           0        0.537355    1.123527    0.933371
      7          1           0        1.483636   -0.714161   -1.262395
      8          8           0        2.712892    0.092189    0.091073
 ---------------------------------------------------------------------

 SCF Done:  E(RB3LYP) =  -643.259234770     A.U. after   12 cycles

 The electronic state is 1-A.
 Alpha  occ. eigenvalues --  -89.05092 -19.16890 -19.15863 -14.40652 -10.32957
 Alpha  occ. eigenvalues --   -8.09378  -6.05918  -6.05672  -6.05056  -1.06952
 Alpha  occ. eigenvalues --   -1.05173  -0.93221  -0.73169  -0.65572  -0.55099
 Alpha  occ. eigenvalues --   -0.53139  -0.48034  -0.45808  -0.42592  -0.41587
 Alpha  occ. eigenvalues --   -0.33322  -0.31259  -0.29504  -0.27424
 Alpha virt. eigenvalues --   -0.04845  -0.02366  -0.01360   0.00468   0.02575
 Alpha virt. eigenvalues --    0.03093   0.05461   0.05901   0.07887   0.08783
 Alpha virt. eigenvalues --    0.10489   0.12011   0.12847   0.16158   0.16988

 Mulliken charges:
               1
     1  S    0.854227
     2  N   -0.578143
     3  C    0.291915
     4  H    0.095103
     5  O   -0.704934
     6  H    0.369540
     7  H    0.175828
     8  O   -0.503536
 Sum of Mulliken charges =  -0.00000

 Dipole moment (field-independent basis, Debye):
    X=             -0.8797    Y=             -2.7906    Z=              1.7053  Tot=              3.3866
 Quadrupole moment (field-independent basis, Debye-Ang):
   XX=            -57.2157   YY=            -34.7780   ZZ=            -32.4496
   XY=              4.6370   XZ=             -6.1260   YZ=              1.4556

 Normal termination of Gaussian 16 at Fri Sep 22 17:05:31 2023.
