 Gaussian 16, Revision A.03,
 Gaussian 16:  ES64L-G16RevA.03 25-Dec-2016

 ------------------------------------------------------
 # b3lyp/6-31+g(d,p) scrf=(iefpcm,solvent=acetonitrile)
 ------------------------------------------------------

 --------------------
 tmpdir/M3_ref_20.gjf
 --------------------
 Symbolic Z-matrix:
 Charge =  0 Multiplicity = 1

                         Standard orientation:
 ---------------------------------------------------------------------
 Center     Atomic      Atomic             Coordinates (Angstroms)
 Number     Number       Type             X           Y           Z
 ---------------------------------------------------------------------
      1          6           0       -0.115272   -0.051985   -0.149256
      2         16           0        1.668830   -0.132575   -0.443767
      3          7           0        2.186646   -0.913719    1.069780
      4          6           0       -0.712982    1.154879    0.211789
      5          6           0       -0.882917   -1.196259   -0.387551
      6          6           0       -2.100067    1.205130    0.363083
      7          1           0       -0.099769    2.036237    0.367445
      8          6           0       -2.266899   -1.128352   -0.231255
      9          1           0       -0.414190   -2.129778   -0.686740
     10          6           0       -2.897693    0.070482    0.144736
     11          1           0       -2.568857    2.141766    0.652258
     12          1           0       -2.865869   -2.017175   -0.409520
     13          8           0        2.159644    1.295937   -0.405964
     14          1           0        1.879990   -0.533863    1.950685
     15          1           0        2.623856   -1.792477    1.037458
     16          1           0       -3.985130    0.121656    0.238663
 ---------------------------------------------------------------------

 SCF Done:  E(RB3LYP) =  -760.996083686     A.U. after   14 cycles

 The electronic state is 1-A.
 Alpha  occ. eigenvalues --  -89.03682 -19.14432 -14.35561 -10.23274 -10.21724
 Alpha  occ. eigenvalues --  -10.21400 -10.21306 -10.21143 -10.21091  -8.07664
 Alpha  occ. eigenvalues --   -6.04182  -6.03997  -6.03406  -1.04081  -0.88849
 Alpha  occ. eigenvalues --   -0.87280  -0.77980  -0.76576  -0.69080  -0.62390
 Alpha  occ. eigenvalues --   -0.60305  -0.53926  -0.52930  -0.49245  -0.47248
 Alpha  occ. eigenvalues --   -0.46353  -0.44877  -0.43817  -0.40299  -0.38498
 Alpha  occ. eigenvalues --   -0.37711  -0.36051  -0.31286  -0.29711  -0.27267
 Alpha  occ. eigenvalues --   -0.26339  -0.25855
 Alpha virt. eigenvalues --   -0.05013  -0.02850   0.00256   0.00354   0.01013
 Alpha virt. eigenvalues --    0.02408   0.03495   0.03991   0.04659   0.05533
 Alpha virt. eigenvalues --    0.05862   0.07115   0.07385   0.07964   0.08219

 Mulliken charges:
               1
     1  C   -0.480749
     2  S    0.882693
     3  N   -0.836966
     4  C    0.501379
     5  C   -0.576092
     6  C   -0.022201
     7  H    0.169798
     8  C   -0.072595
     9  H    0.157054
    10  C   -0.144363
    11  H    0.150889
    12  H    0.152006
    13  O   -0.729376
    14  H    0.345162
    15  H    0.348451
    16  H    0.154908
 Sum of Mulliken charges =  -0.00000

 Dipole moment (field-independent basis, Debye):
    X=             -3.8297    Y=             -4.1651    Z=              1.6434  Tot=              5.8920
 Quadrupole moment (field-independent basis, Debye-Ang):
   XX=            -60.9376   YY=            -57.0863   ZZ=            -60.0364
   XY=            -10.5578   XZ=              2.9072   YZ=              2.3193

 Normal termination of Gaussian 16 at Fri Sep 22 17:05:37 2023.
