 Gaussian 16, Revision A.03,
 Gaussian 16:  ES64L-G16RevA.03 25-Dec-2016

 ------------------------------------------------------
 # b3lyp/6-31+g(d,p) scrf=(iefpcm,solvent=acetonitrile)
 ------------------------------------------------------

 --------------------
 tmpdir/M3_ref_47.gjf
 --------------------
 Symbolic Z-matrix:
 Charge =  0 Multiplicity = 1

                         Standard orientation:
 ---------------------------------------------------------------------
 Center     Atomic      Atomic             Coordinates (Angstroms)
 Number     Number       Type             X           Y           Z
 ---------------------------------------------------------------------
      1          1           0        2.032120   -0.837100    0.505782
      2          6           0        1.637643   -0.045876   -0.132559
      3         16           0       -0.194869   -0.000512    0.233748
      4          1           0        1.876972   -0.204900   -1.169410
      5          1           0        1.978295    0.934765    0.217110
      6          8           0       -0.820145   -1.248072   -0.258376
      7          8           0       -0.723284    1.296626   -0.254230
      8          1           0       -0.247914    0.002255    1.602764
 ---------------------------------------------------------------------

 SCF Done:  E(RB3LYP) =  -589.098765410     A.U. after   11 cycles

 The electronic state is 1-A.
 Alpha  occ. eigenvalues --  -89.11891 -19.16966 -19.16859 -10.23617  -8.14883
 Alpha  occ. eigenvalues --   -6.11323  -6.11244  -6.11159  -1.11696  -1.01600
 Alpha  occ. eigenvalues --   -0.78198  -0.67080  -0.53594  -0.49448  -0.48187
 Alpha  occ. eigenvalues --   -0.44481  -0.43955  -0.35440  -0.34171  -0.32370
 Alpha  occ. eigenvalues --   -0.31292
 Alpha virt. eigenvalues --   -0.01384   0.00709   0.01141   0.02533   0.04704
 Alpha virt. eigenvalues --    0.06429   0.06996   0.07645   0.08943   0.11357
 Alpha virt. eigenvalues --    0.11566   0.13328   0.14308   0.17488   0.18720

 Mulliken charges:
               1
     1  H    0.216878
     2  C   -0.550768
     3  S    1.068859
     4  H    0.229902
     5  H    0.214637
     6  O   -0.631924
     7  O   -0.642308
     8  H    0.094724
 Sum of Mulliken charges =  -0.00000

 Dipole moment (field-independent basis, Debye):
    X=              5.1176    Y=             -0.1985    Z=              3.1126  Tot=              5.9931
 Quadrupole moment (field-independent basis, Debye-Ang):
   XX=            -29.8708   YY=            -39.1580   ZZ=            -27.8704
   XY=             -0.3574   XZ=             -2.2202   YZ=              0.0648

 Normal termination of Gaussian 16 at Fri Sep 22 17:05:53 2023.
