 Gaussian 16, Revision A.03,
 Gaussian 16:  ES64L-G16RevA.03 25-Dec-2016

 ------------------------------------------------------
 # b3lyp/6-31+g(d,p) scrf=(iefpcm,solvent=acetonitrile)
 ------------------------------------------------------

 --------------------
 tmpdir/M3_ref_22.gjf
 --------------------
 Symbolic Z-matrix:
 Charge =  0 Multiplicity = 1

                         Standard orientation:
 ---------------------------------------------------------------------
 Center     Atomic      Atomic             Coordinates (Angstroms)
 Number     Number       Type             X           Y           Z
 ---------------------------------------------------------------------
      1          7           0        2.351815   -0.016486   -0.005556
      2          6           0        0.913673    0.009045   -0.010226
      3          6           0        0.225169   -1.209337   -0.015255
      4          6           0        0.210832    1.220497    0.005109
      5          6           0       -1.173091   -1.215080   -0.002732
      6          1           0        0.785755   -2.137476   -0.033237
      7          6           0       -1.184883    1.207390    0.006953
      8          1           0        0.754847    2.158092    0.007938
      9          6           0       -1.878550   -0.008612    0.006249
     10          1           0       -1.706743   -2.160631   -0.005757
     11          1           0       -1.730454    2.146199    0.010750
     12          1           0       -2.964459   -0.013811    0.010495
     13          1           0        2.867363   -0.151721    0.915177
     14          1           0        2.852083    0.251335   -0.807066
 ---------------------------------------------------------------------

 SCF Done:  E(RB3LYP) =  -287.618494903     A.U. after   13 cycles

 The electronic state is 1-A.
 Alpha  occ. eigenvalues --  -14.32670 -10.23120 -10.19890 -10.19858 -10.19742
 Alpha  occ. eigenvalues --  -10.19516 -10.19417  -0.89551  -0.83838  -0.75199
 Alpha  occ. eigenvalues --   -0.72952  -0.61108  -0.59964  -0.52543  -0.50027
 Alpha  occ. eigenvalues --   -0.47388  -0.45704  -0.43387  -0.42598  -0.36969
 Alpha  occ. eigenvalues --   -0.36094  -0.35327  -0.26186  -0.26064  -0.23329
 Alpha virt. eigenvalues --   -0.01813  -0.01667   0.00503   0.01781   0.02982
 Alpha virt. eigenvalues --    0.04390   0.05325   0.05730   0.06837   0.07909
 Alpha virt. eigenvalues --    0.08408   0.08813   0.10567   0.12173   0.12529

 Mulliken charges:
               1
     1  N   -0.756026
     2  C   -0.262879
     3  C    0.086067
     4  C    0.067729
     5  C   -0.162390
     6  H    0.140226
     7  C   -0.165282
     8  H    0.140535
     9  C   -0.156038
    10  H    0.141446
    11  H    0.141697
    12  H    0.139391
    13  H    0.324037
    14  H    0.321488
 Sum of Mulliken charges =  -0.00000

 Dipole moment (field-independent basis, Debye):
    X=              0.4234    Y=              0.3284    Z=              0.1582  Tot=              0.5587
 Quadrupole moment (field-independent basis, Debye-Ang):
   XX=            -35.5794   YY=            -39.2870   ZZ=            -44.0925
   XY=              0.9151   XZ=              0.4711   YZ=             -0.8600

 Normal termination of Gaussian 16 at Fri Sep 22 17:04:37 2023.
