 Gaussian 16, Revision A.03,
 Gaussian 16:  ES64L-G16RevA.03 25-Dec-2016

 ------------------------------------------------------
 # b3lyp/6-31+g(d,p) scrf=(iefpcm,solvent=acetonitrile)
 ------------------------------------------------------

 --------------------
 tmpdir/M3_ref_27.gjf
 --------------------
 Symbolic Z-matrix:
 Charge =  0 Multiplicity = 1

                         Standard orientation:
 ---------------------------------------------------------------------
 Center     Atomic      Atomic             Coordinates (Angstroms)
 Number     Number       Type             X           Y           Z
 ---------------------------------------------------------------------
      1          6           0        0.550302   -0.006348   -0.005399
      2          8           0       -0.686718    0.003796    0.001239
      3          1           0        1.078174   -0.933329    0.011417
      4          1           0        1.113757    0.941052    0.011065
 ---------------------------------------------------------------------

 SCF Done:  E(RB3LYP) =  -114.515698971     A.U. after    9 cycles

 The electronic state is 1-A.
 Alpha  occ. eigenvalues --  -19.18559 -10.29613  -1.05991  -0.64796  -0.50602
 Alpha  occ. eigenvalues --   -0.46003  -0.40336  -0.28339
 Alpha virt. eigenvalues --   -0.06653   0.02072   0.04122   0.05222   0.07293
 Alpha virt. eigenvalues --    0.16512   0.18680   0.20601   0.21372   0.25898
 Alpha virt. eigenvalues --    0.26146   0.35404   0.63102   0.66071   0.72898

 Mulliken charges:
               1
     1  C    0.112351
     2  O   -0.405462
     3  H    0.148649
     4  H    0.144463
 Sum of Mulliken charges =  -0.00000

 Dipole moment (field-independent basis, Debye):
    X=              3.2533    Y=             -0.0512    Z=              0.0045  Tot=              3.2538
 Quadrupole moment (field-independent basis, Debye-Ang):
   XX=            -12.3227   YY=            -11.4937   ZZ=            -11.7942
   XY=             -0.0141   XZ=              0.0126   YZ=              0.0003

 Normal termination of Gaussian 16 at Fri Sep 22 17:04:30 2023.
