 Gaussian 16, Revision A.03,
 Gaussian 16:  ES64L-G16RevA.03 25-Dec-2016

 ------------------------------------------------------
 # b3lyp/6-31+g(d,p) scrf=(iefpcm,solvent=acetonitrile)
 ------------------------------------------------------

 --------------------
 tmpdir/M3_ref_32.gjf
 --------------------
 Symbolic Z-matrix:
 Charge =  0 Multiplicity = 1

                         Standard orientation:
 ---------------------------------------------------------------------
 Center     Atomic      Atomic             Coordinates (Angstroms)
 Number     Number       Type             X           Y           Z
 ---------------------------------------------------------------------
      1          6           0       -0.009195    0.007934   -0.003952
      2          1           0        0.584092    0.918511   -0.098165
      3          1           0       -1.068976    0.181722   -0.146889
      4          1           0        0.370651   -0.732198   -0.722645
      5          1           0        0.169402   -0.415641    0.991411
 ---------------------------------------------------------------------

 SCF Done:  E(RB3LYP) =  -40.5257647900     A.U. after    7 cycles

 The electronic state is 1-A.
 Alpha  occ. eigenvalues --  -10.17130  -0.69529  -0.40046  -0.39182  -0.38622
 Alpha virt. eigenvalues --    0.01707   0.06167   0.06236   0.06278   0.17757
 Alpha virt. eigenvalues --    0.18157   0.18881   0.27903   0.63666   0.63910
 Alpha virt. eigenvalues --    0.64070   0.90155   0.90924   0.92320   1.05348

 Mulliken charges:
               1
     1  C   -0.624006
     2  H    0.156706
     3  H    0.159000
     4  H    0.154119
     5  H    0.154182
 Sum of Mulliken charges =   0.00000

 Dipole moment (field-independent basis, Debye):
    X=              0.0273    Y=             -0.0249    Z=              0.0181  Tot=              0.0412
 Quadrupole moment (field-independent basis, Debye-Ang):
   XX=             -8.3592   YY=             -8.5195   ZZ=             -8.6295
   XY=              0.0046   XZ=              0.0093   YZ=             -0.0069

 Normal termination of Gaussian 16 at Fri Sep 22 17:04:54 2023.
