 Gaussian 16, Revision A.03,
 Gaussian 16:  ES64L-G16RevA.03 25-Dec-2016

 ------------------------------
 # b3lyp/6-31g(d) nosymm em=gd3
 ------------------------------

 -------------------
 tmpdir/Subs_0_0.gjf
 -------------------
 Symbolic Z-matrix:
 Charge =  0 Multiplicity = 1

                          Input orientation:
 ---------------------------------------------------------------------
 Center     Atomic      Atomic             Coordinates (Angstroms)
 Number     Number       Type             X           Y           Z
 ---------------------------------------------------------------------
      1          7           0       -0.257727   -0.801049   -0.676947
      2          7           0       -0.317094   -2.120182   -0.417583
      3          7           0        0.754488   -2.432603    0.257598
      4          6           0       -1.377644   -0.165498   -1.372512
      5          1           0       -1.061621    0.847511   -1.631702
      6          1           0       -1.537470   -0.716934   -2.303111
      7          6           0       -2.651853   -0.135942   -0.550793
      8          6           0       -2.678223    0.483020    0.705822
      9          6           0       -3.819746   -0.714363   -1.054375
     10          6           0       -3.861294    0.519854    1.442015
     11          1           0       -1.767989    0.925011    1.098701
     12          6           0       -5.006464   -0.671098   -0.319192
     13          1           0       -3.801067   -1.208941   -2.022781
     14          6           0       -5.029264   -0.053735    0.931290
     15          1           0       -3.872460    0.997511    2.418360
     16          1           0       -5.907358   -1.127296   -0.720755
     17          1           0       -5.949818   -0.023428    1.508189
 ---------------------------------------------------------------------

 SCF Done:  E(RB3LYP) =  -435.029576098     A.U. after   25 cycles

 Alpha  occ. eigenvalues --  -14.48850 -14.44972 -14.37512 -10.22450 -10.20232
 Alpha  occ. eigenvalues --  -10.19506 -10.19481 -10.19449 -10.19415 -10.19308
 Alpha  occ. eigenvalues --   -1.07616  -0.88633  -0.85265  -0.76678  -0.74830
 Alpha  occ. eigenvalues --   -0.69677  -0.61182  -0.59986  -0.55594  -0.51800
 Alpha  occ. eigenvalues --   -0.48915  -0.47333  -0.46761  -0.44622  -0.43880
 Alpha  occ. eigenvalues --   -0.42415  -0.41222  -0.40363  -0.36362  -0.35356
 Alpha  occ. eigenvalues --   -0.34654  -0.26931  -0.25498  -0.25159  -0.23361
 Alpha virt. eigenvalues --   -0.16853  -0.05746  -0.00816  -0.00320   0.09133
 Alpha virt. eigenvalues --    0.11827   0.12922   0.14947   0.15785   0.16161
 Alpha virt. eigenvalues --    0.18038   0.18843   0.22806   0.24578   0.26496

 Mulliken charges:
               1
     1  N   -0.265697
     2  N    0.038965
     3  N    0.029870
     4  C   -0.234309
     5  H    0.181878
     6  H    0.154637
     7  C    0.158848
     8  C   -0.165157
     9  C   -0.182823
    10  C   -0.130663
    11  H    0.141473
    12  C   -0.127187
    13  H    0.127661
    14  C   -0.126688
    15  H    0.133844
    16  H    0.132438
    17  H    0.132910
 Sum of Mulliken charges =  -0.00000

 Dipole moment (field-independent basis, Debye):
    X=             -1.8872    Y=              0.4796    Z=             -0.6497  Tot=              2.0528
 Quadrupole moment (field-independent basis, Debye-Ang):
   XX=            -51.2048   YY=            -58.2371   ZZ=            -53.4214
   XY=              2.9199   XZ=              0.0566   YZ=              3.0689

 Normal termination of Gaussian 16 at Thu Mar  7 20:09:31 2024.
