 Gaussian 16, Revision A.03,
 Gaussian 16:  ES64L-G16RevA.03 25-Dec-2016

 ------------------------------
 # b3lyp/6-31g(d) nosymm em=gd3
 ------------------------------

 -------------------
 tmpdir/Subs_0_0.gjf
 -------------------
 Symbolic Z-matrix:
 Charge =  0 Multiplicity = 1

                          Input orientation:
 ---------------------------------------------------------------------
 Center     Atomic      Atomic             Coordinates (Angstroms)
 Number     Number       Type             X           Y           Z
 ---------------------------------------------------------------------
      1          6           0        2.815363   -1.449917    1.203873
      2          6           0        1.193882    1.210024   -0.323396
      3          6           0        0.878727   -0.245571   -0.153391
      4          6           0        1.519588   -1.314724    0.454338
      5          1           0        3.737327   -1.428085    0.569113
      6          1           0        2.759673   -2.423746    1.701153
      7          1           0        2.891963   -0.699661    2.000401
      8          1           0        2.226086    1.481588   -0.022833
      9          1           0        1.072605    1.468603   -1.391131
     10          1           0        0.391242    1.812233    0.295391
 ---------------------------------------------------------------------

 SCF Done:  E(RB3LYP) =  -155.874516659     A.U. after   13 cycles

 Alpha  occ. eigenvalues --  -10.22114 -10.21251 -10.20554 -10.20467  -0.77083
 Alpha  occ. eigenvalues --   -0.73020  -0.62514  -0.47498  -0.43610  -0.42602
 Alpha  occ. eigenvalues --   -0.41185  -0.40402  -0.39503  -0.22228  -0.22146
 Alpha virt. eigenvalues --   -0.08041   0.02597   0.09395   0.12433   0.15405
 Alpha virt. eigenvalues --    0.16018   0.16846   0.18022   0.23869   0.26882
 Alpha virt. eigenvalues --    0.42653   0.47209   0.53074   0.54677   0.58137

 Mulliken charges:
               1
     1  C   -0.475999
     2  C   -0.471992
     3  C   -0.031228
     4  C   -0.054217
     5  H    0.174382
     6  H    0.169689
     7  H    0.179891
     8  H    0.176426
     9  H    0.174344
    10  H    0.158704
 Sum of Mulliken charges =  -0.00000

 Dipole moment (field-independent basis, Debye):
    X=              1.3981    Y=              1.1480    Z=              0.5076  Tot=              1.8789
 Quadrupole moment (field-independent basis, Debye-Ang):
   XX=            -20.2627   YY=            -24.6962   ZZ=            -24.6997
   XY=             -0.2785   XZ=              2.0318   YZ=             -1.3764

 Normal termination of Gaussian 16 at Thu Mar  7 20:06:19 2024.
