 Gaussian 16, Revision A.03,
 Gaussian 16:  ES64L-G16RevA.03 25-Dec-2016

 ----------------------------
 #P MP2 IOp(3/125=0333312000)
 ----------------------------

 -----
 title
 -----
 Symbolic Z-matrix:
 Charge =  0 Multiplicity = 1

                         Standard orientation:
 ---------------------------------------------------------------------
 Center     Atomic      Atomic             Coordinates (Angstroms)
 Number     Number       Type             X           Y           Z
 ---------------------------------------------------------------------
      1          6           0       -2.247220   -0.182674    0.929575
      2          6           0       -2.843937    0.540508    0.118292
      3          7           0       -0.851203   -1.310451   -0.401869
      4          7           0       -1.127736   -0.660492   -1.453222
      5          7           0       -1.928692    0.122006   -1.796685
      6          6           0        0.528893   -1.721043   -0.159810
      7          1           0        0.483295   -2.267461    0.790180
      8          1           0        0.846511   -2.452315   -0.915660
      9          6           0        1.546852   -0.595107   -0.058162
     10          6           0        1.166546    0.708916    0.279984
     11          6           0        2.902299   -0.873830   -0.271455
     12          6           0        2.128980    1.712774    0.406030
     13          1           0        0.116773    0.940771    0.432649
     14          6           0        3.864117    0.128034   -0.141666
     15          1           0        3.207061   -1.882310   -0.544713
     16          6           0        3.479083    1.426857    0.198350
     17          1           0        1.819801    2.722307    0.664273
     18          1           0        4.912049   -0.103474   -0.313827
     19          1           0        4.225837    2.210457    0.294573
     20          6           0       -3.823244    1.543991   -0.338519
     21          1           0       -4.513165    1.110514   -1.070949
     22          1           0       -4.409748    1.935094    0.501371
     23          1           0       -3.319527    2.382132   -0.832244
     24          6           0       -1.839444   -0.809725    2.195784
     25          1           0       -0.783721   -0.609882    2.416109
     26          1           0       -2.437593   -0.418766    3.028417
     27          1           0       -1.971706   -1.896720    2.161840
 ---------------------------------------------------------------------

 SCF Done:  E(RHF) =  -579.982450413     A.U. after   21 cycles
 E2 =    -0.9054136337D+00 EUMP2 =    -0.58088786404647D+03

 The electronic state is 1-A.
 Alpha  occ. eigenvalues --  -15.55910 -15.44022 -15.35953 -11.10379 -11.06531
 Alpha  occ. eigenvalues --  -11.05963 -11.04391 -11.03424 -11.03341 -11.03226
 Alpha  occ. eigenvalues --  -11.03218 -11.02963 -10.99513 -10.97559  -1.40554
 Alpha  occ. eigenvalues --   -1.17229  -1.09637  -1.00142  -0.99056  -0.95860
 Alpha  occ. eigenvalues --   -0.94544  -0.89904  -0.85006  -0.77730  -0.75988
 Alpha  occ. eigenvalues --   -0.68415  -0.65861  -0.62957  -0.61177  -0.60801
 Alpha  occ. eigenvalues --   -0.58703  -0.58045  -0.54985  -0.54898  -0.54158
 Alpha  occ. eigenvalues --   -0.53503  -0.53315  -0.53111  -0.52469  -0.52036
 Alpha  occ. eigenvalues --   -0.51193  -0.45102  -0.44395  -0.43457  -0.33356
 Alpha  occ. eigenvalues --   -0.29576  -0.28426  -0.28208  -0.27115  -0.26581
 Alpha virt. eigenvalues --    0.20966   0.25888   0.26302   0.27407   0.37209
 Alpha virt. eigenvalues --    0.38075   0.48867   0.57183   0.58189   0.62002
 Alpha virt. eigenvalues --    0.63291   0.64739   0.67564   0.69163   0.70306

 Mulliken charges:
               1
     1  C   -0.011932
     2  C   -0.068349
     3  N   -0.191614
     4  N    0.034183
     5  N   -0.015589
     6  C   -0.026312
     7  H    0.085028
     8  H    0.076919
     9  C    0.001618
    10  C   -0.071478
    11  C   -0.066514
    12  C   -0.059595
    13  H    0.072954
    14  C   -0.060316
    15  H    0.059035
    16  C   -0.063223
    17  H    0.064141
    18  H    0.063567
    19  H    0.063548
    20  C   -0.170791
    21  H    0.078591
    22  H    0.071353
    23  H    0.078473
    24  C   -0.174362
    25  H    0.074146
    26  H    0.076458
    27  H    0.080059
 Sum of Mulliken charges =   0.00000

 Dipole moment (field-independent basis, Debye):
    X=              1.2949    Y=             -0.2862    Z=              0.9074  Tot=              1.6069
 Quadrupole moment (field-independent basis, Debye-Ang):
   XX=            -75.2718   YY=            -73.8111   ZZ=            -77.9624
   XY=             -2.1945   XZ=             -2.6637   YZ=              0.6985

 Normal termination of Gaussian 16 at Fri Aug 30 10:33:40 2024.
