 Gaussian 16, Revision A.03,
 Gaussian 16:  ES64L-G16RevA.03 25-Dec-2016

 ----------------------------
 #p MP2 IOp(3/125=0333312000)
 ----------------------------

 -------------------
 tmpdir/Subs_0_0.gjf
 -------------------
 Symbolic Z-matrix:
 Charge =  0 Multiplicity = 1

                         Standard orientation:
 ---------------------------------------------------------------------
 Center     Atomic      Atomic             Coordinates (Angstroms)
 Number     Number       Type             X           Y           Z
 ---------------------------------------------------------------------
      1          6           0        3.801952    0.407883    1.351129
      2          6           0        1.129452    2.045973    0.159460
      3          6           0        1.632328    0.660136   -0.071213
      4          6           0        2.728072   -0.035605    0.408187
      5          7           0        1.006681   -0.239406   -0.882112
      6          7           0        1.663185   -1.424861   -0.893637
      7          7           0        2.704473   -1.297129   -0.118268
      8          6           0       -0.259524   -0.101011   -1.586532
      9          1           0       -0.239533    0.822882   -2.174512
     10          1           0       -0.296243   -0.942731   -2.284379
     11          6           0       -1.449678   -0.113638   -0.645423
     12          6           0       -2.440578    0.868099   -0.731230
     13          6           0       -1.564397   -1.122957    0.319236
     14          6           0       -3.541195    0.840139    0.129102
     15          1           0       -2.352681    1.658975   -1.473245
     16          6           0       -2.659906   -1.149094    1.180345
     17          1           0       -0.786764   -1.879010    0.391929
     18          6           0       -3.652024   -0.168304    1.086588
     19          1           0       -4.305428    1.609034    0.053910
     20          1           0       -2.740533   -1.935361    1.926056
     21          1           0       -4.504974   -0.189795    1.759460
     22          1           0        3.944794    1.493162    1.314715
     23          1           0        4.750176   -0.072815    1.092785
     24          1           0        3.566886    0.137527    2.388460
     25          1           0        1.814171    2.590127    0.815178
     26          1           0        1.044407    2.608964   -0.778933
     27          1           0        0.138339    2.039101    0.628810
 ---------------------------------------------------------------------

 SCF Done:  E(RHF) =  -580.228265779     A.U. after   15 cycles
 E2 =    -0.8205026283D+00 EUMP2 =    -0.58104876840762D+03

 The electronic state is 1-A.
 Alpha  occ. eigenvalues --  -15.45450 -15.39027 -15.34358 -11.12959 -11.08145
 Alpha  occ. eigenvalues --  -11.07632 -11.05469 -11.04744 -11.04371 -11.04247
 Alpha  occ. eigenvalues --  -11.04184 -11.04125 -11.04047 -11.03998  -1.37024
 Alpha  occ. eigenvalues --   -1.16036  -1.10409  -1.04828  -1.00084  -0.96750
 Alpha  occ. eigenvalues --   -0.94796  -0.90804  -0.89099  -0.78591  -0.77125
 Alpha  occ. eigenvalues --   -0.74327  -0.71062  -0.66753  -0.63438  -0.61519
 Alpha  occ. eigenvalues --   -0.58878  -0.58769  -0.56349  -0.55112  -0.54754
 Alpha  occ. eigenvalues --   -0.54224  -0.53841  -0.52551  -0.50443  -0.49752
 Alpha  occ. eigenvalues --   -0.48959  -0.45949  -0.44712  -0.44217  -0.40431
 Alpha  occ. eigenvalues --   -0.33567  -0.32351  -0.29256  -0.28686  -0.26893
 Alpha virt. eigenvalues --    0.24511   0.25589   0.27217   0.35724   0.47380
 Alpha virt. eigenvalues --    0.55331   0.56092   0.57576   0.60892   0.62184
 Alpha virt. eigenvalues --    0.62813   0.64955   0.65607   0.67515   0.68679

 Mulliken charges:
               1
     1  C   -0.178103
     2  C   -0.185287
     3  C    0.087250
     4  C    0.038547
     5  N   -0.170269
     6  N   -0.070744
     7  N   -0.180436
     8  C   -0.002592
     9  H    0.081883
    10  H    0.105248
    11  C    0.002378
    12  C   -0.064506
    13  C   -0.062116
    14  C   -0.061046
    15  H    0.060417
    16  C   -0.059174
    17  H    0.076692
    18  C   -0.059449
    19  H    0.065645
    20  H    0.067919
    21  H    0.066454
    22  H    0.061883
    23  H    0.077856
    24  H    0.067491
    25  H    0.081333
    26  H    0.073544
    27  H    0.079183
 Sum of Mulliken charges =  -0.00000

 Dipole moment (field-independent basis, Debye):
    X=             -2.7309    Y=              3.6578    Z=              0.1861  Tot=              4.5686
 Quadrupole moment (field-independent basis, Debye-Ang):
   XX=            -80.9098   YY=            -80.2927   ZZ=            -74.9003
   XY=              7.6151   XZ=              1.3804   YZ=             -3.1381

 Normal termination of Gaussian 16 at Fri Aug 30 10:39:36 2024.
