 Gaussian 16, Revision A.03,
 Gaussian 16:  ES64L-G16RevA.03 25-Dec-2016

 ----------------------------------------------
 #p MP2 IOp(3/125=0333312000) geom=connectivity
 ----------------------------------------------

 -----
 title
 -----
 Symbolic Z-matrix:
 Charge =  0 Multiplicity = 1

                         Standard orientation:
 ---------------------------------------------------------------------
 Center     Atomic      Atomic             Coordinates (Angstroms)
 Number     Number       Type             X           Y           Z
 ---------------------------------------------------------------------
      1          6           0       -0.604438   -0.000003   -0.000063
      2          6           0        0.604450   -0.000118    0.000323
      3          6           0        2.065989    0.000029   -0.000091
      4          1           0        2.465688   -0.821265   -0.608047
      5          1           0        2.465447    0.937219   -0.407612
      6          1           0        2.466138   -0.115630    1.015006
      7          6           0       -2.065992    0.000011   -0.000041
      8          1           0       -2.465725    0.906474   -0.471792
      9          1           0       -2.465814   -0.861724   -0.549131
     10          1           0       -2.465792   -0.044585    1.020804
 ---------------------------------------------------------------------

 SCF Done:  E(RHF) =  -153.035718903     A.U. after    9 cycles
 E2 =    -0.2615073785D+00 EUMP2 =    -0.15329722628125D+03

 The electronic state is 1-A.
 Alpha  occ. eigenvalues --  -11.06830 -11.06829 -10.97842 -10.97567  -1.00032
 Alpha  occ. eigenvalues --   -0.95212  -0.85411  -0.60119  -0.55428  -0.55427
 Alpha  occ. eigenvalues --   -0.53810  -0.53809  -0.53184  -0.30096  -0.30096
 Alpha virt. eigenvalues --    0.39238   0.39239   0.58741   0.69477   0.69480
 Alpha virt. eigenvalues --    0.72511   0.72746   0.74628   0.74631   0.77397
 Alpha virt. eigenvalues --    1.48881

 Mulliken charges:
               1
     1  C   -0.056668
     2  C   -0.056665
     3  C   -0.181844
     4  H    0.079508
     5  H    0.079503
     6  H    0.079499
     7  C   -0.181825
     8  H    0.079493
     9  H    0.079500
    10  H    0.079500
 Sum of Mulliken charges =  -0.00000

 Dipole moment (field-independent basis, Debye):
    X=             -0.0000    Y=              0.0001    Z=             -0.0002  Tot=              0.0003
 Quadrupole moment (field-independent basis, Debye-Ang):
   XX=            -19.2353   YY=            -23.6805   ZZ=            -23.6807
   XY=              0.0000   XZ=             -0.0002   YZ=              0.0000

 Normal termination of Gaussian 16 at Fri Aug 30 10:33:29 2024.
