 Gaussian 16, Revision A.03,
 Gaussian 16:  ES64L-G16RevA.03 25-Dec-2016

 ----------------------------
 #p MP2 IOp(3/125=0333312000)
 ----------------------------

 -----
 title
 -----
 Symbolic Z-matrix:
 Charge =  0 Multiplicity = 1

                         Standard orientation:
 ---------------------------------------------------------------------
 Center     Atomic      Atomic             Coordinates (Angstroms)
 Number     Number       Type             X           Y           Z
 ---------------------------------------------------------------------
      1          6           0      -28.000063    0.604438    0.000003
      2          6           0      -27.999677   -0.604450    0.000119
      3          6           0      -28.000091   -2.065989   -0.000029
      4          1           0      -28.610431   -2.465688    0.819494
      5          1           0      -28.404886   -2.465447   -0.938400
      6          1           0      -26.985334   -2.466138    0.118579
      7          6           0      -28.000041    2.065992   -0.000011
      8          1           0      -28.469156    2.465725   -0.907841
      9          1           0      -28.551633    2.465814    0.860125
     10          1           0      -26.979330    2.465792    0.047552
     11          7           0       11.893155    2.234002   -0.787780
     12          7           0       11.531963    2.387654    0.383710
     13          7           0       11.121062    2.611074    1.426139
     14          6           0       12.931108    1.177048   -0.989589
     15          1           0       13.092051    1.165338   -2.069343
     16          1           0       13.868691    1.493087   -0.513219
     17          6           0       12.503640   -0.180468   -0.482897
     18          6           0       11.649691   -0.985628   -1.247907
     19          6           0       12.904200   -0.623713    0.782693
     20          6           0       11.211283   -2.215181   -0.759438
     21          1           0       11.326347   -0.641184   -2.227372
     22          6           0       12.465594   -1.854600    1.274933
     23          1           0       13.565543   -0.004236    1.384459
     24          6           0       11.619059   -2.652188    0.504141
     25          1           0       10.552759   -2.833711   -1.363254
     26          1           0       12.785807   -2.188841    2.257968
     27          1           0       11.278096   -3.611182    0.884653
 ---------------------------------------------------------------------

 SCF Done:  E(RHF) =  -580.027017690     A.U. after   19 cycles
 E2 =    -0.8936433851D+00 EUMP2 =    -0.58092066107479D+03

 The electronic state is 1-A.
 Alpha  occ. eigenvalues --  -15.63056 -15.45778 -15.36114 -11.10671 -11.06823
 Alpha  occ. eigenvalues --  -11.06821 -11.04888 -11.03982 -11.03960 -11.03934
 Alpha  occ. eigenvalues --  -11.03914 -11.03886 -10.97835 -10.97560  -1.44145
 Alpha  occ. eigenvalues --   -1.22279  -1.10495  -1.00221  -1.00025  -0.96506
 Alpha  occ. eigenvalues --   -0.95205  -0.90531  -0.85404  -0.78291  -0.76457
 Alpha  occ. eigenvalues --   -0.67866  -0.66426  -0.65592  -0.64083  -0.60112
 Alpha  occ. eigenvalues --   -0.59611  -0.59377  -0.56387  -0.55420  -0.55419
 Alpha  occ. eigenvalues --   -0.54307  -0.53803  -0.53802  -0.53252  -0.53177
 Alpha  occ. eigenvalues --   -0.51626  -0.46461  -0.44748  -0.43932  -0.35057
 Alpha  occ. eigenvalues --   -0.30089  -0.30089  -0.29076  -0.28822  -0.27563
 Alpha virt. eigenvalues --    0.23275   0.25823   0.26270   0.27363   0.39245
 Alpha virt. eigenvalues --    0.39246   0.47923   0.56198   0.57688   0.58748
 Alpha virt. eigenvalues --    0.61070   0.63585   0.66422   0.68979   0.69484

 Mulliken charges:
               1
     1  C   -0.056663
     2  C   -0.056669
     3  C   -0.181843
     4  H    0.079503
     5  H    0.079499
     6  H    0.079500
     7  C   -0.181826
     8  H    0.079493
     9  H    0.079500
    10  H    0.079507
    11  N   -0.204521
    12  N    0.083742
    13  N   -0.028833
    14  C   -0.026669
    15  H    0.087670
    16  H    0.071087
    17  C   -0.003108
    18  C   -0.059478
    19  C   -0.065404
    20  C   -0.060277
    21  H    0.066910
    22  C   -0.060234
    23  H    0.060206
    24  C   -0.059105
    25  H    0.066127
    26  H    0.066006
    27  H    0.065880
 Sum of Mulliken charges =  -0.00000

 Dipole moment (field-independent basis, Debye):
    X=              1.0935    Y=             -1.5508    Z=             -0.0522  Tot=              1.8982
 Quadrupole moment (field-independent basis, Debye-Ang):
   XX=            -50.8555   YY=            -75.8213   ZZ=            -78.8158
   XY=            -14.9161   XZ=              1.0954   YZ=             -0.3158

 Normal termination of Gaussian 16 at Fri Aug 30 10:33:38 2024.
