 Gaussian 16, Revision A.03,
 Gaussian 16:  ES64L-G16RevA.03 25-Dec-2016

 ----------------------------
 #p MP2 IOp(3/125=0333312000)
 ----------------------------

 -----
 title
 -----
 Symbolic Z-matrix:
 Charge =  0 Multiplicity = 1

                         Standard orientation:
 ---------------------------------------------------------------------
 Center     Atomic      Atomic             Coordinates (Angstroms)
 Number     Number       Type             X           Y           Z
 ---------------------------------------------------------------------
      1          7           0        2.234002   -0.787780   -0.106845
      2          7           0        2.387654    0.383710   -0.468037
      3          7           0        2.611074    1.426139   -0.878938
      4          6           0        1.177048   -0.989589    0.931108
      5          1           0        1.165338   -2.069343    1.092051
      6          1           0        1.493087   -0.513219    1.868691
      7          6           0       -0.180468   -0.482897    0.503640
      8          6           0       -0.985628   -1.247907   -0.350309
      9          6           0       -0.623713    0.782693    0.904200
     10          6           0       -2.215181   -0.759438   -0.788717
     11          1           0       -0.641184   -2.227372   -0.673653
     12          6           0       -1.854600    1.274933    0.465594
     13          1           0       -0.004236    1.384459    1.565543
     14          6           0       -2.652188    0.504141   -0.380941
     15          1           0       -2.833711   -1.363254   -1.447241
     16          1           0       -2.188841    2.257968    0.785807
     17          1           0       -3.611182    0.884653   -0.721904
 ---------------------------------------------------------------------

 SCF Done:  E(RHF) =  -426.991298842     A.U. after   19 cycles
 E2 =    -0.6321360164D+00 EUMP2 =    -0.42762343485814D+03

 The electronic state is 1-A.
 Alpha  occ. eigenvalues --  -15.63056 -15.45779 -15.36115 -11.10672 -11.04888
 Alpha  occ. eigenvalues --  -11.03982 -11.03960 -11.03935 -11.03914 -11.03887
 Alpha  occ. eigenvalues --   -1.44146  -1.22279  -1.10495  -1.00222  -0.96506
 Alpha  occ. eigenvalues --   -0.90531  -0.78291  -0.76457  -0.67866  -0.66427
 Alpha  occ. eigenvalues --   -0.65592  -0.64084  -0.59611  -0.59377  -0.56387
 Alpha  occ. eigenvalues --   -0.54307  -0.53253  -0.51627  -0.46461  -0.44748
 Alpha  occ. eigenvalues --   -0.43933  -0.35058  -0.29076  -0.28822  -0.27563
 Alpha virt. eigenvalues --    0.23275   0.25822   0.26269   0.27363   0.47923
 Alpha virt. eigenvalues --    0.56198   0.57688   0.61070   0.63585   0.66422
 Alpha virt. eigenvalues --    0.68979   0.69800   0.71959   0.73144   0.75424

 Mulliken charges:
               1
     1  N   -0.204521
     2  N    0.083742
     3  N   -0.028833
     4  C   -0.026669
     5  H    0.087670
     6  H    0.071088
     7  C   -0.003108
     8  C   -0.059478
     9  C   -0.065404
    10  C   -0.060277
    11  H    0.066910
    12  C   -0.060234
    13  H    0.060207
    14  C   -0.059105
    15  H    0.066127
    16  H    0.066006
    17  H    0.065879
 Sum of Mulliken charges =  -0.00000

 Dipole moment (field-independent basis, Debye):
    X=             -1.5509    Y=             -0.0520    Z=              1.0936  Tot=              1.8984
 Quadrupole moment (field-independent basis, Debye-Ang):
   XX=            -56.5859   YY=            -55.1353   ZZ=            -53.4308
   XY=             -0.3158   XZ=              3.6991   YZ=              1.7161

 Normal termination of Gaussian 16 at Fri Aug 30 10:37:53 2024.
