 Gaussian 16, Revision A.03,
 Gaussian 16:  ES64L-G16RevA.03 25-Dec-2016

 ----------------
 # b3lyp/6-31g(d)
 ----------------

 ----------------------
 tmpdir/M2_conf_0_2.gjf
 ----------------------
 Symbolic Z-matrix:
 Charge =  0 Multiplicity = 1

                         Standard orientation:
 ---------------------------------------------------------------------
 Center     Atomic      Atomic             Coordinates (Angstroms)
 Number     Number       Type             X           Y           Z
 ---------------------------------------------------------------------
      1          6           0        1.404339    0.040577   -0.000140
      2          6           0        0.217994   -0.184994    0.000105
      3          6           0       -1.225239    0.057153   -0.000254
      4          1           0        2.452066    0.237664    0.000426
      5          1           0       -1.672737   -0.414005    0.886430
      6          1           0       -1.676485   -0.442778   -0.869485
      7          1           0       -1.485404    1.142704   -0.015634
 ---------------------------------------------------------------------

 SCF Done:  E(RB3LYP) =  -116.646703818     A.U. after   12 cycles

 The electronic state is 1-A.
 Alpha  occ. eigenvalues --  -10.20782 -10.18324 -10.17389  -0.77322  -0.69176
 Alpha  occ. eigenvalues --   -0.52487  -0.44511  -0.42629  -0.42452  -0.26055
 Alpha  occ. eigenvalues --   -0.25937
 Alpha virt. eigenvalues --    0.03905   0.06533   0.11555   0.13195   0.17587
 Alpha virt. eigenvalues --    0.17755   0.25565   0.43571   0.46013   0.52595
 Alpha virt. eigenvalues --    0.53382   0.62561   0.63368   0.70649   0.70880

 Mulliken charges:
               1
     1  C   -0.295258
     2  C    0.112524
     3  C   -0.535003
     4  H    0.178461
     5  H    0.177361
     6  H    0.177087
     7  H    0.184829
 Sum of Mulliken charges =   0.00000

 Dipole moment (field-independent basis, Debye):
    X=             -0.5766    Y=              0.3338    Z=              0.0018  Tot=              0.6663
 Quadrupole moment (field-independent basis, Debye-Ang):
   XX=            -13.9860   YY=            -18.8438   ZZ=            -19.1769
   XY=              0.6753   XZ=             -0.0015   YZ=             -0.0006

 Normal termination of Gaussian 16 at Thu Dec 26 10:40:56 2024.
