 Gaussian 16, Revision A.03,
 Gaussian 16:  ES64L-G16RevA.03 25-Dec-2016

 ----------------
 # b3lyp/6-31g(d)
 ----------------

 -----------------------
 tmpdir/M2_conf_0_29.gjf
 -----------------------
 Symbolic Z-matrix:
 Charge =  0 Multiplicity = 1

                         Standard orientation:
 ---------------------------------------------------------------------
 Center     Atomic      Atomic             Coordinates (Angstroms)
 Number     Number       Type             X           Y           Z
 ---------------------------------------------------------------------
      1          1           0        1.174448   -0.224196    0.992464
      2          6           0        0.761692   -0.010803   -0.003697
      3          6           0       -0.766048    0.001020    0.003872
      4          1           0        1.171746    1.025020   -0.299748
      5          1           0        1.116826   -0.798217   -0.689283
      6          1           0       -1.192209   -0.992495    0.282546
      7          1           0       -1.119482    0.766096    0.704713
      8          1           0       -1.125193    0.282492   -0.991742
 ---------------------------------------------------------------------

 SCF Done:  E(RB3LYP) =  -79.8273302105     A.U. after   10 cycles

 The electronic state is 1-A.
 Alpha  occ. eigenvalues --  -10.17848 -10.17438  -0.74679  -0.60522  -0.43346
 Alpha  occ. eigenvalues --   -0.42769  -0.35892  -0.34068  -0.33532
 Alpha virt. eigenvalues --    0.09954   0.14806   0.16033   0.16423   0.18459
 Alpha virt. eigenvalues --    0.18686   0.23992   0.51080   0.54681   0.55861
 Alpha virt. eigenvalues --    0.62475   0.64547   0.66779   0.85822   0.87704

 Mulliken charges:
               1
     1  H    0.145004
     2  C   -0.424994
     3  C   -0.426361
     4  H    0.130604
     5  H    0.144460
     6  H    0.140541
     7  H    0.144742
     8  H    0.146003
 Sum of Mulliken charges =  -0.00000

 Dipole moment (field-independent basis, Debye):
    X=             -0.0221    Y=             -0.0089    Z=              0.0150  Tot=              0.0281
 Quadrupole moment (field-independent basis, Debye-Ang):
   XX=            -15.5269   YY=            -14.5931   ZZ=            -14.8316
   XY=              0.0138   XZ=              0.0847   YZ=              0.0404

 Normal termination of Gaussian 16 at Thu Dec 26 10:41:05 2024.
