 Gaussian 16, Revision A.03,
 Gaussian 16:  ES64L-G16RevA.03 25-Dec-2016

 ----------------
 # b3lyp/6-31g(d)
 ----------------

 -----------------------
 tmpdir/M2_conf_0_25.gjf
 -----------------------
 Symbolic Z-matrix:
 Charge =  0 Multiplicity = 1

                         Standard orientation:
 ---------------------------------------------------------------------
 Center     Atomic      Atomic             Coordinates (Angstroms)
 Number     Number       Type             X           Y           Z
 ---------------------------------------------------------------------
      1          7           0        0.745077    0.025405   -0.153288
      2          6           0       -0.711083   -0.010890    0.016725
      3          1           0       -1.068572    0.998328   -0.232136
      4          1           0        1.179014   -0.920143    0.369658
      5          1           0        1.106281    0.784280    0.426963
      6          1           0       -0.991721   -0.217188    1.063078
      7          1           0       -1.174045   -0.757773   -0.654903
 ---------------------------------------------------------------------

 SCF Done:  E(RB3LYP) =  -95.8396944532     A.U. after   11 cycles

 The electronic state is 1-A.
 Alpha  occ. eigenvalues --  -14.32233 -10.20147  -0.86106  -0.64625  -0.46949
 Alpha  occ. eigenvalues --   -0.43298  -0.39527  -0.35599  -0.23255
 Alpha virt. eigenvalues --    0.06203   0.12583   0.14168   0.17562   0.17947
 Alpha virt. eigenvalues --    0.23185   0.54591   0.56524   0.58910   0.72057
 Alpha virt. eigenvalues --    0.74675   0.79904   0.83270   0.87026   0.91539

 Mulliken charges:
               1
     1  N   -0.677890
     2  C   -0.298396
     3  H    0.151210
     4  H    0.247578
     5  H    0.297313
     6  H    0.124350
     7  H    0.155834
 Sum of Mulliken charges =  -0.00000

 Dipole moment (field-independent basis, Debye):
    X=             -0.3566    Y=             -0.0317    Z=              1.5878  Tot=              1.6277
 Quadrupole moment (field-independent basis, Debye-Ang):
   XX=            -14.1295   YY=            -12.5904   ZZ=            -15.0734
   XY=             -0.1216   XZ=              2.2654   YZ=              0.2038

 Normal termination of Gaussian 16 at Thu Dec 26 10:41:05 2024.
