 Gaussian 16, Revision A.03,
 Gaussian 16:  ES64L-G16RevA.03 25-Dec-2016

 ----------------
 # b3lyp/6-31g(d)
 ----------------

 ----------------------
 tmpdir/M2_conf_0_9.gjf
 ----------------------
 Symbolic Z-matrix:
 Charge =  0 Multiplicity = 1

                         Standard orientation:
 ---------------------------------------------------------------------
 Center     Atomic      Atomic             Coordinates (Angstroms)
 Number     Number       Type             X           Y           Z
 ---------------------------------------------------------------------
      1          6           0       -0.303208    0.000648   -0.005982
      2          6           0        1.160165    0.005961    0.001103
      3          1           0        1.543837   -0.500720    0.898428
      4          7           0       -1.401149    0.001851    0.003570
      5          1           0        1.529584   -0.585910   -0.848412
      6          1           0        1.592877    1.034021   -0.045738
 ---------------------------------------------------------------------

 SCF Done:  E(RB3LYP) =  -132.744007325     A.U. after   13 cycles

 The electronic state is 1-A.
 Alpha  occ. eigenvalues --  -14.31826 -10.24126 -10.21737  -0.92500  -0.77271
 Alpha  occ. eigenvalues --   -0.51260  -0.46337  -0.45891  -0.35405  -0.34051
 Alpha  occ. eigenvalues --   -0.33894
 Alpha virt. eigenvalues --    0.05225   0.05530   0.08307   0.16484   0.16732
 Alpha virt. eigenvalues --    0.19232   0.27805   0.52257   0.52776   0.57331
 Alpha virt. eigenvalues --    0.61941   0.64077   0.69084   0.78850   0.81009

 Mulliken charges:
               1
     1  C    0.337297
     2  C   -0.526898
     3  H    0.205887
     4  N   -0.425151
     5  H    0.204918
     6  H    0.203947
 Sum of Mulliken charges =  -0.00000

 Dipole moment (field-independent basis, Debye):
    X=              3.7281    Y=             -0.0345    Z=             -0.0058  Tot=              3.7283
 Quadrupole moment (field-independent basis, Debye-Ang):
   XX=            -20.3161   YY=            -16.9927   ZZ=            -17.1879
   XY=             -0.0081   XZ=              0.0362   YZ=             -0.0003

 Normal termination of Gaussian 16 at Thu Dec 26 10:40:58 2024.
