 Gaussian 16, Revision A.03,
 Gaussian 16:  ES64L-G16RevA.03 25-Dec-2016

 ----------------
 # b3lyp/6-31g(d)
 ----------------

 ----------------------
 tmpdir/M2_conf_0_5.gjf
 ----------------------
 Symbolic Z-matrix:
 Charge =  0 Multiplicity = 1

                         Standard orientation:
 ---------------------------------------------------------------------
 Center     Atomic      Atomic             Coordinates (Angstroms)
 Number     Number       Type             X           Y           Z
 ---------------------------------------------------------------------
      1          6           0       -0.003146    0.012306   -0.001559
      2          1           0        0.340811   -0.420716    0.945740
      3          1           0        0.413503    0.979593   -0.115921
      4          1           0        0.383820   -0.645088   -0.793522
      5          1           0       -1.119257    0.012374   -0.026943
 ---------------------------------------------------------------------

 SCF Done:  E(RB3LYP) =  -40.5168249164     A.U. after    9 cycles

 The electronic state is 1-A.
 Alpha  occ. eigenvalues --  -10.16687  -0.69079  -0.39775  -0.38722  -0.38227
 Alpha virt. eigenvalues --    0.11737   0.17163   0.17320   0.18479   0.52614
 Alpha virt. eigenvalues --    0.53220   0.54161   0.88437   0.88888   0.91343
 Alpha virt. eigenvalues --    0.95716   1.10134   1.65620   1.65678   2.21318

 Mulliken charges:
               1
     1  C   -0.628342
     2  H    0.154944
     3  H    0.166500
     4  H    0.154235
     5  H    0.152663
 Sum of Mulliken charges =   0.00000

 Dipole moment (field-independent basis, Debye):
    X=              0.0431    Y=             -0.0082    Z=              0.0043  Tot=              0.0441
 Quadrupole moment (field-independent basis, Debye-Ang):
   XX=             -8.1518   YY=             -8.2383   ZZ=             -8.3649
   XY=              0.0437   XZ=             -0.0037   YZ=             -0.0154

 Normal termination of Gaussian 16 at Thu Dec 26 10:40:56 2024.
