 Gaussian 16, Revision A.03,
 Gaussian 16:  ES64L-G16RevA.03 25-Dec-2016

 ----------------
 # b3lyp/6-31g(d)
 ----------------

 -----------------------
 tmpdir/M2_conf_0_39.gjf
 -----------------------
 Symbolic Z-matrix:
 Charge =  0 Multiplicity = 1

                         Standard orientation:
 ---------------------------------------------------------------------
 Center     Atomic      Atomic             Coordinates (Angstroms)
 Number     Number       Type             X           Y           Z
 ---------------------------------------------------------------------
      1          6           0        1.198941    0.114183    0.001588
      2          6           0        0.119539    1.101466    0.044601
      3          6           0       -1.281928    0.467028   -0.063736
      4          6           0       -1.232761   -1.056261    0.042998
      5          7           0        2.009617   -0.646404   -0.032549
      6          1           0        0.257470    1.826093   -0.770534
      7          1           0        0.192474    1.678015    0.978144
      8          1           0       -1.744364    0.749308   -1.016574
      9          1           0       -1.919722    0.859868    0.735211
     10          1           0       -2.286678   -1.514855   -0.044263
     11          1           0       -0.651422   -1.477970   -0.789203
     12          1           0       -0.737826   -1.354127    0.982347
 ---------------------------------------------------------------------

 SCF Done:  E(RB3LYP) =  -211.366436091     A.U. after   13 cycles

 The electronic state is 1-A.
 Alpha  occ. eigenvalues --  -14.31737 -10.23519 -10.21376 -10.20706 -10.18945
 Alpha  occ. eigenvalues --   -0.91762  -0.81780  -0.72043  -0.61958  -0.50420
 Alpha  occ. eigenvalues --   -0.49299  -0.45445  -0.41989  -0.37248  -0.36509
 Alpha  occ. eigenvalues --   -0.35739  -0.34926  -0.33002  -0.32235
 Alpha virt. eigenvalues --    0.04391   0.05061   0.08920   0.12414   0.12781
 Alpha virt. eigenvalues --    0.14897   0.15142   0.16551   0.17195   0.21315
 Alpha virt. eigenvalues --    0.25935   0.28204   0.32557   0.51337   0.51966

 Mulliken charges:
               1
     1  C    0.339925
     2  C   -0.349869
     3  C   -0.259807
     4  C   -0.447071
     5  N   -0.449356
     6  H    0.194265
     7  H    0.193877
     8  H    0.154999
     9  H    0.154570
    10  H    0.134802
    11  H    0.170423
    12  H    0.163243
 Sum of Mulliken charges =  -0.00000

 Dipole moment (field-independent basis, Debye):
    X=             -2.9080    Y=              2.3347    Z=              0.0712  Tot=              3.7299
 Quadrupole moment (field-independent basis, Debye-Ang):
   XX=            -37.3850   YY=            -30.3651   ZZ=            -29.8215
   XY=              3.1502   XZ=              0.2489   YZ=              0.0837

 Normal termination of Gaussian 16 at Thu Dec 26 10:41:13 2024.
