 Gaussian 16, Revision A.03,
 Gaussian 16:  ES64L-G16RevA.03 25-Dec-2016

 ----------------
 # b3lyp/6-31g(d)
 ----------------

 -----------------------
 tmpdir/M2_conf_0_10.gjf
 -----------------------
 Symbolic Z-matrix:
 Charge =  0 Multiplicity = 1

                         Standard orientation:
 ---------------------------------------------------------------------
 Center     Atomic      Atomic             Coordinates (Angstroms)
 Number     Number       Type             X           Y           Z
 ---------------------------------------------------------------------
      1          6           0       -0.873317    0.096027   -0.000196
      2          6           0        0.476242    0.661917   -0.000652
      3          6           0        1.545970   -0.448962   -0.000666
      4          7           0       -1.926689   -0.324360    0.000375
      5          1           0        0.597966    1.311443    0.877843
      6          1           0        0.595848    1.313477   -0.878307
      7          1           0        2.572657   -0.037725    0.005432
      8          1           0        1.416671   -1.088674   -0.881282
      9          1           0        1.410312   -1.081889    0.882778
 ---------------------------------------------------------------------

 SCF Done:  E(RB3LYP) =  -172.066410495     A.U. after   13 cycles

 The electronic state is 1-A.
 Alpha  occ. eigenvalues --  -14.32484 -10.24093 -10.22025 -10.20710  -0.91048
 Alpha  occ. eigenvalues --   -0.80579  -0.67130  -0.51998  -0.48398  -0.42904
 Alpha  occ. eigenvalues --   -0.39893  -0.38827  -0.35307  -0.32817  -0.32720
 Alpha virt. eigenvalues --    0.03821   0.04631   0.09182   0.13180   0.13476
 Alpha virt. eigenvalues --    0.15157   0.18934   0.18976   0.23024   0.30791
 Alpha virt. eigenvalues --    0.51711   0.52329   0.52665   0.56961   0.58862

 Mulliken charges:
               1
     1  C    0.346062
     2  C   -0.340130
     3  C   -0.445352
     4  N   -0.454621
     5  H    0.194522
     6  H    0.194428
     7  H    0.160486
     8  H    0.172340
     9  H    0.172266
 Sum of Mulliken charges =  -0.00000

 Dipole moment (field-independent basis, Debye):
    X=              3.6164    Y=              1.2545    Z=              0.0021  Tot=              3.8278
 Quadrupole moment (field-independent basis, Debye-Ang):
   XX=            -30.4441   YY=            -23.5076   ZZ=            -23.5552
   XY=             -1.2567   XZ=              0.0092   YZ=              0.0074

 Normal termination of Gaussian 16 at Thu Dec 26 10:40:58 2024.
