 Gaussian 16, Revision A.03,
 Gaussian 16:  ES64L-G16RevA.03 25-Dec-2016

 ----------------
 # b3lyp/6-31g(d)
 ----------------

 ----------------------
 tmpdir/M2_conf_0_8.gjf
 ----------------------
 Symbolic Z-matrix:
 Charge =  0 Multiplicity = 1

                         Standard orientation:
 ---------------------------------------------------------------------
 Center     Atomic      Atomic             Coordinates (Angstroms)
 Number     Number       Type             X           Y           Z
 ---------------------------------------------------------------------
      1          6           0       -0.293190   -0.005937   -0.004316
      2          6           0        1.170140    0.007437    0.000842
      3          1           0        1.523339   -0.576315   -0.861097
      4          7           0       -1.416626    0.005827    0.002551
      5          1           0        1.534267   -0.511827    0.899111
      6          1           0        1.597075    1.038353   -0.035026
 ---------------------------------------------------------------------

 SCF Done:  E(RB3LYP) =  -132.750736920     A.U. after   12 cycles

 The electronic state is 1-A.
 Alpha  occ. eigenvalues --  -14.32415 -10.24230 -10.22300  -0.91560  -0.77386
 Alpha  occ. eigenvalues --   -0.51208  -0.46423  -0.46095  -0.35563  -0.33460
 Alpha  occ. eigenvalues --   -0.33315
 Alpha virt. eigenvalues --    0.04472   0.04913   0.08245   0.16001   0.16335
 Alpha virt. eigenvalues --    0.18830   0.28132   0.52478   0.52975   0.57459
 Alpha virt. eigenvalues --    0.61724   0.64017   0.68715   0.78691   0.80846

 Mulliken charges:
               1
     1  C    0.344504
     2  C   -0.521863
     3  H    0.205917
     4  N   -0.440960
     5  H    0.206618
     6  H    0.205785
 Sum of Mulliken charges =  -0.00000

 Dipole moment (field-independent basis, Debye):
    X=              3.7581    Y=             -0.0402    Z=             -0.0038  Tot=              3.7583
 Quadrupole moment (field-independent basis, Debye-Ang):
   XX=            -20.4090   YY=            -17.0538   ZZ=            -17.2309
   XY=              0.0317   XZ=              0.0248   YZ=             -0.0006

 Normal termination of Gaussian 16 at Thu Dec 26 10:40:56 2024.
