 Gaussian 16, Revision A.03,
 Gaussian 16:  ES64L-G16RevA.03 25-Dec-2016

 ----------------
 # b3lyp/6-31g(d)
 ----------------

 -----------------------
 tmpdir/M2_conf_0_19.gjf
 -----------------------
 Symbolic Z-matrix:
 Charge =  0 Multiplicity = 1

                         Standard orientation:
 ---------------------------------------------------------------------
 Center     Atomic      Atomic             Coordinates (Angstroms)
 Number     Number       Type             X           Y           Z
 ---------------------------------------------------------------------
      1          1           0        1.205349    0.740408    0.421490
      2          7           0        0.742601    0.029220   -0.146956
      3          6           0       -0.714292   -0.004547    0.017181
      4          1           0        1.125894   -0.962151    0.328541
      5          1           0       -1.065165    1.014166   -0.200442
      6          1           0       -0.999536   -0.242678    1.055497
      7          1           0       -1.178997   -0.727008   -0.679479
 ---------------------------------------------------------------------

 SCF Done:  E(RB3LYP) =  -95.8385984305     A.U. after   11 cycles

 The electronic state is 1-A.
 Alpha  occ. eigenvalues --  -14.32095 -10.20193  -0.85777  -0.64768  -0.46832
 Alpha  occ. eigenvalues --   -0.43289  -0.39949  -0.35260  -0.22867
 Alpha virt. eigenvalues --    0.06310   0.13003   0.13655   0.17577   0.17997
 Alpha virt. eigenvalues --    0.23309   0.54495   0.56646   0.58692   0.72195
 Alpha virt. eigenvalues --    0.75446   0.80161   0.83080   0.87103   0.91851

 Mulliken charges:
               1
     1  H    0.300688
     2  N   -0.685272
     3  C   -0.292484
     4  H    0.245071
     5  H    0.150628
     6  H    0.124385
     7  H    0.156983
 Sum of Mulliken charges =   0.00000

 Dipole moment (field-independent basis, Debye):
    X=             -0.2969    Y=             -0.0821    Z=              1.5373  Tot=              1.5679
 Quadrupole moment (field-independent basis, Debye-Ang):
   XX=            -13.8962   YY=            -12.5909   ZZ=            -15.1338
   XY=              0.0095   XZ=              2.2504   YZ=              0.2068

 Normal termination of Gaussian 16 at Thu Dec 26 10:41:03 2024.
