 Gaussian 16, Revision A.03,
 Gaussian 16:  ES64L-G16RevA.03 25-Dec-2016

 ----------------
 # b3lyp/6-31g(d)
 ----------------

 -----------------------
 tmpdir/M2_conf_0_27.gjf
 -----------------------
 Symbolic Z-matrix:
 Charge =  0 Multiplicity = 1

                         Standard orientation:
 ---------------------------------------------------------------------
 Center     Atomic      Atomic             Coordinates (Angstroms)
 Number     Number       Type             X           Y           Z
 ---------------------------------------------------------------------
      1          7           0        1.143382   -0.351216   -0.143828
      2          6           0        0.050626    0.603927    0.066434
      3          6           0       -1.217640   -0.242448   -0.030111
      4          1           0        1.255142   -0.971438    0.835293
      5          1           0        2.016632    0.177680   -0.171348
      6          1           0        0.140053    1.345547   -0.739951
      7          1           0        0.157755    1.137247    1.025735
      8          1           0       -2.141656    0.368442    0.109006
      9          1           0       -1.246686   -0.742641   -1.004989
     10          1           0       -1.182837   -1.025198    0.735110
 ---------------------------------------------------------------------

 SCF Done:  E(RB3LYP) =  -135.155131888     A.U. after   12 cycles

 The electronic state is 1-A.
 Alpha  occ. eigenvalues --  -14.31989 -10.20439 -10.17025  -0.86831  -0.71492
 Alpha  occ. eigenvalues --   -0.59359  -0.47431  -0.45754  -0.39940  -0.36457
 Alpha  occ. eigenvalues --   -0.35198  -0.33924  -0.23502
 Alpha virt. eigenvalues --    0.06234   0.11949   0.13185   0.16162   0.16477
 Alpha virt. eigenvalues --    0.18716   0.20298   0.23685   0.24378   0.53205
 Alpha virt. eigenvalues --    0.55299   0.57345   0.58223   0.67450   0.68311

 Mulliken charges:
               1
     1  N   -0.679036
     2  C   -0.132264
     3  C   -0.417836
     4  H    0.244785
     5  H    0.292469
     6  H    0.142048
     7  H    0.119142
     8  H    0.129415
     9  H    0.163493
    10  H    0.137784
 Sum of Mulliken charges =  -0.00000

 Dipole moment (field-independent basis, Debye):
    X=              0.4012    Y=              0.8480    Z=              1.1717  Tot=              1.5010
 Quadrupole moment (field-independent basis, Debye-Ang):
   XX=            -19.2706   YY=            -21.0015   ZZ=            -20.7780
   XY=              1.0607   XZ=              1.5684   YZ=             -1.7421

 Normal termination of Gaussian 16 at Thu Dec 26 10:41:07 2024.
