 Gaussian 16, Revision A.03,
 Gaussian 16:  ES64L-G16RevA.03 25-Dec-2016

 ----------------
 # b3lyp/6-31g(d)
 ----------------

 -----------------------
 tmpdir/M2_conf_0_12.gjf
 -----------------------
 Symbolic Z-matrix:
 Charge =  0 Multiplicity = 1

                         Standard orientation:
 ---------------------------------------------------------------------
 Center     Atomic      Atomic             Coordinates (Angstroms)
 Number     Number       Type             X           Y           Z
 ---------------------------------------------------------------------
      1          1           0        1.161615    0.582028   -0.840719
      2          6           0        0.770967   -0.010292   -0.001068
      3          6           0       -0.771170    0.003167   -0.000299
      4          1           0        1.166361   -0.991850   -0.051344
      5          1           0        1.135973    0.481252    0.912319
      6          1           0       -1.178126    1.030206    0.052840
      7          1           0       -1.146965   -0.580274    0.848113
      8          1           0       -1.137642   -0.478617   -0.913008
 ---------------------------------------------------------------------

 SCF Done:  E(RB3LYP) =  -79.8288650518     A.U. after   10 cycles

 The electronic state is 1-A.
 Alpha  occ. eigenvalues --  -10.17338 -10.16939  -0.74665  -0.61197  -0.43500
 Alpha  occ. eigenvalues --   -0.42785  -0.35878  -0.34545  -0.33715
 Alpha virt. eigenvalues --    0.10405   0.15777   0.16573   0.16689   0.18486
 Alpha virt. eigenvalues --    0.19470   0.23702   0.51475   0.54226   0.54625
 Alpha virt. eigenvalues --    0.62389   0.64204   0.66360   0.88259   0.88583

 Mulliken charges:
               1
     1  H    0.142052
     2  C   -0.435306
     3  C   -0.433265
     4  H    0.153730
     5  H    0.141506
     6  H    0.143206
     7  H    0.144157
     8  H    0.143919
 Sum of Mulliken charges =  -0.00000

 Dipole moment (field-independent basis, Debye):
    X=              0.0178    Y=             -0.0283    Z=             -0.0005  Tot=              0.0334
 Quadrupole moment (field-independent basis, Debye-Ang):
   XX=            -15.3376   YY=            -14.5520   ZZ=            -14.7709
   XY=             -0.0718   XZ=             -0.0319   YZ=              0.0022

 Normal termination of Gaussian 16 at Thu Dec 26 10:40:58 2024.
