 Gaussian 16, Revision A.03,
 Gaussian 16:  ES64L-G16RevA.03 25-Dec-2016

 ----------------
 # b3lyp/6-31g(d)
 ----------------

 -----------------------
 tmpdir/M2_conf_0_36.gjf
 -----------------------
 Symbolic Z-matrix:
 Charge =  0 Multiplicity = 1

                         Standard orientation:
 ---------------------------------------------------------------------
 Center     Atomic      Atomic             Coordinates (Angstroms)
 Number     Number       Type             X           Y           Z
 ---------------------------------------------------------------------
      1          6           0        0.761674   -0.010620   -0.005127
      2          6           0       -0.766062    0.001523    0.001772
      3          1           0       -1.118737    0.770724    0.698475
      4          1           0        1.185801    1.021139   -0.295483
      5          1           0        1.145565   -0.220592    1.003227
      6          1           0        1.130984   -0.803908   -0.676298
      7          1           0       -1.192521   -0.990375    0.285722
      8          1           0       -1.124766    0.277596   -0.995514
 ---------------------------------------------------------------------

 SCF Done:  E(RB3LYP) =  -79.8273247493     A.U. after   11 cycles

 The electronic state is 1-A.
 Alpha  occ. eigenvalues --  -10.17845 -10.17436  -0.74682  -0.60514  -0.43337
 Alpha  occ. eigenvalues --   -0.42777  -0.35854  -0.34112  -0.33522
 Alpha virt. eigenvalues --    0.09962   0.14728   0.16119   0.16412   0.18389
 Alpha virt. eigenvalues --    0.18760   0.23979   0.51074   0.54789   0.55727
 Alpha virt. eigenvalues --    0.62252   0.64798   0.66809   0.85888   0.87782

 Mulliken charges:
               1
     1  C   -0.425197
     2  C   -0.426337
     3  H    0.144870
     4  H    0.131018
     5  H    0.144550
     6  H    0.144721
     7  H    0.140721
     8  H    0.145654
 Sum of Mulliken charges =   0.00000

 Dipole moment (field-independent basis, Debye):
    X=             -0.0219    Y=             -0.0101    Z=              0.0219  Tot=              0.0326
 Quadrupole moment (field-independent basis, Debye-Ang):
   XX=            -15.5317   YY=            -14.5868   ZZ=            -14.8337
   XY=              0.0246   XZ=              0.0416   YZ=              0.0427

 Normal termination of Gaussian 16 at Thu Dec 26 10:41:07 2024.
