 Gaussian 16, Revision A.03,
 Gaussian 16:  ES64L-G16RevA.03 25-Dec-2016

 ----------------
 # b3lyp/6-31g(d)
 ----------------

 ----------------------
 tmpdir/M2_conf_0_6.gjf
 ----------------------
 Symbolic Z-matrix:
 Charge =  0 Multiplicity = 1

                         Standard orientation:
 ---------------------------------------------------------------------
 Center     Atomic      Atomic             Coordinates (Angstroms)
 Number     Number       Type             X           Y           Z
 ---------------------------------------------------------------------
      1          6           0        0.003170    0.012330   -0.001352
      2          1           0       -0.368265   -0.416082    0.938215
      3          1           0       -0.412918    0.977573   -0.133664
      4          1           0       -0.357385   -0.651104   -0.800304
      5          1           0        1.119550    0.015631    0.003866
 ---------------------------------------------------------------------

 SCF Done:  E(RB3LYP) =  -40.5168255591     A.U. after    9 cycles

 The electronic state is 1-A.
 Alpha  occ. eigenvalues --  -10.16689  -0.69078  -0.39774  -0.38723  -0.38224
 Alpha virt. eigenvalues --    0.11736   0.17161   0.17318   0.18478   0.52615
 Alpha virt. eigenvalues --    0.53225   0.54161   0.88434   0.88885   0.91335
 Alpha virt. eigenvalues --    0.95710   1.10132   1.65621   1.65679   2.21317

 Mulliken charges:
               1
     1  C   -0.628318
     2  H    0.154848
     3  H    0.166505
     4  H    0.154292
     5  H    0.152673
 Sum of Mulliken charges =   0.00000

 Dipole moment (field-independent basis, Debye):
    X=             -0.0432    Y=             -0.0084    Z=              0.0016  Tot=              0.0440
 Quadrupole moment (field-independent basis, Debye-Ang):
   XX=             -8.1519   YY=             -8.2389   ZZ=             -8.3646
   XY=             -0.0435   XZ=              0.0043   YZ=             -0.0168

 Normal termination of Gaussian 16 at Thu Dec 26 10:40:54 2024.
