 Gaussian 16, Revision A.03,
 Gaussian 16:  ES64L-G16RevA.03 25-Dec-2016

 ----------------
 # b3lyp/6-31g(d)
 ----------------

 --------------------
 tmpdir/M2_ref_13.gjf
 --------------------
 Symbolic Z-matrix:
 Charge =  0 Multiplicity = 1

                         Standard orientation:
 ---------------------------------------------------------------------
 Center     Atomic      Atomic             Coordinates (Angstroms)
 Number     Number       Type             X           Y           Z
 ---------------------------------------------------------------------
      1          1           0       -1.145025    0.482760   -0.908358
      2          6           0       -0.771015   -0.010859    0.000314
      3          6           0        0.771123    0.002323   -0.000925
      4          1           0       -1.176497   -0.987780    0.059250
      5          1           0       -1.141645    0.587718    0.844636
      6          1           0        1.178176    1.029158   -0.056406
      7          1           0        1.146511   -0.583110   -0.848138
      8          1           0        1.137830   -0.477534    0.912682
 ---------------------------------------------------------------------

 SCF Done:  E(RB3LYP) =  -79.8287992960     A.U. after   10 cycles

 The electronic state is 1-A.
 Alpha  occ. eigenvalues --  -10.17337 -10.16940  -0.74665  -0.61198  -0.43497
 Alpha  occ. eigenvalues --   -0.42791  -0.35923  -0.34494  -0.33716
 Alpha virt. eigenvalues --    0.10401   0.15782   0.16616   0.16645   0.18461
 Alpha virt. eigenvalues --    0.19487   0.23706   0.51483   0.54176   0.54666
 Alpha virt. eigenvalues --    0.62312   0.64294   0.66368   0.88257   0.88539

 Mulliken charges:
               1
     1  H    0.141642
     2  C   -0.435370
     3  C   -0.433245
     4  H    0.153917
     5  H    0.141757
     6  H    0.143318
     7  H    0.143960
     8  H    0.144021
 Sum of Mulliken charges =  -0.00000

 Dipole moment (field-independent basis, Debye):
    X=             -0.0178    Y=             -0.0254    Z=              0.0053  Tot=              0.0314
 Quadrupole moment (field-independent basis, Debye-Ang):
   XX=            -15.3379   YY=            -14.5511   ZZ=            -14.7721
   XY=              0.0899   XZ=             -0.0080   YZ=             -0.0060

 Normal termination of Gaussian 16 at Thu Dec 26 10:40:40 2024.
