 Gaussian 16, Revision A.03,
 Gaussian 16:  ES64L-G16RevA.03 25-Dec-2016

 ----------------
 # b3lyp/6-31g(d)
 ----------------

 --------------------
 tmpdir/M2_ref_10.gjf
 --------------------
 Symbolic Z-matrix:
 Charge =  0 Multiplicity = 1

                         Standard orientation:
 ---------------------------------------------------------------------
 Center     Atomic      Atomic             Coordinates (Angstroms)
 Number     Number       Type             X           Y           Z
 ---------------------------------------------------------------------
      1          6           0       -0.891259    0.101365   -0.000183
      2          6           0        0.465393    0.650162   -0.000657
      3          6           0        1.556283   -0.439940   -0.000665
      4          7           0       -1.916849   -0.328792    0.000372
      5          1           0        0.595300    1.298199    0.877815
      6          1           0        0.593261    1.300230   -0.878319
      7          1           0        2.574817   -0.008997    0.005424
      8          1           0        1.439190   -1.082046   -0.881236
      9          1           0        1.432875   -1.075373    0.882744
 ---------------------------------------------------------------------

 SCF Done:  E(RB3LYP) =  -172.062165988     A.U. after   13 cycles

 The electronic state is 1-A.
 Alpha  occ. eigenvalues --  -14.31978 -10.24008 -10.21544 -10.20688  -0.91843
 Alpha  occ. eigenvalues --   -0.80513  -0.67124  -0.51827  -0.48374  -0.42982
 Alpha  occ. eigenvalues --   -0.39779  -0.38858  -0.35189  -0.33286  -0.33140
 Alpha virt. eigenvalues --    0.04336   0.05308   0.09153   0.13331   0.13619
 Alpha virt. eigenvalues --    0.15168   0.19008   0.19402   0.23389   0.30624
 Alpha virt. eigenvalues --    0.51771   0.52108   0.52518   0.56738   0.58791

 Mulliken charges:
               1
     1  C    0.339018
     2  C   -0.343028
     3  C   -0.443281
     4  N   -0.442037
     5  H    0.192955
     6  H    0.192863
     7  H    0.160784
     8  H    0.171395
     9  H    0.171331
 Sum of Mulliken charges =  -0.00000

 Dipole moment (field-independent basis, Debye):
    X=              3.5917    Y=              1.2538    Z=              0.0022  Tot=              3.8043
 Quadrupole moment (field-independent basis, Debye-Ang):
   XX=            -30.3341   YY=            -23.5297   ZZ=            -23.4961
   XY=             -1.2991   XZ=              0.0093   YZ=              0.0074

 Normal termination of Gaussian 16 at Thu Dec 26 10:40:36 2024.
