 Gaussian 16, Revision A.03,
 Gaussian 16:  ES64L-G16RevA.03 25-Dec-2016

 ----------------
 # b3lyp/6-31g(d)
 ----------------

 --------------------
 tmpdir/M2_ref_39.gjf
 --------------------
 Symbolic Z-matrix:
 Charge =  0 Multiplicity = 1

                         Standard orientation:
 ---------------------------------------------------------------------
 Center     Atomic      Atomic             Coordinates (Angstroms)
 Number     Number       Type             X           Y           Z
 ---------------------------------------------------------------------
      1          6           0        1.551175    0.108832    0.001558
      2          6           0        0.175601    0.608295    0.005700
      3          6           0       -0.875238   -0.520430   -0.003269
      4          6           0       -2.302840    0.023773   -0.007672
      5          7           0        2.591621   -0.284018   -0.001889
      6          1           0        0.022538    1.258053   -0.867757
      7          1           0        0.024212    1.246460    0.888341
      8          1           0       -0.735194   -1.164741    0.872326
      9          1           0       -0.728832   -1.144087   -0.891545
     10          1           0       -3.075432   -0.831652   -0.009846
     11          1           0       -2.494026    0.599378    0.909097
     12          1           0       -2.446808    0.701889   -0.865292
 ---------------------------------------------------------------------

 SCF Done:  E(RB3LYP) =  -211.374349342     A.U. after   13 cycles

 The electronic state is 1-A.
 Alpha  occ. eigenvalues --  -14.31814 -10.23688 -10.21388 -10.20946 -10.20007
 Alpha  occ. eigenvalues --   -0.91694  -0.81899  -0.72790  -0.61738  -0.51744
 Alpha  occ. eigenvalues --   -0.49524  -0.44117  -0.42448  -0.38905  -0.36925
 Alpha  occ. eigenvalues --   -0.35846  -0.34983  -0.33029  -0.32777
 Alpha virt. eigenvalues --    0.04692   0.05525   0.07888   0.11802   0.12255
 Alpha virt. eigenvalues --    0.13253   0.14933   0.17157   0.19690   0.20912
 Alpha virt. eigenvalues --    0.22721   0.24407   0.33090   0.49612   0.52883

 Mulliken charges:
               1
     1  C    0.335488
     2  C   -0.339125
     3  C   -0.254490
     4  C   -0.439876
     5  N   -0.447122
     6  H    0.188180
     7  H    0.188675
     8  H    0.160683
     9  H    0.161259
    10  H    0.147129
    11  H    0.150101
    12  H    0.149099
 Sum of Mulliken charges =  -0.00000

 Dipole moment (field-independent basis, Debye):
    X=             -3.7658    Y=              1.0943    Z=              0.0328  Tot=              3.9217
 Quadrupole moment (field-independent basis, Debye-Ang):
   XX=            -41.9259   YY=            -30.0334   ZZ=            -29.9603
   XY=              2.2681   XZ=             -0.0962   YZ=             -0.0787

 Normal termination of Gaussian 16 at Thu Dec 26 10:40:53 2024.
