 Gaussian 16, Revision A.03,
 Gaussian 16:  ES64L-G16RevA.03 25-Dec-2016

 ----------------
 # b3lyp/6-31g(d)
 ----------------

 --------------------
 tmpdir/M2_ref_21.gjf
 --------------------
 Symbolic Z-matrix:
 Charge =  0 Multiplicity = 1

                         Standard orientation:
 ---------------------------------------------------------------------
 Center     Atomic      Atomic             Coordinates (Angstroms)
 Number     Number       Type             X           Y           Z
 ---------------------------------------------------------------------
      1          7           0        0.691008   -0.012869    0.147955
      2          8           0       -0.729101    0.010729   -0.140067
      3          1           0       -1.119225   -0.089035    0.742286
      4          1           0        1.012811    0.868904   -0.254469
      5          1           0        1.102164   -0.775620   -0.402967
 ---------------------------------------------------------------------

 SCF Done:  E(RB3LYP) =  -131.704097155     A.U. after   12 cycles

 The electronic state is 1-A.
 Alpha  occ. eigenvalues --  -19.16400 -14.36516  -1.03989  -0.79662  -0.49789
 Alpha  occ. eigenvalues --   -0.48554  -0.42296  -0.28131  -0.24875
 Alpha virt. eigenvalues --    0.07927   0.08402   0.15322   0.15817   0.64127
 Alpha virt. eigenvalues --    0.71956   0.72603   0.81783   0.83013   0.88657
 Alpha virt. eigenvalues --    0.95400   0.95542   1.03439   1.20661   1.32409

 Mulliken charges:
               1
     1  N   -0.502813
     2  O   -0.543168
     3  H    0.411555
     4  H    0.318235
     5  H    0.316190
 Sum of Mulliken charges =   0.00000

 Dipole moment (field-independent basis, Debye):
    X=              0.6275    Y=             -0.0096    Z=              0.0271  Tot=              0.6282
 Quadrupole moment (field-independent basis, Debye-Ang):
   XX=            -10.6753   YY=            -11.2806   ZZ=            -12.5229
   XY=              0.3073   XZ=             -3.7762   YZ=              0.0361

 Normal termination of Gaussian 16 at Thu Dec 26 10:40:40 2024.
