 Gaussian 16, Revision A.03,
 Gaussian 16:  ES64L-G16RevA.03 25-Dec-2016

 ----------------
 # b3lyp/6-31g(d)
 ----------------

 -------------------
 tmpdir/M2_ref_6.gjf
 -------------------
 Symbolic Z-matrix:
 Charge =  0 Multiplicity = 1

                         Standard orientation:
 ---------------------------------------------------------------------
 Center     Atomic      Atomic             Coordinates (Angstroms)
 Number     Number       Type             X           Y           Z
 ---------------------------------------------------------------------
      1          6           0       -0.003320    0.012513   -0.000056
      2          1           0        0.380434   -0.528840   -0.876925
      3          1           0        0.406603    0.989253    0.014397
      4          1           0        0.352452   -0.543686    0.878925
      5          1           0       -1.119570    0.008193   -0.016058
 ---------------------------------------------------------------------

 SCF Done:  E(RB3LYP) =  -40.5168143213     A.U. after    9 cycles

 The electronic state is 1-A.
 Alpha  occ. eigenvalues --  -10.16712  -0.69061  -0.39776  -0.38715  -0.38204
 Alpha virt. eigenvalues --    0.11723   0.17152   0.17278   0.18474   0.52623
 Alpha virt. eigenvalues --    0.53260   0.54165   0.88425   0.88803   0.91285
 Alpha virt. eigenvalues --    0.95642   1.10117   1.65631   1.65691   2.21288

 Mulliken charges:
               1
     1  C   -0.628068
     2  H    0.154325
     3  H    0.166604
     4  H    0.154376
     5  H    0.152763
 Sum of Mulliken charges =   0.00000

 Dipole moment (field-independent basis, Debye):
    X=              0.0426    Y=             -0.0075    Z=              0.0013  Tot=              0.0433
 Quadrupole moment (field-independent basis, Debye-Ang):
   XX=             -8.1542   YY=             -8.2376   ZZ=             -8.3682
   XY=              0.0441   XZ=              0.0006   YZ=              0.0014

 Normal termination of Gaussian 16 at Thu Dec 26 10:40:34 2024.
