 Gaussian 16, Revision A.03,
 Gaussian 16:  ES64L-G16RevA.03 25-Dec-2016

 -----------------
 # M062X/def2TZVPP
 -----------------

 ----------------------
 tmpdir/M1_conf_0_0.gjf
 ----------------------
 Symbolic Z-matrix:
 Charge =  0 Multiplicity = 1

                         Standard orientation:
 ---------------------------------------------------------------------
 Center     Atomic      Atomic             Coordinates (Angstroms)
 Number     Number       Type             X           Y           Z
 ---------------------------------------------------------------------
      1          1           0        0.000000    0.000000    0.538037
      2          1           0       -0.000000    0.000000   -0.538037
 ---------------------------------------------------------------------

 SCF Done:  E(RM062X) =  -1.12678330001     A.U. after    9 cycles

 The electronic state is 1-SGG.
 Alpha  occ. eigenvalues --   -0.43032
 Alpha virt. eigenvalues --    0.04802   0.26555   0.45379   0.56481   0.56481
 Alpha virt. eigenvalues --    0.84132   0.90330   0.90330   1.35744   2.25972
 Alpha virt. eigenvalues --    2.44641   2.91874   2.91875   3.10511   3.38466

 Mulliken charges:
               1
     1  H    0.000000
     2  H    0.000000
 Sum of Mulliken charges =   0.00000

 Dipole moment (field-independent basis, Debye):
    X=             -0.0000    Y=              0.0000    Z=              0.0000  Tot=              0.0000
 Quadrupole moment (field-independent basis, Debye-Ang):
   XX=             -2.5386   YY=             -2.5386   ZZ=             -1.4639
   XY=             -0.0000   XZ=              0.0000   YZ=              0.0000

 Normal termination of Gaussian 16 at Wed Jun  5 22:34:21 2019.
