 Gaussian 16, Revision A.03,
 Gaussian 16:  ES64L-G16RevA.03 25-Dec-2016

 -----------------
 # M062X/def2TZVPP
 -----------------

 ----------------------
 tmpdir/M1_conf_0_1.gjf
 ----------------------
 Symbolic Z-matrix:
 Charge =  0 Multiplicity = 1

                         Standard orientation:
 ---------------------------------------------------------------------
 Center     Atomic      Atomic             Coordinates (Angstroms)
 Number     Number       Type             X           Y           Z
 ---------------------------------------------------------------------
      1          6           0        0.000615    0.000530   -0.003150
      2          1           0        0.464640    0.978372   -0.175864
      3          1           0        0.134287   -0.266618    1.044114
      4          1           0        0.522695   -0.742301   -0.615452
      5          1           0       -1.125313    0.027364   -0.233898
 ---------------------------------------------------------------------

 SCF Done:  E(RM062X) =  -40.4992256242     A.U. after   10 cycles

 The electronic state is 1-A.
 Alpha  occ. eigenvalues --  -10.52404  -0.78000  -0.45567  -0.45353  -0.44751
 Alpha virt. eigenvalues --    0.08476   0.15438   0.16108   0.16237   0.23729
 Alpha virt. eigenvalues --    0.23750   0.24162   0.41663   0.48764   0.50592
 Alpha virt. eigenvalues --    0.50886   0.54538   0.55128   0.55608   0.90337

 Mulliken charges:
               1
     1  C   -0.496026
     2  H    0.126723
     3  H    0.129105
     4  H    0.126907
     5  H    0.113291
 Sum of Mulliken charges =  -0.00000

 Dipole moment (field-independent basis, Debye):
    X=              0.0449    Y=             -0.0051    Z=              0.0267  Tot=              0.0525
 Quadrupole moment (field-independent basis, Debye-Ang):
   XX=             -8.3862   YY=             -8.5500   ZZ=             -8.5859
   XY=              0.0020   XZ=             -0.0274   YZ=             -0.0008

 Normal termination of Gaussian 16 at Wed Jun  5 22:34:23 2019.
