 Gaussian 16, Revision A.03,
 Gaussian 16:  ES64L-G16RevA.03 25-Dec-2016

 -----------------
 # M062X/def2TZVPP
 -----------------

 ----------------------
 tmpdir/M1_conf_0_7.gjf
 ----------------------
 Symbolic Z-matrix:
 Charge =  0 Multiplicity = 1

                         Standard orientation:
 ---------------------------------------------------------------------
 Center     Atomic      Atomic             Coordinates (Angstroms)
 Number     Number       Type             X           Y           Z
 ---------------------------------------------------------------------
      1          7           0       -0.002297   -0.006864   -0.085345
      2          1           0       -0.142612    0.959490    0.190131
      3          1           0       -0.785257   -0.576612    0.207445
      4          1           0        0.943946   -0.334832    0.199842
 ---------------------------------------------------------------------

 SCF Done:  E(RM062X) =  -56.5488960340     A.U. after   12 cycles

 The electronic state is 1-A.
 Alpha  occ. eigenvalues --  -14.71953  -0.94011  -0.53905  -0.52672  -0.32273
 Alpha virt. eigenvalues --    0.05977   0.13719   0.14114   0.33859   0.35083
 Alpha virt. eigenvalues --    0.39490   0.45958   0.49044   0.52644   0.53388
 Alpha virt. eigenvalues --    0.62201   0.64412   0.94383   0.97611   1.02934

 Mulliken charges:
               1
     1  N   -0.515505
     2  H    0.162348
     3  H    0.171669
     4  H    0.181488
 Sum of Mulliken charges =  -0.00000

 Dipole moment (field-independent basis, Debye):
    X=              0.0158    Y=              0.0602    Z=              1.2768  Tot=              1.2783
 Quadrupole moment (field-independent basis, Debye-Ang):
   XX=             -5.8378   YY=             -6.1792   ZZ=             -9.4972
   XY=              0.0208   XZ=             -0.0194   YZ=             -0.0149

 Normal termination of Gaussian 16 at Wed Jun  5 22:34:28 2019.
