 Gaussian 16, Revision A.03,
 Gaussian 16:  ES64L-G16RevA.03 25-Dec-2016

 -----------------
 # M062X/def2TZVPP
 -----------------

 ----------------------
 tmpdir/M1_conf_0_6.gjf
 ----------------------
 Symbolic Z-matrix:
 Charge =  0 Multiplicity = 1

                         Standard orientation:
 ---------------------------------------------------------------------
 Center     Atomic      Atomic             Coordinates (Angstroms)
 Number     Number       Type             X           Y           Z
 ---------------------------------------------------------------------
      1          6           0       -0.022683   -0.008941   -0.012161
      2          1           0       -0.733724   -0.720664    0.402223
      3          1           0       -0.556701    0.834105   -0.447259
      4          1           0        0.687087    0.409207    0.817138
      5          1           0        0.739437   -0.469004   -0.699137
 ---------------------------------------------------------------------

 SCF Done:  E(RM062X) =  -40.4951162209     A.U. after   10 cycles

 The electronic state is 1-A.
 Alpha  occ. eigenvalues --  -10.52846  -0.77705  -0.46744  -0.45847  -0.42518
 Alpha virt. eigenvalues --    0.08355   0.14810   0.16056   0.16104   0.23590
 Alpha virt. eigenvalues --    0.24020   0.24223   0.40734   0.47235   0.50819
 Alpha virt. eigenvalues --    0.51124   0.52269   0.55484   0.56901   0.89895

 Mulliken charges:
               1
     1  C   -0.483359
     2  H    0.129187
     3  H    0.129039
     4  H    0.105547
     5  H    0.119586
 Sum of Mulliken charges =  -0.00000

 Dipole moment (field-independent basis, Debye):
    X=              0.0108    Y=              0.0113    Z=              0.0000  Tot=              0.0156
 Quadrupole moment (field-independent basis, Debye-Ang):
   XX=             -8.2307   YY=             -8.5658   ZZ=             -8.8401
   XY=             -0.0246   XZ=             -0.0770   YZ=             -0.1083

 Normal termination of Gaussian 16 at Wed Jun  5 22:34:27 2019.
