 Gaussian 16, Revision A.03,
 Gaussian 16:  ES64L-G16RevA.03 25-Dec-2016

 -----------------
 # M062X/def2TZVPP
 -----------------

 ----------------------
 tmpdir/M1_conf_0_5.gjf
 ----------------------
 Symbolic Z-matrix:
 Charge =  0 Multiplicity = 1

                         Standard orientation:
 ---------------------------------------------------------------------
 Center     Atomic      Atomic             Coordinates (Angstroms)
 Number     Number       Type             X           Y           Z
 ---------------------------------------------------------------------
      1          5           0        0.018538   -0.014494   -0.085985
      2          1           0       -0.966917   -0.671998    0.140582
      3          1           0        1.097325   -0.365288    0.157869
      4          1           0       -0.223097    1.109757    0.131477
 ---------------------------------------------------------------------

 SCF Done:  E(RM062X) =  -26.5817512479     A.U. after   11 cycles

 The electronic state is 1-A.
 Alpha  occ. eigenvalues --   -7.05680  -0.59430  -0.42252  -0.39691
 Alpha virt. eigenvalues --   -0.04797   0.08012   0.11149   0.11392   0.16862
 Alpha virt. eigenvalues --    0.18794   0.19835   0.20527   0.40407   0.41194
 Alpha virt. eigenvalues --    0.43820   0.46171   0.48623   0.64230   0.65705

 Mulliken charges:
               1
     1  B   -0.131427
     2  H    0.032955
     3  H    0.052011
     4  H    0.046461
 Sum of Mulliken charges =   0.00000

 Dipole moment (field-independent basis, Debye):
    X=              0.0900    Y=             -0.0194    Z=             -0.4881  Tot=              0.4967
 Quadrupole moment (field-independent basis, Debye-Ang):
   XX=             -9.1690   YY=             -9.5341   ZZ=             -6.9984
   XY=             -0.0662   XZ=             -0.0509   YZ=              0.0260

 Normal termination of Gaussian 16 at Wed Jun  5 22:34:25 2019.
