 Gaussian 16, Revision A.03,
 Gaussian 16:  ES64L-G16RevA.03 25-Dec-2016

 -----------------
 # M062X/def2TZVPP
 -----------------

 ----------------------
 tmpdir/M1_conf_0_3.gjf
 ----------------------
 Symbolic Z-matrix:
 Charge =  0 Multiplicity = 1

                         Standard orientation:
 ---------------------------------------------------------------------
 Center     Atomic      Atomic             Coordinates (Angstroms)
 Number     Number       Type             X           Y           Z
 ---------------------------------------------------------------------
      1          8           0       -0.000000    0.098140    0.000000
      2          1           0        0.800135   -0.340808    0.000000
      3          1           0       -0.800135   -0.444313   -0.000000
 ---------------------------------------------------------------------

 SCF Done:  E(RM062X) =  -76.4240081667     A.U. after   11 cycles

 The electronic state is 1-A'.
 Alpha  occ. eigenvalues --  -19.61314  -1.13308  -0.63615  -0.45178  -0.39773
 Alpha virt. eigenvalues --    0.05533   0.12192   0.42159   0.44147   0.45938
 Alpha virt. eigenvalues --    0.48194   0.57817   0.59663   0.70155   0.77859
 Alpha virt. eigenvalues --    0.86947   1.01797   1.21061   1.32231   1.72347

 Mulliken charges:
               1
     1  O   -0.453599
     2  H    0.209060
     3  H    0.244539
 Sum of Mulliken charges =  -0.00000

 Dipole moment (field-independent basis, Debye):
    X=              0.0207    Y=             -1.7660    Z=             -0.0000  Tot=              1.7661
 Quadrupole moment (field-independent basis, Debye-Ang):
   XX=             -3.8755   YY=             -6.5814   ZZ=             -7.4781
   XY=              0.1970   XZ=             -0.0000   YZ=             -0.0000

 Normal termination of Gaussian 16 at Wed Jun  5 22:34:23 2019.
