 Gaussian 16, Revision A.03,
 Gaussian 16:  ES64L-G16RevA.03 25-Dec-2016

 -----------------
 # M062X/def2TZVPP
 -----------------

 ----------------------
 tmpdir/M1_conf_0_2.gjf
 ----------------------
 Symbolic Z-matrix:
 Charge =  0 Multiplicity = 1

                         Standard orientation:
 ---------------------------------------------------------------------
 Center     Atomic      Atomic             Coordinates (Angstroms)
 Number     Number       Type             X           Y           Z
 ---------------------------------------------------------------------
      1          8           0       -0.000000    0.095262    0.000000
      2          1           0        0.801096   -0.325402    0.000000
      3          1           0       -0.801096   -0.436695   -0.000000
 ---------------------------------------------------------------------

 SCF Done:  E(RM062X) =  -76.4225081814     A.U. after   11 cycles

 The electronic state is 1-A'.
 Alpha  occ. eigenvalues --  -19.61146  -1.13506  -0.64174  -0.44982  -0.39798
 Alpha virt. eigenvalues --    0.05627   0.12215   0.42122   0.44376   0.46150
 Alpha virt. eigenvalues --    0.48171   0.57889   0.59697   0.70009   0.79109
 Alpha virt. eigenvalues --    0.87740   1.01623   1.21472   1.33192   1.71659

 Mulliken charges:
               1
     1  O   -0.449883
     2  H    0.205538
     3  H    0.244345
 Sum of Mulliken charges =   0.00000

 Dipole moment (field-independent basis, Debye):
    X=              0.0208    Y=             -1.7343    Z=             -0.0000  Tot=              1.7344
 Quadrupole moment (field-independent basis, Debye-Ang):
   XX=             -3.8346   YY=             -6.6132   ZZ=             -7.4657
   XY=              0.2149   XZ=             -0.0000   YZ=             -0.0000

 Normal termination of Gaussian 16 at Wed Jun  5 22:34:22 2019.
