 Gaussian 16, Revision A.03,
 Gaussian 16:  ES64L-G16RevA.03 25-Dec-2016

 -----------------
 # M062X/def2TZVPP
 -----------------

 -------------------
 tmpdir/M1_ref_3.gjf
 -------------------
 Symbolic Z-matrix:
 Charge =  0 Multiplicity = 1

                         Standard orientation:
 ---------------------------------------------------------------------
 Center     Atomic      Atomic             Coordinates (Angstroms)
 Number     Number       Type             X           Y           Z
 ---------------------------------------------------------------------
      1          8           0       -0.000000    0.092699    0.000000
      2          1           0        0.798521   -0.277711    0.000000
      3          1           0       -0.798521   -0.463879   -0.000000
 ---------------------------------------------------------------------

 SCF Done:  E(RM062X) =  -76.4175457733     A.U. after   11 cycles

 The electronic state is 1-A'.
 Alpha  occ. eigenvalues --  -19.60955  -1.13835  -0.64715  -0.44795  -0.39833
 Alpha virt. eigenvalues --    0.05658   0.12226   0.41472   0.44439   0.47054
 Alpha virt. eigenvalues --    0.48120   0.58067   0.59888   0.69863   0.80318
 Alpha virt. eigenvalues --    0.88550   1.01435   1.21649   1.34660   1.69937

 Mulliken charges:
               1
     1  O   -0.441245
     2  H    0.187601
     3  H    0.253644
 Sum of Mulliken charges =   0.00000

 Dipole moment (field-independent basis, Debye):
    X=              0.0326    Y=             -1.7064    Z=             -0.0000  Tot=              1.7067
 Quadrupole moment (field-independent basis, Debye-Ang):
   XX=             -3.8185   YY=             -6.6146   ZZ=             -7.4519
   XY=              0.3630   XZ=             -0.0000   YZ=              0.0000

 Normal termination of Gaussian 16 at Wed Jun  5 22:34:15 2019.
