 Gaussian 16, Revision A.03,
 Gaussian 16:  ES64L-G16RevA.03 25-Dec-2016

 -----------------
 # M062X/def2TZVPP
 -----------------

 -------------------
 tmpdir/M1_ref_1.gjf
 -------------------
 Symbolic Z-matrix:
 Charge =  0 Multiplicity = 1

                         Standard orientation:
 ---------------------------------------------------------------------
 Center     Atomic      Atomic             Coordinates (Angstroms)
 Number     Number       Type             X           Y           Z
 ---------------------------------------------------------------------
      1          6           0        0.004667   -0.000145   -0.002901
      2          1           0        0.467143    0.931011   -0.334159
      3          1           0        0.103498   -0.077966    1.077178
      4          1           0        0.528089   -0.838166   -0.467048
      5          1           0       -1.126735   -0.014009   -0.258568
 ---------------------------------------------------------------------

 SCF Done:  E(RM062X) =  -40.4986569237     A.U. after   10 cycles

 The electronic state is 1-A.
 Alpha  occ. eigenvalues --  -10.52404  -0.78015  -0.45705  -0.45528  -0.44449
 Alpha virt. eigenvalues --    0.08467   0.15309   0.16176   0.16286   0.23711
 Alpha virt. eigenvalues --    0.23715   0.24213   0.41634   0.48351   0.50817
 Alpha virt. eigenvalues --    0.51066   0.54471   0.55189   0.55666   0.90330

 Mulliken charges:
               1
     1  C   -0.496914
     2  H    0.128316
     3  H    0.129928
     4  H    0.128126
     5  H    0.110544
 Sum of Mulliken charges =  -0.00000

 Dipole moment (field-independent basis, Debye):
    X=              0.0463    Y=              0.0013    Z=              0.0289  Tot=              0.0546
 Quadrupole moment (field-independent basis, Debye-Ang):
   XX=             -8.4073   YY=             -8.5394   ZZ=             -8.5762
   XY=             -0.0023   XZ=             -0.0420   YZ=             -0.0006

 Normal termination of Gaussian 16 at Wed Jun  5 22:34:16 2019.
