 Gaussian 16, Revision A.03,
 Gaussian 16:  ES64L-G16RevA.03 25-Dec-2016

 -----------------
 # M062X/def2TZVPP
 -----------------

 -------------------
 tmpdir/M1_ref_2.gjf
 -------------------
 Symbolic Z-matrix:
 Charge =  0 Multiplicity = 1

                         Standard orientation:
 ---------------------------------------------------------------------
 Center     Atomic      Atomic             Coordinates (Angstroms)
 Number     Number       Type             X           Y           Z
 ---------------------------------------------------------------------
      1          8           0       -0.000000    0.091441   -0.000000
      2          1           0        0.803117   -0.278454    0.000000
      3          1           0       -0.803117   -0.453072    0.000000
 ---------------------------------------------------------------------

 SCF Done:  E(RM062X) =  -76.4178902923     A.U. after   11 cycles

 The electronic state is 1-A'.
 Alpha  occ. eigenvalues --  -19.60927  -1.13723  -0.64824  -0.44638  -0.39804
 Alpha virt. eigenvalues --    0.05671   0.12202   0.41391   0.44557   0.46979
 Alpha virt. eigenvalues --    0.48133   0.57978   0.59859   0.69710   0.80976
 Alpha virt. eigenvalues --    0.88893   1.01099   1.21794   1.34746   1.70059

 Mulliken charges:
               1
     1  O   -0.445812
     2  H    0.192339
     3  H    0.253473
 Sum of Mulliken charges =  -0.00000

 Dipole moment (field-independent basis, Debye):
    X=              0.0291    Y=             -1.6898    Z=              0.0000  Tot=              1.6901
 Quadrupole moment (field-independent basis, Debye-Ang):
   XX=             -3.7792   YY=             -6.6431   ZZ=             -7.4551
   XY=              0.3443   XZ=             -0.0000   YZ=              0.0000

 Normal termination of Gaussian 16 at Wed Jun  5 22:34:14 2019.
