 Gaussian 16, Revision A.03,
 Gaussian 16:  ES64L-G16RevA.03 25-Dec-2016

 -----------------
 # M062X/def2TZVPP
 -----------------

 -------------------
 tmpdir/M1_ref_4.gjf
 -------------------
 Symbolic Z-matrix:
 Charge =  0 Multiplicity = 1

                         Standard orientation:
 ---------------------------------------------------------------------
 Center     Atomic      Atomic             Coordinates (Angstroms)
 Number     Number       Type             X           Y           Z
 ---------------------------------------------------------------------
      1          6           0       -0.006408   -0.001028    0.000064
      2          1           0       -0.515239   -0.512576   -0.817179
      3          1           0       -0.508239   -0.255775    0.933489
      4          1           0       -0.055814    1.073531   -0.156640
      5          1           0        1.117742   -0.299009    0.039949
 ---------------------------------------------------------------------

 SCF Done:  E(RM062X) =  -40.4984429310     A.U. after   10 cycles

 The electronic state is 1-A.
 Alpha  occ. eigenvalues --  -10.52410  -0.78014  -0.45876  -0.45507  -0.44301
 Alpha virt. eigenvalues --    0.08465   0.15260   0.16188   0.16309   0.23695
 Alpha virt. eigenvalues --    0.23718   0.24228   0.41597   0.48202   0.50829
 Alpha virt. eigenvalues --    0.51217   0.54318   0.55266   0.55732   0.90409

 Mulliken charges:
               1
     1  C   -0.497217
     2  H    0.128707
     3  H    0.128765
     4  H    0.130236
     5  H    0.109509
 Sum of Mulliken charges =   0.00000

 Dipole moment (field-independent basis, Debye):
    X=             -0.0455    Y=              0.0257    Z=             -0.0031  Tot=              0.0524
 Quadrupole moment (field-independent basis, Debye-Ang):
   XX=             -8.4175   YY=             -8.5561   ZZ=             -8.5512
   XY=              0.0528   XZ=             -0.0072   YZ=              0.0016

 Normal termination of Gaussian 16 at Wed Jun  5 22:34:17 2019.
