 Gaussian 16, Revision A.03,
 Gaussian 16:  ES64L-G16RevA.03 25-Dec-2016

 -----------------
 # M062X/def2TZVPP
 -----------------

 -------------------
 tmpdir/M1_ref_5.gjf
 -------------------
 Symbolic Z-matrix:
 Charge =  0 Multiplicity = 1

                         Standard orientation:
 ---------------------------------------------------------------------
 Center     Atomic      Atomic             Coordinates (Angstroms)
 Number     Number       Type             X           Y           Z
 ---------------------------------------------------------------------
      1          5           0        0.002424   -0.005249   -0.004865
      2          1           0       -1.099564   -0.381414    0.008096
      3          1           0        0.898217   -0.700240    0.008308
      4          1           0        0.189225    1.107898    0.007923
 ---------------------------------------------------------------------

 SCF Done:  E(RM062X) =  -26.5923907543     A.U. after   10 cycles

 The electronic state is 1-A.
 Alpha  occ. eigenvalues --   -7.04277  -0.59929  -0.42336  -0.41650
 Alpha virt. eigenvalues --   -0.03544   0.07851   0.11109   0.11207   0.18256
 Alpha virt. eigenvalues --    0.18875   0.20366   0.20458   0.41500   0.41754
 Alpha virt. eigenvalues --    0.45210   0.46021   0.47959   0.65197   0.66913

 Mulliken charges:
               1
     1  B   -0.128134
     2  H    0.033509
     3  H    0.046173
     4  H    0.048452
 Sum of Mulliken charges =  -0.00000

 Dipole moment (field-independent basis, Debye):
    X=              0.0324    Y=             -0.0002    Z=             -0.0289  Tot=              0.0434
 Quadrupole moment (field-independent basis, Debye-Ang):
   XX=             -9.0806   YY=             -9.1806   ZZ=             -7.0118
   XY=             -0.0266   XZ=             -0.0009   YZ=              0.0003

 Normal termination of Gaussian 16 at Wed Jun  5 22:34:18 2019.
