 Gaussian 16, Revision A.03,
 Gaussian 16:  ES64L-G16RevA.03 25-Dec-2016

 -----------------
 # M062X/def2TZVPP
 -----------------

 -----------------------
 tmpdir/M2_conf_0_10.gjf
 -----------------------
 Symbolic Z-matrix:
 Charge =  0 Multiplicity = 1

                         Standard orientation:
 ---------------------------------------------------------------------
 Center     Atomic      Atomic             Coordinates (Angstroms)
 Number     Number       Type             X           Y           Z
 ---------------------------------------------------------------------
      1          6           0        1.238835   -0.178514    0.004419
      2          5           0       -0.139872    0.589881   -0.022268
      3          8           0       -1.146224   -0.321639    0.006200
      4          1           0        1.119726   -1.290229   -0.249276
      5          1           0        1.684178    0.004552    0.996885
      6          1           0        1.929273    0.287150   -0.706850
      7          1           0       -0.223000    1.720726   -0.021153
      8          1           0       -2.074039   -0.027407    0.015619
 ---------------------------------------------------------------------

 SCF Done:  E(RM062X) =  -141.225983838     A.U. after   12 cycles

 The electronic state is 1-A.
 Alpha  occ. eigenvalues --  -19.64143 -10.49933  -7.05080  -1.14496  -0.77479
 Alpha  occ. eigenvalues --   -0.63849  -0.54001  -0.46692  -0.45303  -0.42848
 Alpha  occ. eigenvalues --   -0.42299  -0.36104
 Alpha virt. eigenvalues --    0.03824   0.05149   0.07564   0.10687   0.13212
 Alpha virt. eigenvalues --    0.14886   0.16307   0.19342   0.20859   0.23436
 Alpha virt. eigenvalues --    0.25057   0.27348   0.30640   0.36506   0.39011

 Mulliken charges:
               1
     1  C   -0.392572
     2  B    0.159585
     3  O   -0.334435
     4  H    0.108690
     5  H    0.107246
     6  H    0.107468
     7  H    0.013011
     8  H    0.231007
 Sum of Mulliken charges =  -0.00000

 Dipole moment (field-independent basis, Debye):
    X=             -1.1751    Y=              0.9297    Z=              0.0036  Tot=              1.4983
 Quadrupole moment (field-independent basis, Debye-Ang):
   XX=            -16.1594   YY=            -21.0558   ZZ=            -19.3209
   XY=             -0.7470   XZ=              0.0336   YZ=              0.1439

 Normal termination of Gaussian 16 at Fri Sep 22 16:49:29 2023.
