 Gaussian 16, Revision A.03,
 Gaussian 16:  ES64L-G16RevA.03 25-Dec-2016

 -----------------
 # M062X/def2TZVPP
 -----------------

 -----------------------
 tmpdir/M2_conf_0_36.gjf
 -----------------------
 Symbolic Z-matrix:
 Charge =  0 Multiplicity = 1

                         Standard orientation:
 ---------------------------------------------------------------------
 Center     Atomic      Atomic             Coordinates (Angstroms)
 Number     Number       Type             X           Y           Z
 ---------------------------------------------------------------------
      1          8           0       -0.739268    0.106474    0.000274
      2          6           0        0.672383   -0.018823   -0.000013
      3          1           0        1.023873   -0.548119    0.885895
      4          1           0       -1.248051   -0.611781    0.002241
      5          1           0        1.013005   -0.563241   -0.880744
      6          1           0        1.091016    0.984287   -0.009509
 ---------------------------------------------------------------------

 SCF Done:  E(RM062X) =  -115.707688469     A.U. after   11 cycles

 The electronic state is 1-A.
 Alpha  occ. eigenvalues --  -19.60801 -10.57915  -1.14996  -0.79093  -0.59606
 Alpha  occ. eigenvalues --   -0.51546  -0.50569  -0.39946  -0.35366
 Alpha virt. eigenvalues --    0.06895   0.10674   0.15515   0.15781   0.17219
 Alpha virt. eigenvalues --    0.24542   0.25536   0.34627   0.39689   0.44214
 Alpha virt. eigenvalues --    0.47117   0.48227   0.52619   0.53339   0.54252

 Mulliken charges:
               1
     1  O   -0.344629
     2  C   -0.172614
     3  H    0.114047
     4  H    0.161155
     5  H    0.113957
     6  H    0.128085
 Sum of Mulliken charges =  -0.00000

 Dipole moment (field-independent basis, Debye):
    X=              0.6841    Y=             -1.3565    Z=              0.0023  Tot=              1.5192
 Quadrupole moment (field-independent basis, Debye-Ang):
   XX=            -12.1920   YY=            -12.5287   ZZ=            -13.7082
   XY=              2.2129   XZ=              0.0006   YZ=             -0.0031

 Normal termination of Gaussian 16 at Fri Sep 22 16:50:10 2023.
