 Gaussian 16, Revision A.03,
 Gaussian 16:  ES64L-G16RevA.03 25-Dec-2016

 -----------------
 # M062X/def2TZVPP
 -----------------

 -----------------------
 tmpdir/M2_conf_0_19.gjf
 -----------------------
 Symbolic Z-matrix:
 Charge =  0 Multiplicity = 1

                         Standard orientation:
 ---------------------------------------------------------------------
 Center     Atomic      Atomic             Coordinates (Angstroms)
 Number     Number       Type             X           Y           Z
 ---------------------------------------------------------------------
      1          1           0        0.699233   -0.734561   -0.444013
      2          6           0        0.000145   -0.006809    0.001500
      3          1           0       -0.099484    0.862348   -0.657373
      4          1           0       -1.055235   -0.423184    0.166605
      5          1           0        0.454618    0.336251    0.925782
 ---------------------------------------------------------------------

 SCF Done:  E(RM062X) =  -40.4987000099     A.U. after   10 cycles

 The electronic state is 1-A.
 Alpha  occ. eigenvalues --  -10.52411  -0.78007  -0.46057  -0.45096  -0.44480
 Alpha virt. eigenvalues --    0.08469   0.15428   0.16029   0.16268   0.23693
 Alpha virt. eigenvalues --    0.23798   0.24193   0.41457   0.48708   0.50327
 Alpha virt. eigenvalues --    0.51074   0.53850   0.55497   0.56240   0.89796

 Mulliken charges:
               1
     1  H    0.124109
     2  C   -0.494116
     3  H    0.126850
     4  H    0.114080
     5  H    0.129077
 Sum of Mulliken charges =  -0.00000

 Dipole moment (field-independent basis, Debye):
    X=              0.0374    Y=              0.0470    Z=             -0.0020  Tot=              0.0601
 Quadrupole moment (field-independent basis, Debye-Ang):
   XX=             -8.2919   YY=             -8.5869   ZZ=             -8.6472
   XY=             -0.0337   XZ=              0.0285   YZ=              0.0141

 Normal termination of Gaussian 16 at Fri Sep 22 16:49:28 2023.
