 Gaussian 16, Revision A.03,
 Gaussian 16:  ES64L-G16RevA.03 25-Dec-2016

 -----------------
 # M062X/def2TZVPP
 -----------------

 ----------------------
 tmpdir/M2_conf_0_7.gjf
 ----------------------
 Symbolic Z-matrix:
 Charge =  0 Multiplicity = 1

                         Standard orientation:
 ---------------------------------------------------------------------
 Center     Atomic      Atomic             Coordinates (Angstroms)
 Number     Number       Type             X           Y           Z
 ---------------------------------------------------------------------
      1          5           0        0.744437    0.026029   -0.006200
      2          8           0       -0.644154   -0.117355    0.002266
      3          1           0        1.281123    1.059304    0.013011
      4          1           0        1.378427   -0.907819    0.006871
      5          1           0       -1.228498    0.657209   -0.007015
 ---------------------------------------------------------------------

 SCF Done:  E(RM062X) =  -101.902734234     A.U. after   12 cycles

 The electronic state is 1-A.
 Alpha  occ. eigenvalues --  -19.64794  -7.06235  -1.14048  -0.65473  -0.53545
 Alpha  occ. eigenvalues --   -0.48021  -0.44022  -0.38080
 Alpha virt. eigenvalues --    0.01327   0.05114   0.09260   0.11757   0.14987
 Alpha virt. eigenvalues --    0.17963   0.19162   0.23434   0.35011   0.39641
 Alpha virt. eigenvalues --    0.40267   0.46595   0.51232   0.51373   0.52178

 Mulliken charges:
               1
     1  B    0.112082
     2  O   -0.370157
     3  H   -0.004205
     4  H    0.021797
     5  H    0.240483
 Sum of Mulliken charges =  -0.00000

 Dipole moment (field-independent basis, Debye):
    X=             -0.4787    Y=              1.3773    Z=             -0.0448  Tot=              1.4588
 Quadrupole moment (field-independent basis, Debye-Ang):
   XX=            -12.3260   YY=            -13.3383   ZZ=            -12.7027
   XY=             -2.1825   XZ=             -0.0011   YZ=             -0.0164

 Normal termination of Gaussian 16 at Fri Sep 22 16:49:07 2023.
