 Gaussian 16, Revision A.03,
 Gaussian 16:  ES64L-G16RevA.03 25-Dec-2016

 -----------------
 # M062X/def2TZVPP
 -----------------

 ----------------------
 tmpdir/M2_conf_0_3.gjf
 ----------------------
 Symbolic Z-matrix:
 Charge =  0 Multiplicity = 1

                         Standard orientation:
 ---------------------------------------------------------------------
 Center     Atomic      Atomic             Coordinates (Angstroms)
 Number     Number       Type             X           Y           Z
 ---------------------------------------------------------------------
      1          1           0       -0.418404    0.863993    0.222222
      2          7           0       -0.001222   -0.000397   -0.095125
      3          1           0       -0.540807   -0.792107    0.223516
      4          1           0        0.967765   -0.069110    0.220140
 ---------------------------------------------------------------------

 SCF Done:  E(RM062X) =  -56.5511563196     A.U. after   12 cycles

 The electronic state is 1-A.
 Alpha  occ. eigenvalues --  -14.71877  -0.94682  -0.53492  -0.53294  -0.32812
 Alpha virt. eigenvalues --    0.06006   0.13995   0.14096   0.34473   0.34524
 Alpha virt. eigenvalues --    0.39209   0.46683   0.49985   0.53044   0.53360
 Alpha virt. eigenvalues --    0.62467   0.62639   0.95773   0.96616   1.04195

 Mulliken charges:
               1
     1  H    0.161455
     2  N   -0.488867
     3  H    0.161524
     4  H    0.165888
 Sum of Mulliken charges =  -0.00000

 Dipole moment (field-independent basis, Debye):
    X=              0.0082    Y=              0.0034    Z=              1.4083  Tot=              1.4084
 Quadrupole moment (field-independent basis, Debye-Ang):
   XX=             -6.0705   YY=             -6.1071   ZZ=             -9.3806
   XY=              0.0027   XZ=             -0.0095   YZ=             -0.0013

 Normal termination of Gaussian 16 at Fri Sep 22 16:48:55 2023.
