 Gaussian 16, Revision A.03,
 Gaussian 16:  ES64L-G16RevA.03 25-Dec-2016

 -----------------
 # M062X/def2TZVPP
 -----------------

 -----------------------
 tmpdir/M2_conf_0_15.gjf
 -----------------------
 Symbolic Z-matrix:
 Charge =  0 Multiplicity = 1

                         Standard orientation:
 ---------------------------------------------------------------------
 Center     Atomic      Atomic             Coordinates (Angstroms)
 Number     Number       Type             X           Y           Z
 ---------------------------------------------------------------------
      1          7           0       -0.746049   -0.000599   -0.118789
      2          6           0        0.706865    0.005927    0.010848
      3          1           0        1.021953   -0.422036    0.977485
      4          1           0       -1.144961    0.826201    0.304526
      5          1           0       -1.162669   -0.811591    0.315049
      6          1           0        1.120686    1.006613   -0.065978
      7          1           0        1.146145   -0.630557   -0.764650
 ---------------------------------------------------------------------

 SCF Done:  E(RM062X) =  -95.8434030714     A.U. after   11 cycles

 The electronic state is 1-A.
 Alpha  occ. eigenvalues --  -14.71998 -10.55006  -0.97781  -0.74658  -0.56462
 Alpha  occ. eigenvalues --   -0.50353  -0.46902  -0.43417  -0.29966
 Alpha virt. eigenvalues --    0.06392   0.11087   0.12099   0.16022   0.17078
 Alpha virt. eigenvalues --    0.19685   0.25647   0.26914   0.32286   0.39256
 Alpha virt. eigenvalues --    0.40581   0.41815   0.45397   0.49109   0.50507

 Mulliken charges:
               1
     1  N   -0.380935
     2  C   -0.237745
     3  H    0.100138
     4  H    0.140237
     5  H    0.143487
     6  H    0.115765
     7  H    0.119052
 Sum of Mulliken charges =  -0.00000

 Dipole moment (field-independent basis, Debye):
    X=              0.2058    Y=              0.0475    Z=              1.3053  Tot=              1.3222
 Quadrupole moment (field-independent basis, Debye-Ang):
   XX=            -13.9068   YY=            -12.5345   ZZ=            -15.5621
   XY=              0.1698   XZ=             -1.9350   YZ=              0.0356

 Normal termination of Gaussian 16 at Fri Sep 22 16:49:22 2023.
