 Gaussian 16, Revision A.03,
 Gaussian 16:  ES64L-G16RevA.03 25-Dec-2016

 -----------------
 # M062X/def2TZVPP
 -----------------

 ----------------------
 tmpdir/M2_conf_0_8.gjf
 ----------------------
 Symbolic Z-matrix:
 Charge =  0 Multiplicity = 1

                         Standard orientation:
 ---------------------------------------------------------------------
 Center     Atomic      Atomic             Coordinates (Angstroms)
 Number     Number       Type             X           Y           Z
 ---------------------------------------------------------------------
      1          5           0        0.755137    0.040105   -0.005819
      2          8           0       -0.642646   -0.129097    0.000233
      3          1           0        1.427483   -0.910505    0.013049
      4          1           0        1.168370    1.095920    0.009165
      5          1           0       -1.230366    0.646834    0.005015
 ---------------------------------------------------------------------

 SCF Done:  E(RM062X) =  -101.902571909     A.U. after   12 cycles

 The electronic state is 1-A.
 Alpha  occ. eigenvalues --  -19.64544  -7.06496  -1.13554  -0.64909  -0.53811
 Alpha  occ. eigenvalues --   -0.47421  -0.43614  -0.38479
 Alpha virt. eigenvalues --    0.01178   0.05158   0.09329   0.11626   0.15104
 Alpha virt. eigenvalues --    0.17930   0.18445   0.23789   0.34818   0.40030
 Alpha virt. eigenvalues --    0.40153   0.45685   0.51352   0.51738   0.52218

 Mulliken charges:
               1
     1  B    0.116827
     2  O   -0.376618
     3  H    0.008088
     4  H    0.010821
     5  H    0.240881
 Sum of Mulliken charges =  -0.00000

 Dipole moment (field-independent basis, Debye):
    X=             -0.3877    Y=              1.4090    Z=             -0.0201  Tot=              1.4615
 Quadrupole moment (field-independent basis, Debye-Ang):
   XX=            -12.3041   YY=            -13.2998   ZZ=            -12.7428
   XY=             -2.1691   XZ=             -0.0403   YZ=              0.0083

 Normal termination of Gaussian 16 at Fri Sep 22 16:49:13 2023.
