 Gaussian 16, Revision A.03,
 Gaussian 16:  ES64L-G16RevA.03 25-Dec-2016

 -----------------
 # M062X/def2TZVPP
 -----------------

 ----------------------
 tmpdir/M2_conf_0_5.gjf
 ----------------------
 Symbolic Z-matrix:
 Charge =  0 Multiplicity = 1

                         Standard orientation:
 ---------------------------------------------------------------------
 Center     Atomic      Atomic             Coordinates (Angstroms)
 Number     Number       Type             X           Y           Z
 ---------------------------------------------------------------------
      1          1           0       -1.232874   -0.774448    0.328084
      2          7           0       -0.747598   -0.006266   -0.112253
      3          6           0        0.705981    0.001728    0.009600
      4          1           0       -1.103229    0.857435    0.274361
      5          1           0        1.121238    0.998400   -0.103239
      6          1           0        1.072130   -0.386337    0.975088
      7          1           0        1.140035   -0.661556   -0.746122
 ---------------------------------------------------------------------

 SCF Done:  E(RM062X) =  -95.8426356280     A.U. after   11 cycles

 The electronic state is 1-A.
 Alpha  occ. eigenvalues --  -14.72056 -10.55036  -0.97675  -0.74803  -0.56421
 Alpha  occ. eigenvalues --   -0.50606  -0.46695  -0.43332  -0.29915
 Alpha virt. eigenvalues --    0.06478   0.10926   0.12143   0.16082   0.17190
 Alpha virt. eigenvalues --    0.19775   0.25807   0.26829   0.32276   0.39184
 Alpha virt. eigenvalues --    0.41222   0.41668   0.44549   0.49280   0.50389

 Mulliken charges:
               1
     1  H    0.148447
     2  N   -0.384391
     3  C   -0.238261
     4  H    0.137971
     5  H    0.115936
     6  H    0.102762
     7  H    0.117536
 Sum of Mulliken charges =  -0.00000

 Dipole moment (field-independent basis, Debye):
    X=              0.1677    Y=              0.1082    Z=              1.2637  Tot=              1.2793
 Quadrupole moment (field-independent basis, Debye-Ang):
   XX=            -13.7207   YY=            -12.5526   ZZ=            -15.6340
   XY=              0.2302   XZ=             -1.8553   YZ=              0.0069

 Normal termination of Gaussian 16 at Fri Sep 22 16:49:14 2023.
