 Gaussian 16, Revision A.03,
 Gaussian 16:  ES64L-G16RevA.03 25-Dec-2016

 -----------------
 # M062X/def2TZVPP
 -----------------

 ----------------------
 tmpdir/M2_conf_0_9.gjf
 ----------------------
 Symbolic Z-matrix:
 Charge =  0 Multiplicity = 1

                         Standard orientation:
 ---------------------------------------------------------------------
 Center     Atomic      Atomic             Coordinates (Angstroms)
 Number     Number       Type             X           Y           Z
 ---------------------------------------------------------------------
      1          6           0       -1.289260   -0.171971    0.002570
      2          5           0        0.121693    0.535946   -0.003921
      3          8           0        1.307562   -0.138412   -0.002106
      4          1           0       -2.139446    0.555082   -0.248511
      5          1           0       -1.396188   -0.655854    0.988094
      6          1           0       -1.286969   -0.995562   -0.719340
      7          1           0        0.155902    1.663732    0.029421
      8          1           0        1.333296   -1.108006   -0.028628
 ---------------------------------------------------------------------

 SCF Done:  E(RM062X) =  -141.227457398     A.U. after   12 cycles

 The electronic state is 1-A.
 Alpha  occ. eigenvalues --  -19.64104 -10.51337  -7.05163  -1.14341  -0.78362
 Alpha  occ. eigenvalues --   -0.65095  -0.50328  -0.49659  -0.47418  -0.43265
 Alpha  occ. eigenvalues --   -0.42694  -0.35911
 Alpha virt. eigenvalues --    0.03730   0.04747   0.08222   0.10699   0.12404
 Alpha virt. eigenvalues --    0.13789   0.17086   0.19175   0.21729   0.22005
 Alpha virt. eigenvalues --    0.26457   0.27022   0.30008   0.35351   0.36938

 Mulliken charges:
               1
     1  C   -0.402540
     2  B    0.147792
     3  O   -0.348536
     4  H    0.113130
     5  H    0.122525
     6  H    0.109773
     7  H    0.026858
     8  H    0.230999
 Sum of Mulliken charges =  -0.00000

 Dipole moment (field-independent basis, Debye):
    X=             -0.5923    Y=             -1.5619    Z=             -0.0432  Tot=              1.6710
 Quadrupole moment (field-independent basis, Debye-Ang):
   XX=            -22.1763   YY=            -18.1469   ZZ=            -19.2593
   XY=             -2.5560   XZ=             -0.0118   YZ=             -0.1017

 Normal termination of Gaussian 16 at Fri Sep 22 16:49:11 2023.
