 Gaussian 16, Revision A.03,
 Gaussian 16:  ES64L-G16RevA.03 25-Dec-2016

 -----------------
 # M062X/def2TZVPP
 -----------------

 -----------------------
 tmpdir/M2_conf_0_17.gjf
 -----------------------
 Symbolic Z-matrix:
 Charge =  0 Multiplicity = 1

                         Standard orientation:
 ---------------------------------------------------------------------
 Center     Atomic      Atomic             Coordinates (Angstroms)
 Number     Number       Type             X           Y           Z
 ---------------------------------------------------------------------
      1          5           0        0.893461    0.000204   -0.002368
      2          6           0       -0.685132    0.002841    0.001726
      3          1           0       -1.133436   -0.380211    0.933990
      4          1           0        1.514871   -0.948140   -0.017399
      5          1           0        1.431445    0.991167    0.050162
      6          1           0       -1.116826    1.039178   -0.230882
      7          1           0       -1.052570   -0.720057   -0.734384
 ---------------------------------------------------------------------

 SCF Done:  E(RM062X) =  -65.9165192219     A.U. after   11 cycles

 The electronic state is 1-A.
 Alpha  occ. eigenvalues --  -10.51542  -7.03498  -0.78407  -0.56677  -0.47829
 Alpha  occ. eigenvalues --   -0.45429  -0.39305  -0.38633
 Alpha virt. eigenvalues --   -0.01511   0.06137   0.09746   0.10516   0.12915
 Alpha virt. eigenvalues --    0.15888   0.17742   0.19938   0.22317   0.23103
 Alpha virt. eigenvalues --    0.24448   0.27021   0.31234   0.36516   0.42940

 Mulliken charges:
               1
     1  B   -0.066542
     2  C   -0.382965
     3  H    0.126799
     4  H    0.044990
     5  H    0.048894
     6  H    0.107736
     7  H    0.121089
 Sum of Mulliken charges =  -0.00000

 Dipole moment (field-independent basis, Debye):
    X=             -0.4210    Y=             -0.1320    Z=             -0.0085  Tot=              0.4413
 Quadrupole moment (field-independent basis, Debye-Ang):
   XX=            -16.2198   YY=            -15.5056   ZZ=            -13.7956
   XY=              0.1180   XZ=             -0.1950   YZ=             -0.1400

 Normal termination of Gaussian 16 at Fri Sep 22 16:49:42 2023.
