 Gaussian 16, Revision A.03,
 Gaussian 16:  ES64L-G16RevA.03 25-Dec-2016

 -----------------
 # M062X/def2TZVPP
 -----------------

 -----------------------
 tmpdir/M2_conf_0_29.gjf
 -----------------------
 Symbolic Z-matrix:
 Charge =  0 Multiplicity = 1

                         Standard orientation:
 ---------------------------------------------------------------------
 Center     Atomic      Atomic             Coordinates (Angstroms)
 Number     Number       Type             X           Y           Z
 ---------------------------------------------------------------------
      1          8           0        0.737039    0.106513    0.000120
      2          6           0       -0.670038   -0.020521    0.000062
      3          1           0       -1.014437   -0.704088   -0.778218
      4          1           0        1.260363   -0.606193   -0.001433
      5          1           0       -1.028294   -0.382024    0.965303
      6          1           0       -1.093711    0.963326   -0.186986
 ---------------------------------------------------------------------

 SCF Done:  E(RM062X) =  -115.708042043     A.U. after   11 cycles

 The electronic state is 1-A.
 Alpha  occ. eigenvalues --  -19.60832 -10.57914  -1.14976  -0.79082  -0.59637
 Alpha  occ. eigenvalues --   -0.51597  -0.50589  -0.39742  -0.35344
 Alpha virt. eigenvalues --    0.06894   0.10637   0.15466   0.15904   0.17262
 Alpha virt. eigenvalues --    0.24517   0.25596   0.34717   0.39787   0.44117
 Alpha virt. eigenvalues --    0.47326   0.48237   0.52379   0.53628   0.54204

 Mulliken charges:
               1
     1  O   -0.348173
     2  C   -0.169155
     3  H    0.111618
     4  H    0.165491
     5  H    0.113229
     6  H    0.126990
 Sum of Mulliken charges =   0.00000

 Dipole moment (field-independent basis, Debye):
    X=             -0.6449    Y=             -1.3524    Z=             -0.0214  Tot=              1.4985
 Quadrupole moment (field-independent basis, Debye-Ang):
   XX=            -12.1181   YY=            -12.5910   ZZ=            -13.6981
   XY=             -2.2112   XZ=              0.0391   YZ=             -0.0153

 Normal termination of Gaussian 16 at Fri Sep 22 16:50:07 2023.
