 Gaussian 16, Revision A.03,
 Gaussian 16:  ES64L-G16RevA.03 25-Dec-2016

 -----------------
 # M062X/def2TZVPP
 -----------------

 -----------------------
 tmpdir/M2_conf_0_16.gjf
 -----------------------
 Symbolic Z-matrix:
 Charge =  0 Multiplicity = 1

                         Standard orientation:
 ---------------------------------------------------------------------
 Center     Atomic      Atomic             Coordinates (Angstroms)
 Number     Number       Type             X           Y           Z
 ---------------------------------------------------------------------
      1          7           0       -0.747345   -0.003239   -0.114527
      2          6           0        0.706052    0.006008    0.009395
      3          1           0        1.110759   -0.655453   -0.764005
      4          1           0       -1.144548    0.833263    0.290947
      5          1           0       -1.162391   -0.803908    0.339516
      6          1           0        1.119692    1.004550   -0.092266
      7          1           0        1.071590   -0.391827    0.971128
 ---------------------------------------------------------------------

 SCF Done:  E(RM062X) =  -95.8434384194     A.U. after   11 cycles

 The electronic state is 1-A.
 Alpha  occ. eigenvalues --  -14.72067 -10.54984  -0.97796  -0.74689  -0.56488
 Alpha  occ. eigenvalues --   -0.50644  -0.46470  -0.43415  -0.30085
 Alpha virt. eigenvalues --    0.06425   0.11071   0.12119   0.15945   0.17107
 Alpha virt. eigenvalues --    0.19821   0.25740   0.26878   0.32134   0.39407
 Alpha virt. eigenvalues --    0.40982   0.41562   0.45136   0.49028   0.50369

 Mulliken charges:
               1
     1  N   -0.380387
     2  C   -0.240500
     3  H    0.119184
     4  H    0.139932
     5  H    0.143923
     6  H    0.115524
     7  H    0.102325
 Sum of Mulliken charges =  -0.00000

 Dipole moment (field-independent basis, Debye):
    X=              0.1984    Y=              0.0767    Z=              1.3001  Tot=              1.3174
 Quadrupole moment (field-independent basis, Debye-Ang):
   XX=            -13.9065   YY=            -12.5353   ZZ=            -15.5561
   XY=              0.1304   XZ=             -1.8635   YZ=             -0.0005

 Normal termination of Gaussian 16 at Fri Sep 22 16:49:33 2023.
