 Gaussian 16, Revision A.03,
 Gaussian 16:  ES64L-G16RevA.03 25-Dec-2016

 -----------------
 # M062X/def2TZVPP
 -----------------

 -----------------------
 tmpdir/M2_conf_0_20.gjf
 -----------------------
 Symbolic Z-matrix:
 Charge =  0 Multiplicity = 1

                         Standard orientation:
 ---------------------------------------------------------------------
 Center     Atomic      Atomic             Coordinates (Angstroms)
 Number     Number       Type             X           Y           Z
 ---------------------------------------------------------------------
      1          8           0        0.730191    0.107111   -0.000022
      2          6           0       -0.664044   -0.020900    0.000079
      3          1           0        1.254597   -0.604792    0.001702
      4          1           0       -1.022030   -0.378706    0.966791
      5          1           0       -1.089153    0.961435   -0.191578
      6          1           0       -1.000679   -0.709428   -0.777214
 ---------------------------------------------------------------------

 SCF Done:  E(RM062X) =  -115.708117207     A.U. after   11 cycles

 The electronic state is 1-A.
 Alpha  occ. eigenvalues --  -19.60813 -10.57782  -1.15358  -0.79089  -0.59818
 Alpha  occ. eigenvalues --   -0.51789  -0.50783  -0.39635  -0.35249
 Alpha virt. eigenvalues --    0.06877   0.10747   0.15515   0.15940   0.17342
 Alpha virt. eigenvalues --    0.24499   0.25563   0.35194   0.40077   0.43992
 Alpha virt. eigenvalues --    0.47373   0.48190   0.52475   0.53714   0.54321

 Mulliken charges:
               1
     1  O   -0.345559
     2  C   -0.165176
     3  H    0.165622
     4  H    0.110864
     5  H    0.125175
     6  H    0.109074
 Sum of Mulliken charges =  -0.00000

 Dipole moment (field-independent basis, Debye):
    X=             -0.5950    Y=             -1.3495    Z=             -0.0165  Tot=              1.4749
 Quadrupole moment (field-independent basis, Debye-Ang):
   XX=            -12.1591   YY=            -12.5906   ZZ=            -13.6905
   XY=             -2.2112   XZ=              0.0455   YZ=             -0.0184

 Normal termination of Gaussian 16 at Fri Sep 22 16:49:35 2023.
