 Gaussian 16, Revision A.03,
 Gaussian 16:  ES64L-G16RevA.03 25-Dec-2016

 -----------------
 # M062X/def2TZVPP
 -----------------

 -----------------------
 tmpdir/M2_conf_0_21.gjf
 -----------------------
 Symbolic Z-matrix:
 Charge =  0 Multiplicity = 1

                         Standard orientation:
 ---------------------------------------------------------------------
 Center     Atomic      Atomic             Coordinates (Angstroms)
 Number     Number       Type             X           Y           Z
 ---------------------------------------------------------------------
      1          5           0       -1.279047    0.218431    0.006641
      2          8           0       -0.129097   -0.515426   -0.003851
      3          6           0        1.109626    0.163941    0.001444
      4          1           0       -1.295423    1.382564   -0.017706
      5          1           0       -2.264565   -0.331937    0.000757
      6          1           0        1.296108    0.625885    0.972296
      7          1           0        1.890976   -0.565642   -0.197625
      8          1           0        1.143156    0.936737   -0.768786
 ---------------------------------------------------------------------

 SCF Done:  E(RM062X) =  -141.195428819     A.U. after   12 cycles

 The electronic state is 1-A.
 Alpha  occ. eigenvalues --  -19.64845 -10.58857  -7.05011  -1.16236  -0.79515
 Alpha  occ. eigenvalues --   -0.61834  -0.54437  -0.53898  -0.50935  -0.42609
 Alpha  occ. eigenvalues --   -0.39177  -0.37440
 Alpha virt. eigenvalues --    0.01170   0.06861   0.09731   0.10563   0.12718
 Alpha virt. eigenvalues --    0.15307   0.16152   0.18322   0.18973   0.20460
 Alpha virt. eigenvalues --    0.23910   0.25564   0.29779   0.36101   0.37257

 Mulliken charges:
               1
     1  B    0.087829
     2  O   -0.296481
     3  C   -0.199335
     4  H    0.001375
     5  H    0.022700
     6  H    0.129676
     7  H    0.134772
     8  H    0.119464
 Sum of Mulliken charges =  -0.00000

 Dipole moment (field-independent basis, Debye):
    X=              1.1894    Y=              0.9300    Z=              0.0375  Tot=              1.5102
 Quadrupole moment (field-independent basis, Debye-Ang):
   XX=            -19.0899   YY=            -21.3893   ZZ=            -18.8247
   XY=             -0.0491   XZ=             -0.0466   YZ=              0.0290

 Normal termination of Gaussian 16 at Fri Sep 22 16:49:54 2023.
