 Gaussian 16, Revision A.03,
 Gaussian 16:  ES64L-G16RevA.03 25-Dec-2016

 -----------------
 # M062X/def2TZVPP
 -----------------

 ----------------------
 tmpdir/M2_conf_0_2.gjf
 ----------------------
 Symbolic Z-matrix:
 Charge =  0 Multiplicity = 1

                         Standard orientation:
 ---------------------------------------------------------------------
 Center     Atomic      Atomic             Coordinates (Angstroms)
 Number     Number       Type             X           Y           Z
 ---------------------------------------------------------------------
      1          7           0       -0.763359   -0.003219   -0.115634
      2          6           0        0.718452    0.006324    0.009313
      3          1           0       -1.161015    0.828220    0.299701
      4          1           0       -1.177127   -0.809338    0.329853
      5          1           0        1.130956    1.006390   -0.081431
      6          1           0        1.085370   -0.401845    0.966178
      7          1           0        1.154614   -0.638837   -0.760743
 ---------------------------------------------------------------------

 SCF Done:  E(RM062X) =  -95.8430850429     A.U. after   11 cycles

 The electronic state is 1-A.
 Alpha  occ. eigenvalues --  -14.72265 -10.55259  -0.97089  -0.74943  -0.56104
 Alpha  occ. eigenvalues --   -0.50086  -0.46333  -0.43694  -0.30242
 Alpha virt. eigenvalues --    0.06438   0.10818   0.12267   0.16001   0.17052
 Alpha virt. eigenvalues --    0.19651   0.25872   0.26871   0.31468   0.39143
 Alpha virt. eigenvalues --    0.41006   0.41380   0.44818   0.49091   0.50321

 Mulliken charges:
               1
     1  N   -0.383583
     2  C   -0.248536
     3  H    0.140859
     4  H    0.144047
     5  H    0.118706
     6  H    0.106691
     7  H    0.121817
 Sum of Mulliken charges =  -0.00000

 Dipole moment (field-independent basis, Debye):
    X=              0.2577    Y=              0.0579    Z=              1.3077  Tot=              1.3341
 Quadrupole moment (field-independent basis, Debye-Ang):
   XX=            -13.7626   YY=            -12.5644   ZZ=            -15.6091
   XY=              0.1120   XZ=             -1.9034   YZ=              0.0124

 Normal termination of Gaussian 16 at Fri Sep 22 16:49:09 2023.
