 Gaussian 16, Revision A.03,
 Gaussian 16:  ES64L-G16RevA.03 25-Dec-2016

 -----------------
 # M062X/def2TZVPP
 -----------------

 -----------------------
 tmpdir/M2_conf_0_32.gjf
 -----------------------
 Symbolic Z-matrix:
 Charge =  0 Multiplicity = 1

                         Standard orientation:
 ---------------------------------------------------------------------
 Center     Atomic      Atomic             Coordinates (Angstroms)
 Number     Number       Type             X           Y           Z
 ---------------------------------------------------------------------
      1          1           0        0.126930   -0.285154    1.037839
      2          6           0        0.004254    0.001192   -0.003984
      3          1           0        0.542931   -0.719595   -0.621952
      4          1           0       -1.131371    0.005156   -0.240497
      5          1           0        0.435984    0.992442   -0.151486
 ---------------------------------------------------------------------

 SCF Done:  E(RM062X) =  -40.4986027013     A.U. after   10 cycles

 The electronic state is 1-A.
 Alpha  occ. eigenvalues --  -10.52403  -0.78018  -0.45642  -0.45570  -0.44464
 Alpha virt. eigenvalues --    0.08465   0.15309   0.16180   0.16280   0.23707
 Alpha virt. eigenvalues --    0.23717   0.24215   0.41642   0.48349   0.50843
 Alpha virt. eigenvalues --    0.51013   0.54548   0.55089   0.55715   0.90252

 Mulliken charges:
               1
     1  H    0.129835
     2  C   -0.496744
     3  H    0.128006
     4  H    0.110595
     5  H    0.128309
 Sum of Mulliken charges =  -0.00000

 Dipole moment (field-independent basis, Debye):
    X=              0.0475    Y=             -0.0050    Z=              0.0315  Tot=              0.0572
 Quadrupole moment (field-independent basis, Debye-Ang):
   XX=             -8.4017   YY=             -8.5254   ZZ=             -8.5958
   XY=              0.0012   XZ=             -0.0392   YZ=              0.0001

 Normal termination of Gaussian 16 at Fri Sep 22 16:50:03 2023.
