 Gaussian 16, Revision A.03,
 Gaussian 16:  ES64L-G16RevA.03 25-Dec-2016

 -----------------
 # M062X/def2TZVPP
 -----------------

 -----------------------
 tmpdir/M2_conf_0_11.gjf
 -----------------------
 Symbolic Z-matrix:
 Charge =  0 Multiplicity = 1

                         Standard orientation:
 ---------------------------------------------------------------------
 Center     Atomic      Atomic             Coordinates (Angstroms)
 Number     Number       Type             X           Y           Z
 ---------------------------------------------------------------------
      1          8           0       -1.100156   -0.299302    0.001829
      2          5           0       -0.004617    0.513560   -0.007788
      3          8           0        1.204342   -0.105130    0.001075
      4          1           0       -1.997929    0.068757   -0.002278
      5          1           0       -0.070123    1.675970    0.016279
      6          1           0        1.257647   -1.077070    0.001713
 ---------------------------------------------------------------------

 SCF Done:  E(RM062X) =  -177.215093792     A.U. after   12 cycles

 The electronic state is 1-A.
 Alpha  occ. eigenvalues --  -19.63753 -19.62935  -7.07952  -1.15953  -1.12168
 Alpha  occ. eigenvalues --   -0.66483  -0.62435  -0.52301  -0.47165  -0.44289
 Alpha  occ. eigenvalues --   -0.41002  -0.40284
 Alpha virt. eigenvalues --    0.05237   0.06417   0.07199   0.11073   0.14745
 Alpha virt. eigenvalues --    0.15758   0.17600   0.23656   0.34508   0.38150
 Alpha virt. eigenvalues --    0.40591   0.44636   0.46104   0.49734   0.50813

 Mulliken charges:
               1
     1  O   -0.370277
     2  B    0.282834
     3  O   -0.378649
     4  H    0.242907
     5  H   -0.018449
     6  H    0.241633
 Sum of Mulliken charges =   0.00000

 Dipole moment (field-independent basis, Debye):
    X=             -1.5474    Y=             -0.3470    Z=             -0.0377  Tot=              1.5863
 Quadrupole moment (field-independent basis, Debye-Ang):
   XX=            -15.6211   YY=            -16.9012   ZZ=            -18.1330
   XY=             -3.6281   XZ=              0.0161   YZ=             -0.0244

 Normal termination of Gaussian 16 at Fri Sep 22 16:49:40 2023.
