 Gaussian 16, Revision A.03,
 Gaussian 16:  ES64L-G16RevA.03 25-Dec-2016

 -----------------
 # M062X/def2TZVPP
 -----------------

 ----------------------
 tmpdir/M2_conf_0_6.gjf
 ----------------------
 Symbolic Z-matrix:
 Charge =  0 Multiplicity = 1

                         Standard orientation:
 ---------------------------------------------------------------------
 Center     Atomic      Atomic             Coordinates (Angstroms)
 Number     Number       Type             X           Y           Z
 ---------------------------------------------------------------------
      1          5           0        0.916788    0.003830   -0.010405
      2          6           0       -0.718156    0.002236    0.003026
      3          1           0        1.540476   -0.942498   -0.045193
      4          1           0        1.452577    0.995137    0.056113
      5          1           0       -1.153748    1.041284   -0.209342
      6          1           0       -1.026389   -0.417466    0.975485
      7          1           0       -1.087925   -0.709019   -0.743198
 ---------------------------------------------------------------------

 SCF Done:  E(RM062X) =  -65.9145307652     A.U. after   11 cycles

 The electronic state is 1-A.
 Alpha  occ. eigenvalues --  -10.51884  -7.04096  -0.77767  -0.56634  -0.47548
 Alpha  occ. eigenvalues --   -0.45836  -0.39252  -0.37943
 Alpha virt. eigenvalues --   -0.01628   0.06131   0.09602   0.10703   0.13246
 Alpha virt. eigenvalues --    0.15769   0.17951   0.19752   0.22037   0.22813
 Alpha virt. eigenvalues --    0.23668   0.26779   0.31138   0.35611   0.43116

 Mulliken charges:
               1
     1  B   -0.056433
     2  C   -0.392110
     3  H    0.048698
     4  H    0.051999
     5  H    0.108736
     6  H    0.116942
     7  H    0.122166
 Sum of Mulliken charges =  -0.00000

 Dipole moment (field-independent basis, Debye):
    X=             -0.2534    Y=             -0.1224    Z=              0.0035  Tot=              0.2815
 Quadrupole moment (field-independent basis, Debye-Ang):
   XX=            -16.4173   YY=            -15.5115   ZZ=            -13.7333
   XY=              0.0236   XZ=             -0.0529   YZ=             -0.2351

 Normal termination of Gaussian 16 at Fri Sep 22 16:49:00 2023.
