 Gaussian 16, Revision A.03,
 Gaussian 16:  ES64L-G16RevA.03 25-Dec-2016

 -----------------
 # M062X/def2TZVPP
 -----------------

 -----------------------
 tmpdir/M2_conf_0_34.gjf
 -----------------------
 Symbolic Z-matrix:
 Charge =  0 Multiplicity = 1

                         Standard orientation:
 ---------------------------------------------------------------------
 Center     Atomic      Atomic             Coordinates (Angstroms)
 Number     Number       Type             X           Y           Z
 ---------------------------------------------------------------------
      1          6           0        0.006154   -0.000138   -0.001006
      2          1           0        0.535320    0.942462    0.178013
      3          1           0       -1.114603    0.194610   -0.246314
      4          1           0        0.498279   -0.522930   -0.821395
      5          1           0        0.044080   -0.613315    0.895734
 ---------------------------------------------------------------------

 SCF Done:  E(RM062X) =  -40.4983948143     A.U. after   10 cycles

 The electronic state is 1-A.
 Alpha  occ. eigenvalues --  -10.52472  -0.77962  -0.45858  -0.45438  -0.44302
 Alpha virt. eigenvalues --    0.08449   0.15251   0.16133   0.16295   0.23704
 Alpha virt. eigenvalues --    0.23730   0.24228   0.41597   0.48198   0.50683
 Alpha virt. eigenvalues --    0.51180   0.54265   0.55240   0.55630   0.90328

 Mulliken charges:
               1
     1  C   -0.496304
     2  H    0.127281
     3  H    0.109648
     4  H    0.128928
     5  H    0.130447
 Sum of Mulliken charges =  -0.00000

 Dipole moment (field-independent basis, Debye):
    X=              0.0437    Y=             -0.0181    Z=              0.0210  Tot=              0.0517
 Quadrupole moment (field-independent basis, Debye-Ang):
   XX=             -8.4211   YY=             -8.5573   ZZ=             -8.5589
   XY=              0.0277   XZ=             -0.0446   YZ=              0.0044

 Normal termination of Gaussian 16 at Fri Sep 22 16:50:01 2023.
