 Gaussian 16, Revision A.03,
 Gaussian 16:  ES64L-G16RevA.03 25-Dec-2016

 -----------------
 # M062X/def2TZVPP
 -----------------

 -----------------------
 tmpdir/M2_conf_0_25.gjf
 -----------------------
 Symbolic Z-matrix:
 Charge =  0 Multiplicity = 1

                         Standard orientation:
 ---------------------------------------------------------------------
 Center     Atomic      Atomic             Coordinates (Angstroms)
 Number     Number       Type             X           Y           Z
 ---------------------------------------------------------------------
      1          6           0        0.004650   -0.000071   -0.003082
      2          1           0        0.105340   -0.100862    1.076559
      3          1           0       -1.127151   -0.008523   -0.257161
      4          1           0        0.466630    0.937905   -0.315308
      5          1           0        0.527279   -0.828092   -0.485597
 ---------------------------------------------------------------------

 SCF Done:  E(RM062X) =  -40.4986571737     A.U. after   10 cycles

 The electronic state is 1-A.
 Alpha  occ. eigenvalues --  -10.52421  -0.78000  -0.45687  -0.45531  -0.44441
 Alpha virt. eigenvalues --    0.08464   0.15306   0.16176   0.16268   0.23709
 Alpha virt. eigenvalues --    0.23723   0.24212   0.41634   0.48347   0.50818
 Alpha virt. eigenvalues --    0.51023   0.54456   0.55180   0.55631   0.90327

 Mulliken charges:
               1
     1  C   -0.496654
     2  H    0.129481
     3  H    0.110602
     4  H    0.128370
     5  H    0.128201
 Sum of Mulliken charges =   0.00000

 Dipole moment (field-independent basis, Debye):
    X=              0.0462    Y=              0.0007    Z=              0.0279  Tot=              0.0540
 Quadrupole moment (field-independent basis, Debye-Ang):
   XX=             -8.4089   YY=             -8.5408   ZZ=             -8.5768
   XY=             -0.0014   XZ=             -0.0423   YZ=              0.0000

 Normal termination of Gaussian 16 at Fri Sep 22 16:49:49 2023.
