 Gaussian 16, Revision A.03,
 Gaussian 16:  ES64L-G16RevA.03 25-Dec-2016

 -----------------
 # M062X/def2TZVPP
 -----------------

 -----------------------
 tmpdir/M2_conf_0_12.gjf
 -----------------------
 Symbolic Z-matrix:
 Charge =  0 Multiplicity = 1

                         Standard orientation:
 ---------------------------------------------------------------------
 Center     Atomic      Atomic             Coordinates (Angstroms)
 Number     Number       Type             X           Y           Z
 ---------------------------------------------------------------------
      1          6           0       -0.006280    0.006101    0.001438
      2          1           0        0.571856   -0.174714    0.905213
      3          1           0       -1.138092    0.049031    0.179270
      4          1           0        0.375289    0.924409   -0.434041
      5          1           0        0.228626   -0.835329   -0.659072
 ---------------------------------------------------------------------

 SCF Done:  E(RM062X) =  -40.4986290283     A.U. after   10 cycles

 The electronic state is 1-A.
 Alpha  occ. eigenvalues --  -10.52247  -0.78157  -0.45773  -0.45585  -0.44475
 Alpha virt. eigenvalues --    0.08502   0.15450   0.16173   0.16305   0.23675
 Alpha virt. eigenvalues --    0.23764   0.24181   0.41544   0.48792   0.50512
 Alpha virt. eigenvalues --    0.51143   0.54472   0.54920   0.56770   0.90106

 Mulliken charges:
               1
     1  C   -0.495181
     2  H    0.127004
     3  H    0.114220
     4  H    0.128396
     5  H    0.125560
 Sum of Mulliken charges =  -0.00000

 Dipole moment (field-independent basis, Debye):
    X=              0.0647    Y=             -0.0160    Z=             -0.0099  Tot=              0.0674
 Quadrupole moment (field-independent basis, Debye-Ang):
   XX=             -8.2821   YY=             -8.5148   ZZ=             -8.6955
   XY=              0.0135   XZ=              0.0211   YZ=             -0.0175

 Normal termination of Gaussian 16 at Fri Sep 22 16:49:14 2023.
