 Gaussian 16, Revision A.03,
 Gaussian 16:  ES64L-G16RevA.03 25-Dec-2016

 -----------------
 # M062X/def2TZVPP
 -----------------

 ----------------------
 tmpdir/M2_conf_0_1.gjf
 ----------------------
 Symbolic Z-matrix:
 Charge =  0 Multiplicity = 1

                         Standard orientation:
 ---------------------------------------------------------------------
 Center     Atomic      Atomic             Coordinates (Angstroms)
 Number     Number       Type             X           Y           Z
 ---------------------------------------------------------------------
      1          7           0        0.002468   -0.002198   -0.096946
      2          1           0       -0.627136   -0.724916    0.226493
      3          1           0       -0.348562    0.890681    0.221588
      4          1           0        0.958422   -0.150378    0.230539
 ---------------------------------------------------------------------

 SCF Done:  E(RM062X) =  -56.5511110934     A.U. after   12 cycles

 The electronic state is 1-A.
 Alpha  occ. eigenvalues --  -14.71920  -0.94718  -0.53634  -0.53023  -0.32899
 Alpha virt. eigenvalues --    0.05980   0.13935   0.14152   0.34191   0.34770
 Alpha virt. eigenvalues --    0.39178   0.46651   0.50065   0.53109   0.53326
 Alpha virt. eigenvalues --    0.61834   0.63028   0.95779   0.96296   1.03741

 Mulliken charges:
               1
     1  N   -0.486684
     2  H    0.160675
     3  H    0.157577
     4  H    0.168432
 Sum of Mulliken charges =  -0.00000

 Dipole moment (field-independent basis, Debye):
    X=             -0.0230    Y=              0.0199    Z=              1.4300  Tot=              1.4303
 Quadrupole moment (field-independent basis, Debye-Ang):
   XX=             -6.0059   YY=             -6.1998   ZZ=             -9.3670
   XY=              0.0028   XZ=              0.0017   YZ=             -0.0052

 Normal termination of Gaussian 16 at Fri Sep 22 16:48:58 2023.
