 Gaussian 16, Revision A.03,
 Gaussian 16:  ES64L-G16RevA.03 25-Dec-2016

 -----------------
 # M062X/def2TZVPP
 -----------------

 -----------------------
 tmpdir/M2_conf_0_39.gjf
 -----------------------
 Symbolic Z-matrix:
 Charge =  0 Multiplicity = 1

                         Standard orientation:
 ---------------------------------------------------------------------
 Center     Atomic      Atomic             Coordinates (Angstroms)
 Number     Number       Type             X           Y           Z
 ---------------------------------------------------------------------
      1          1           0        0.514170   -0.369135    0.891361
      2          6           0        0.006146   -0.000741   -0.000117
      3          1           0        0.519858   -0.398481   -0.875328
      4          1           0       -1.114763   -0.313403    0.002234
      5          1           0        0.043860    1.085465   -0.017568
 ---------------------------------------------------------------------

 SCF Done:  E(RM062X) =  -40.4984171688     A.U. after   10 cycles

 The electronic state is 1-A.
 Alpha  occ. eigenvalues --  -10.52410  -0.78014  -0.45909  -0.45468  -0.44305
 Alpha virt. eigenvalues --    0.08464   0.15258   0.16183   0.16313   0.23694
 Alpha virt. eigenvalues --    0.23720   0.24230   0.41584   0.48197   0.50800
 Alpha virt. eigenvalues --    0.51243   0.54269   0.55292   0.55774   0.90394

 Mulliken charges:
               1
     1  H    0.128653
     2  C   -0.497119
     3  H    0.128709
     4  H    0.109510
     5  H    0.130248
 Sum of Mulliken charges =   0.00000

 Dipole moment (field-independent basis, Debye):
    X=              0.0459    Y=              0.0258    Z=              0.0000  Tot=              0.0527
 Quadrupole moment (field-independent basis, Debye-Ang):
   XX=             -8.4117   YY=             -8.5548   ZZ=             -8.5584
   XY=             -0.0549   XZ=              0.0001   YZ=              0.0003

 Normal termination of Gaussian 16 at Fri Sep 22 16:50:10 2023.
