 Gaussian 16, Revision A.03,
 Gaussian 16:  ES64L-G16RevA.03 25-Dec-2016

 -----------------
 # M062X/def2TZVPP
 -----------------

 -----------------------
 tmpdir/M2_conf_0_37.gjf
 -----------------------
 Symbolic Z-matrix:
 Charge =  0 Multiplicity = 1

                         Standard orientation:
 ---------------------------------------------------------------------
 Center     Atomic      Atomic             Coordinates (Angstroms)
 Number     Number       Type             X           Y           Z
 ---------------------------------------------------------------------
      1          8           0       -0.738659    0.106869    0.000284
      2          6           0        0.672934   -0.019077    0.000029
      3          1           0        1.011805   -0.560664   -0.883117
      4          1           0       -1.247773   -0.611149   -0.000499
      5          1           0        1.015601   -0.552535    0.886899
      6          1           0        1.092032    0.983860   -0.005726
 ---------------------------------------------------------------------

 SCF Done:  E(RM062X) =  -115.707651521     A.U. after   11 cycles

 The electronic state is 1-A.
 Alpha  occ. eigenvalues --  -19.60769 -10.57914  -1.14984  -0.79083  -0.59560
 Alpha  occ. eigenvalues --   -0.51588  -0.50585  -0.39919  -0.35352
 Alpha virt. eigenvalues --    0.06888   0.10696   0.15520   0.15762   0.17188
 Alpha virt. eigenvalues --    0.24537   0.25512   0.34631   0.39659   0.44212
 Alpha virt. eigenvalues --    0.47130   0.48256   0.52605   0.53354   0.54233

 Mulliken charges:
               1
     1  O   -0.344949
     2  C   -0.172659
     3  H    0.114132
     4  H    0.161082
     5  H    0.114146
     6  H    0.128248
 Sum of Mulliken charges =  -0.00000

 Dipole moment (field-independent basis, Debye):
    X=              0.6843    Y=             -1.3564    Z=             -0.0026  Tot=              1.5192
 Quadrupole moment (field-independent basis, Debye-Ang):
   XX=            -12.2037   YY=            -12.5284   ZZ=            -13.6984
   XY=              2.2184   XZ=              0.0031   YZ=             -0.0004

 Normal termination of Gaussian 16 at Fri Sep 22 16:50:17 2023.
