 Gaussian 16, Revision A.03,
 Gaussian 16:  ES64L-G16RevA.03 25-Dec-2016

 -----------------
 # M062X/def2TZVPP
 -----------------

 -----------------------
 tmpdir/M2_conf_0_23.gjf
 -----------------------
 Symbolic Z-matrix:
 Charge =  0 Multiplicity = 1

                         Standard orientation:
 ---------------------------------------------------------------------
 Center     Atomic      Atomic             Coordinates (Angstroms)
 Number     Number       Type             X           Y           Z
 ---------------------------------------------------------------------
      1          5           0        1.264750    0.239119   -0.005684
      2          8           0        0.141032   -0.523552   -0.000477
      3          6           0       -1.101877    0.157345    0.000998
      4          1           0        2.297807   -0.297824    0.017509
      5          1           0        1.148390    1.366974    0.005584
      6          1           0       -1.200064    0.784937    0.887019
      7          1           0       -1.199191    0.788364   -0.882426
      8          1           0       -1.887685   -0.593702   -0.001439
 ---------------------------------------------------------------------

 SCF Done:  E(RM062X) =  -141.195990515     A.U. after   12 cycles

 The electronic state is 1-A.
 Alpha  occ. eigenvalues --  -19.64670 -10.58830  -7.04908  -1.16215  -0.79466
 Alpha  occ. eigenvalues --   -0.61907  -0.54515  -0.53858  -0.50470  -0.42714
 Alpha  occ. eigenvalues --   -0.39169  -0.37699
 Alpha virt. eigenvalues --    0.01208   0.06951   0.09817   0.10533   0.12614
 Alpha virt. eigenvalues --    0.15374   0.16336   0.17909   0.18650   0.20543
 Alpha virt. eigenvalues --    0.25290   0.25616   0.29560   0.36170   0.37534

 Mulliken charges:
               1
     1  B    0.087970
     2  O   -0.289624
     3  C   -0.204446
     4  H    0.007277
     5  H    0.011706
     6  H    0.126341
     7  H    0.125482
     8  H    0.135295
 Sum of Mulliken charges =  -0.00000

 Dipole moment (field-independent basis, Debye):
    X=             -1.1976    Y=              0.9627    Z=             -0.0250  Tot=              1.5368
 Quadrupole moment (field-independent basis, Debye-Ang):
   XX=            -19.1351   YY=            -21.3301   ZZ=            -18.8465
   XY=              0.0775   XZ=             -0.0451   YZ=             -0.0019

 Normal termination of Gaussian 16 at Fri Sep 22 16:50:20 2023.
