 Gaussian 16, Revision A.03,
 Gaussian 16:  ES64L-G16RevA.03 25-Dec-2016

 -----------------
 # M062X/def2TZVPP
 -----------------

 -----------------------
 tmpdir/M2_conf_0_38.gjf
 -----------------------
 Symbolic Z-matrix:
 Charge =  0 Multiplicity = 1

                         Standard orientation:
 ---------------------------------------------------------------------
 Center     Atomic      Atomic             Coordinates (Angstroms)
 Number     Number       Type             X           Y           Z
 ---------------------------------------------------------------------
      1          8           0       -0.739457    0.107654    0.000271
      2          6           0        0.672055   -0.019187    0.000046
      3          1           0        1.105579    0.977612   -0.004569
      4          1           0       -1.249027   -0.610044   -0.001207
      5          1           0        1.014280   -0.553809    0.886391
      6          1           0        1.012490   -0.559865   -0.883058
 ---------------------------------------------------------------------

 SCF Done:  E(RM062X) =  -115.707585451     A.U. after   11 cycles

 The electronic state is 1-A.
 Alpha  occ. eigenvalues --  -19.60798 -10.57922  -1.14993  -0.79094  -0.59581
 Alpha  occ. eigenvalues --   -0.51582  -0.50619  -0.39892  -0.35365
 Alpha virt. eigenvalues --    0.06892   0.10658   0.15575   0.15773   0.17157
 Alpha virt. eigenvalues --    0.24611   0.25520   0.34621   0.39675   0.44138
 Alpha virt. eigenvalues --    0.47108   0.48246   0.52593   0.53429   0.54283

 Mulliken charges:
               1
     1  O   -0.344927
     2  C   -0.172552
     3  H    0.128202
     4  H    0.161443
     5  H    0.113912
     6  H    0.113922
 Sum of Mulliken charges =  -0.00000

 Dipole moment (field-independent basis, Debye):
    X=              0.6857    Y=             -1.3562    Z=             -0.0038  Tot=              1.5197
 Quadrupole moment (field-independent basis, Debye-Ang):
   XX=            -12.1750   YY=            -12.5504   ZZ=            -13.7015
   XY=              2.2331   XZ=              0.0036   YZ=              0.0004

 Normal termination of Gaussian 16 at Fri Sep 22 16:50:24 2023.
