 Gaussian 16, Revision A.03,
 Gaussian 16:  ES64L-G16RevA.03 25-Dec-2016

 -----------------
 # M062X/def2TZVPP
 -----------------

 -----------------------
 tmpdir/M2_conf_0_13.gjf
 -----------------------
 Symbolic Z-matrix:
 Charge =  0 Multiplicity = 1

                         Standard orientation:
 ---------------------------------------------------------------------
 Center     Atomic      Atomic             Coordinates (Angstroms)
 Number     Number       Type             X           Y           Z
 ---------------------------------------------------------------------
      1          6           0       -0.006970    0.005769    0.000847
      2          1           0        0.197146   -0.741416   -0.764215
      3          1           0       -1.128797    0.015184    0.237227
      4          1           0        0.349046    0.974357   -0.336229
      5          1           0        0.624423   -0.282736    0.858133
 ---------------------------------------------------------------------

 SCF Done:  E(RM062X) =  -40.4985239356     A.U. after   10 cycles

 The electronic state is 1-A.
 Alpha  occ. eigenvalues --  -10.52339  -0.78079  -0.45816  -0.45459  -0.44433
 Alpha virt. eigenvalues --    0.08478   0.15460   0.16004   0.16344   0.23700
 Alpha virt. eigenvalues --    0.23758   0.24191   0.41542   0.48804   0.50145
 Alpha virt. eigenvalues --    0.51246   0.54419   0.54802   0.56642   0.89852

 Mulliken charges:
               1
     1  C   -0.494172
     2  H    0.127999
     3  H    0.114370
     4  H    0.128873
     5  H    0.122931
 Sum of Mulliken charges =  -0.00000

 Dipole moment (field-independent basis, Debye):
    X=              0.0603    Y=             -0.0143    Z=             -0.0258  Tot=              0.0672
 Quadrupole moment (field-independent basis, Debye-Ang):
   XX=             -8.2860   YY=             -8.5221   ZZ=             -8.7033
   XY=              0.0126   XZ=              0.0067   YZ=              0.0011

 Normal termination of Gaussian 16 at Fri Sep 22 16:49:18 2023.
