 Gaussian 16, Revision A.03,
 Gaussian 16:  ES64L-G16RevA.03 25-Dec-2016

 -----------------
 # M062X/def2TZVPP
 -----------------

 -----------------------
 tmpdir/M2_conf_0_24.gjf
 -----------------------
 Symbolic Z-matrix:
 Charge =  0 Multiplicity = 1

                         Standard orientation:
 ---------------------------------------------------------------------
 Center     Atomic      Atomic             Coordinates (Angstroms)
 Number     Number       Type             X           Y           Z
 ---------------------------------------------------------------------
      1          6           0        0.004475   -0.000357   -0.002783
      2          1           0        0.490138    0.954825   -0.232946
      3          1           0       -1.125195    0.036311   -0.263763
      4          1           0        0.094241   -0.193411    1.063575
      5          1           0        0.513967   -0.795580   -0.550166
 ---------------------------------------------------------------------

 SCF Done:  E(RM062X) =  -40.4986162991     A.U. after   10 cycles

 The electronic state is 1-A.
 Alpha  occ. eigenvalues --  -10.52455  -0.77971  -0.45695  -0.45466  -0.44449
 Alpha virt. eigenvalues --    0.08455   0.15302   0.16132   0.16271   0.23708
 Alpha virt. eigenvalues --    0.23736   0.24212   0.41633   0.48348   0.50697
 Alpha virt. eigenvalues --    0.51032   0.54430   0.55167   0.55579   0.90269

 Mulliken charges:
               1
     1  C   -0.496173
     2  H    0.127084
     3  H    0.110679
     4  H    0.130089
     5  H    0.128322
 Sum of Mulliken charges =   0.00000

 Dipole moment (field-independent basis, Debye):
    X=              0.0449    Y=             -0.0051    Z=              0.0297  Tot=              0.0541
 Quadrupole moment (field-independent basis, Debye-Ang):
   XX=             -8.4107   YY=             -8.5420   ZZ=             -8.5807
   XY=              0.0007   XZ=             -0.0416   YZ=              0.0036

 Normal termination of Gaussian 16 at Fri Sep 22 16:49:44 2023.
