 Gaussian 16, Revision A.03,
 Gaussian 16:  ES64L-G16RevA.03 25-Dec-2016

 -----------------
 # M062X/def2TZVPP
 -----------------

 ----------------------
 tmpdir/M2_conf_0_0.gjf
 ----------------------
 Symbolic Z-matrix:
 Charge =  0 Multiplicity = 1

                         Standard orientation:
 ---------------------------------------------------------------------
 Center     Atomic      Atomic             Coordinates (Angstroms)
 Number     Number       Type             X           Y           Z
 ---------------------------------------------------------------------
      1          7           0        0.002612   -0.002762   -0.096987
      2          1           0       -0.390169    0.877141    0.220673
      3          1           0       -0.592395   -0.751249    0.227407
      4          1           0        0.964282   -0.106559    0.230832
 ---------------------------------------------------------------------

 SCF Done:  E(RM062X) =  -56.5510944039     A.U. after   12 cycles

 The electronic state is 1-A.
 Alpha  occ. eigenvalues --  -14.71937  -0.94691  -0.53650  -0.52967  -0.32896
 Alpha virt. eigenvalues --    0.05974   0.13936   0.14139   0.34182   0.34770
 Alpha virt. eigenvalues --    0.39184   0.46619   0.50062   0.53085   0.53299
 Alpha virt. eigenvalues --    0.61835   0.63011   0.95749   0.96277   1.03722

 Mulliken charges:
               1
     1  N   -0.487511
     2  H    0.159011
     3  H    0.160011
     4  H    0.168488
 Sum of Mulliken charges =  -0.00000

 Dipole moment (field-independent basis, Debye):
    X=             -0.0242    Y=              0.0235    Z=              1.4298  Tot=              1.4302
 Quadrupole moment (field-independent basis, Debye-Ang):
   XX=             -6.0086   YY=             -6.1971   ZZ=             -9.3690
   XY=              0.0068   XZ=              0.0022   YZ=             -0.0098

 Normal termination of Gaussian 16 at Fri Sep 22 16:48:55 2023.
