 Gaussian 16, Revision A.03,
 Gaussian 16:  ES64L-G16RevA.03 25-Dec-2016

 -----------------
 # M062X/def2TZVPP
 -----------------

 -----------------------
 tmpdir/M2_conf_0_28.gjf
 -----------------------
 Symbolic Z-matrix:
 Charge =  0 Multiplicity = 1

                         Standard orientation:
 ---------------------------------------------------------------------
 Center     Atomic      Atomic             Coordinates (Angstroms)
 Number     Number       Type             X           Y           Z
 ---------------------------------------------------------------------
      1          8           0        0.737288    0.107606   -0.000624
      2          6           0       -0.669664   -0.020803    0.000209
      3          1           0       -1.107161    0.955451   -0.194625
      4          1           0        1.261309   -0.604569    0.003977
      5          1           0       -1.027706   -0.374411    0.968445
      6          1           0       -1.006767   -0.712502   -0.774060
 ---------------------------------------------------------------------

 SCF Done:  E(RM062X) =  -115.707933882     A.U. after   11 cycles

 The electronic state is 1-A.
 Alpha  occ. eigenvalues --  -19.60833 -10.57921  -1.14975  -0.79084  -0.59623
 Alpha  occ. eigenvalues --   -0.51617  -0.50639  -0.39695  -0.35346
 Alpha virt. eigenvalues --    0.06890   0.10619   0.15514   0.15909   0.17206
 Alpha virt. eigenvalues --    0.24581   0.25584   0.34712   0.39771   0.44051
 Alpha virt. eigenvalues --    0.47338   0.48226   0.52376   0.53653   0.54275

 Mulliken charges:
               1
     1  O   -0.348411
     2  C   -0.168915
     3  H    0.127054
     4  H    0.165782
     5  H    0.113140
     6  H    0.111351
 Sum of Mulliken charges =  -0.00000

 Dipole moment (field-independent basis, Debye):
    X=             -0.6463    Y=             -1.3523    Z=             -0.0100  Tot=              1.4989
 Quadrupole moment (field-independent basis, Debye-Ang):
   XX=            -12.1006   YY=            -12.6103   ZZ=            -13.6946
   XY=             -2.2294   XZ=              0.0557   YZ=             -0.0194

 Normal termination of Gaussian 16 at Fri Sep 22 16:49:58 2023.
