 Gaussian 16, Revision A.03,
 Gaussian 16:  ES64L-G16RevA.03 25-Dec-2016

 -----------------
 # M062X/def2TZVPP
 -----------------

 -----------------------
 tmpdir/M2_conf_0_26.gjf
 -----------------------
 Symbolic Z-matrix:
 Charge =  0 Multiplicity = 1

                         Standard orientation:
 ---------------------------------------------------------------------
 Center     Atomic      Atomic             Coordinates (Angstroms)
 Number     Number       Type             X           Y           Z
 ---------------------------------------------------------------------
      1          6           0        0.004514   -0.000096   -0.002721
      2          1           0        0.544360   -0.878093   -0.372765
      3          1           0       -1.124719   -0.057529   -0.261834
      4          1           0        0.456583    0.896867   -0.429125
      5          1           0        0.096693    0.039333    1.080053
 ---------------------------------------------------------------------

 SCF Done:  E(RM062X) =  -40.4986281659     A.U. after   10 cycles

 The electronic state is 1-A.
 Alpha  occ. eigenvalues --  -10.52441  -0.77983  -0.45691  -0.45487  -0.44451
 Alpha virt. eigenvalues --    0.08458   0.15305   0.16141   0.16278   0.23711
 Alpha virt. eigenvalues --    0.23728   0.24213   0.41634   0.48350   0.50724
 Alpha virt. eigenvalues --    0.51045   0.54442   0.55171   0.55604   0.90277

 Mulliken charges:
               1
     1  C   -0.496371
     2  H    0.127242
     3  H    0.110639
     4  H    0.128449
     5  H    0.130041
 Sum of Mulliken charges =  -0.00000

 Dipole moment (field-independent basis, Debye):
    X=              0.0451    Y=              0.0066    Z=              0.0295  Tot=              0.0543
 Quadrupole moment (field-independent basis, Debye-Ang):
   XX=             -8.4094   YY=             -8.5420   ZZ=             -8.5791
   XY=             -0.0056   XZ=             -0.0409   YZ=             -0.0047

 Normal termination of Gaussian 16 at Fri Sep 22 16:49:53 2023.
