 Gaussian 16, Revision A.03,
 Gaussian 16:  ES64L-G16RevA.03 25-Dec-2016

 -----------------
 # M062X/def2TZVPP
 -----------------

 ----------------------
 tmpdir/M2_conf_0_4.gjf
 ----------------------
 Symbolic Z-matrix:
 Charge =  0 Multiplicity = 1

                         Standard orientation:
 ---------------------------------------------------------------------
 Center     Atomic      Atomic             Coordinates (Angstroms)
 Number     Number       Type             X           Y           Z
 ---------------------------------------------------------------------
      1          1           0       -1.146774    0.828498    0.298577
      2          7           0       -0.748994   -0.003262   -0.115987
      3          6           0        0.704267    0.006277    0.009538
      4          1           0       -1.164046   -0.809040    0.328929
      5          1           0        1.116848    1.006371   -0.080570
      6          1           0        1.069269   -0.401653    0.967236
      7          1           0        1.142058   -0.638999   -0.759492
 ---------------------------------------------------------------------

 SCF Done:  E(RM062X) =  -95.8435943143     A.U. after   11 cycles

 The electronic state is 1-A.
 Alpha  occ. eigenvalues --  -14.72124 -10.54992  -0.97796  -0.74747  -0.56476
 Alpha  occ. eigenvalues --   -0.50562  -0.46594  -0.43398  -0.30099
 Alpha virt. eigenvalues --    0.06424   0.11003   0.12118   0.16044   0.17122
 Alpha virt. eigenvalues --    0.19825   0.25815   0.26927   0.32160   0.39223
 Alpha virt. eigenvalues --    0.40911   0.41690   0.45150   0.48979   0.50377

 Mulliken charges:
               1
     1  H    0.140697
     2  N   -0.380198
     3  C   -0.240593
     4  H    0.144002
     5  H    0.115342
     6  H    0.102191
     7  H    0.118559
 Sum of Mulliken charges =  -0.00000

 Dipole moment (field-independent basis, Debye):
    X=              0.1986    Y=              0.0630    Z=              1.3028  Tot=              1.3193
 Quadrupole moment (field-independent basis, Debye-Ang):
   XX=            -13.8480   YY=            -12.5471   ZZ=            -15.5897
   XY=              0.1249   XZ=             -1.8894   YZ=              0.0139

 Normal termination of Gaussian 16 at Fri Sep 22 16:49:05 2023.
