 Gaussian 16, Revision A.03,
 Gaussian 16:  ES64L-G16RevA.03 25-Dec-2016

 -----------------
 # M062X/def2TZVPP
 -----------------

 -----------------------
 tmpdir/M2_conf_0_33.gjf
 -----------------------
 Symbolic Z-matrix:
 Charge =  0 Multiplicity = 1

                         Standard orientation:
 ---------------------------------------------------------------------
 Center     Atomic      Atomic             Coordinates (Angstroms)
 Number     Number       Type             X           Y           Z
 ---------------------------------------------------------------------
      1          6           0       -0.006369   -0.000891    0.000380
      2          1           0       -0.520289   -0.686862   -0.675095
      3          1           0        1.117164   -0.285494    0.104680
      4          1           0       -0.505223   -0.030519    0.969074
      5          1           0       -0.053436    1.008218   -0.400939
 ---------------------------------------------------------------------

 SCF Done:  E(RM062X) =  -40.4984338532     A.U. after   10 cycles

 The electronic state is 1-A.
 Alpha  occ. eigenvalues --  -10.52422  -0.78004  -0.45871  -0.45495  -0.44301
 Alpha virt. eigenvalues --    0.08462   0.15258   0.16178   0.16306   0.23699
 Alpha virt. eigenvalues --    0.23719   0.24228   0.41597   0.48200   0.50802
 Alpha virt. eigenvalues --    0.51208   0.54308   0.55261   0.55711   0.90392

 Mulliken charges:
               1
     1  C   -0.497022
     2  H    0.128407
     3  H    0.109526
     4  H    0.128800
     5  H    0.130288
 Sum of Mulliken charges =  -0.00000

 Dipole moment (field-independent basis, Debye):
    X=             -0.0451    Y=              0.0249    Z=             -0.0085  Tot=              0.0523
 Quadrupole moment (field-independent basis, Debye-Ang):
   XX=             -8.4183   YY=             -8.5562   ZZ=             -8.5529
   XY=              0.0494   XZ=             -0.0194   YZ=              0.0028

 Normal termination of Gaussian 16 at Fri Sep 22 16:49:56 2023.
