 Gaussian 16, Revision A.03,
 Gaussian 16:  ES64L-G16RevA.03 25-Dec-2016

 -----------------
 # M062X/def2TZVPP
 -----------------

 -----------------------
 tmpdir/M2_conf_0_35.gjf
 -----------------------
 Symbolic Z-matrix:
 Charge =  0 Multiplicity = 1

                         Standard orientation:
 ---------------------------------------------------------------------
 Center     Atomic      Atomic             Coordinates (Angstroms)
 Number     Number       Type             X           Y           Z
 ---------------------------------------------------------------------
      1          6           0       -0.006406   -0.001238   -0.000004
      2          1           0       -0.057379    1.084395   -0.073324
      3          1           0        1.118171   -0.299984    0.016574
      4          1           0       -0.514738   -0.448843   -0.854276
      5          1           0       -0.507621   -0.328140    0.911049
 ---------------------------------------------------------------------

 SCF Done:  E(RM062X) =  -40.4984382798     A.U. after   10 cycles

 The electronic state is 1-A.
 Alpha  occ. eigenvalues --  -10.52435  -0.77992  -0.45850  -0.45509  -0.44291
 Alpha virt. eigenvalues --    0.08459   0.15254   0.16187   0.16284   0.23693
 Alpha virt. eigenvalues --    0.23730   0.24227   0.41597   0.48195   0.50828
 Alpha virt. eigenvalues --    0.51154   0.54295   0.55255   0.55684   0.90405

 Mulliken charges:
               1
     1  C   -0.496811
     2  H    0.129625
     3  H    0.109574
     4  H    0.128778
     5  H    0.128835
 Sum of Mulliken charges =  -0.00000

 Dipole moment (field-independent basis, Debye):
    X=             -0.0454    Y=              0.0245    Z=             -0.0010  Tot=              0.0516
 Quadrupole moment (field-independent basis, Debye-Ang):
   XX=             -8.4200   YY=             -8.5567   ZZ=             -8.5533
   XY=              0.0533   XZ=             -0.0030   YZ=              0.0010

 Normal termination of Gaussian 16 at Fri Sep 22 16:50:06 2023.
