 Gaussian 16, Revision A.03,
 Gaussian 16:  ES64L-G16RevA.03 25-Dec-2016

 -----------------
 # M062X/def2TZVPP
 -----------------

 -----------------------
 tmpdir/M2_conf_0_30.gjf
 -----------------------
 Symbolic Z-matrix:
 Charge =  0 Multiplicity = 1

                         Standard orientation:
 ---------------------------------------------------------------------
 Center     Atomic      Atomic             Coordinates (Angstroms)
 Number     Number       Type             X           Y           Z
 ---------------------------------------------------------------------
      1          1           0       -0.464617   -0.783383   -0.604834
      2          6           0       -0.004317    0.001590   -0.002623
      3          1           0       -0.121847   -0.253931    1.047771
      4          1           0        1.130752    0.083628   -0.227313
      5          1           0       -0.518388    0.944149   -0.199885
 ---------------------------------------------------------------------

 SCF Done:  E(RM062X) =  -40.4986546642     A.U. after   10 cycles

 The electronic state is 1-A.
 Alpha  occ. eigenvalues --  -10.52403  -0.78016  -0.45692  -0.45510  -0.44478
 Alpha virt. eigenvalues --    0.08467   0.15311   0.16179   0.16282   0.23711
 Alpha virt. eigenvalues --    0.23714   0.24213   0.41642   0.48356   0.50818
 Alpha virt. eigenvalues --    0.51049   0.54514   0.55179   0.55639   0.90329

 Mulliken charges:
               1
     1  H    0.128265
     2  C   -0.496896
     3  H    0.129883
     4  H    0.110592
     5  H    0.128157
 Sum of Mulliken charges =  -0.00000

 Dipole moment (field-independent basis, Debye):
    X=             -0.0475    Y=             -0.0112    Z=              0.0259  Tot=              0.0553
 Quadrupole moment (field-independent basis, Debye-Ang):
   XX=             -8.4068   YY=             -8.5388   ZZ=             -8.5771
   XY=             -0.0141   XZ=              0.0366   YZ=              0.0018

 Normal termination of Gaussian 16 at Fri Sep 22 16:49:50 2023.
