 Gaussian 16, Revision A.03,
 Gaussian 16:  ES64L-G16RevA.03 25-Dec-2016

 -----------------
 # M062X/def2TZVPP
 -----------------

 -----------------------
 tmpdir/M2_conf_0_18.gjf
 -----------------------
 Symbolic Z-matrix:
 Charge =  0 Multiplicity = 1

                         Standard orientation:
 ---------------------------------------------------------------------
 Center     Atomic      Atomic             Coordinates (Angstroms)
 Number     Number       Type             X           Y           Z
 ---------------------------------------------------------------------
      1          5           0        0.889982    0.000494   -0.014166
      2          6           0       -0.688519    0.002519    0.003383
      3          1           0       -1.141263   -0.674754   -0.728589
      4          1           0        1.511266   -0.946659   -0.065418
      5          1           0        1.428367    0.989378    0.066129
      6          1           0       -1.122198    1.045732   -0.191789
      7          1           0       -0.994967   -0.431283    0.970199
 ---------------------------------------------------------------------

 SCF Done:  E(RM062X) =  -65.9165209817     A.U. after   11 cycles

 The electronic state is 1-A.
 Alpha  occ. eigenvalues --  -10.51584  -7.03446  -0.78434  -0.56583  -0.47870
 Alpha  occ. eigenvalues --   -0.45874  -0.38985  -0.38625
 Alpha virt. eigenvalues --   -0.01368   0.06099   0.09744   0.10515   0.13009
 Alpha virt. eigenvalues --    0.15688   0.17802   0.19847   0.22374   0.23096
 Alpha virt. eigenvalues --    0.24226   0.27116   0.31212   0.36512   0.42691

 Mulliken charges:
               1
     1  B   -0.070536
     2  C   -0.374514
     3  H    0.126879
     4  H    0.045213
     5  H    0.049102
     6  H    0.107960
     7  H    0.115896
 Sum of Mulliken charges =  -0.00000

 Dipole moment (field-independent basis, Debye):
    X=             -0.3945    Y=             -0.1276    Z=              0.0182  Tot=              0.4150
 Quadrupole moment (field-independent basis, Debye-Ang):
   XX=            -16.3199   YY=            -15.5131   ZZ=            -13.7286
   XY=              0.1250   XZ=             -0.0077   YZ=             -0.3196

 Normal termination of Gaussian 16 at Fri Sep 22 16:49:24 2023.
