 Gaussian 16, Revision A.03,
 Gaussian 16:  ES64L-G16RevA.03 25-Dec-2016

 -----------------
 # M062X/def2TZVPP
 -----------------

 -----------------------
 tmpdir/M2_conf_0_41.gjf
 -----------------------
 Symbolic Z-matrix:
 Charge =  0 Multiplicity = 1

                         Standard orientation:
 ---------------------------------------------------------------------
 Center     Atomic      Atomic             Coordinates (Angstroms)
 Number     Number       Type             X           Y           Z
 ---------------------------------------------------------------------
      1          1           0        0.500075   -0.272331    0.932018
      2          6           0        0.005811    0.001588   -0.000061
      3          1           0        0.093177   -0.824800   -0.700793
      4          1           0       -1.126830    0.202649    0.175724
      5          1           0        0.498710    0.884951   -0.406585
 ---------------------------------------------------------------------

 SCF Done:  E(RM062X) =  -40.4984382362     A.U. after   10 cycles

 The electronic state is 1-A.
 Alpha  occ. eigenvalues --  -10.52410  -0.78015  -0.45845  -0.45489  -0.44347
 Alpha virt. eigenvalues --    0.08464   0.15261   0.16192   0.16305   0.23696
 Alpha virt. eigenvalues --    0.23716   0.24229   0.41610   0.48209   0.50823
 Alpha virt. eigenvalues --    0.51194   0.54396   0.55198   0.55731   0.90407

 Mulliken charges:
               1
     1  H    0.128691
     2  C   -0.497191
     3  H    0.130189
     4  H    0.109576
     5  H    0.128735
 Sum of Mulliken charges =  -0.00000

 Dipole moment (field-independent basis, Debye):
    X=              0.0478    Y=             -0.0205    Z=             -0.0132  Tot=              0.0536
 Quadrupole moment (field-independent basis, Debye-Ang):
   XX=             -8.4184   YY=             -8.5353   ZZ=             -8.5709
   XY=              0.0362   XZ=              0.0302   YZ=             -0.0045

 Normal termination of Gaussian 16 at Fri Sep 22 16:50:18 2023.
