 Gaussian 16, Revision A.03,
 Gaussian 16:  ES64L-G16RevA.03 25-Dec-2016

 -----------------
 # M062X/def2TZVPP
 -----------------

 -----------------------
 tmpdir/M2_conf_0_31.gjf
 -----------------------
 Symbolic Z-matrix:
 Charge =  0 Multiplicity = 1

                         Standard orientation:
 ---------------------------------------------------------------------
 Center     Atomic      Atomic             Coordinates (Angstroms)
 Number     Number       Type             X           Y           Z
 ---------------------------------------------------------------------
      1          1           0       -0.467929   -0.880473   -0.448005
      2          6           0       -0.004194    0.001008   -0.002295
      3          1           0       -0.548010    0.884568   -0.341663
      4          1           0        1.121346    0.059890   -0.276680
      5          1           0       -0.080244   -0.070037    1.080117
 ---------------------------------------------------------------------

 SCF Done:  E(RM062X) =  -40.4986181866     A.U. after   10 cycles

 The electronic state is 1-A.
 Alpha  occ. eigenvalues --  -10.52404  -0.78016  -0.45777  -0.45448  -0.44454
 Alpha virt. eigenvalues --    0.08467   0.15307   0.16167   0.16293   0.23707
 Alpha virt. eigenvalues --    0.23719   0.24217   0.41613   0.48344   0.50761
 Alpha virt. eigenvalues --    0.51118   0.54372   0.55242   0.55747   0.90294

 Mulliken charges:
               1
     1  H    0.128243
     2  C   -0.496811
     3  H    0.128068
     4  H    0.110590
     5  H    0.129910
 Sum of Mulliken charges =  -0.00000

 Dipole moment (field-independent basis, Debye):
    X=             -0.0470    Y=             -0.0073    Z=              0.0279  Tot=              0.0551
 Quadrupole moment (field-independent basis, Debye-Ang):
   XX=             -8.3959   YY=             -8.5554   ZZ=             -8.5715
   XY=             -0.0101   XZ=              0.0442   YZ=              0.0017

 Normal termination of Gaussian 16 at Fri Sep 22 16:49:59 2023.
