 Gaussian 16, Revision A.03,
 Gaussian 16:  ES64L-G16RevA.03 25-Dec-2016

 -----------------
 # M062X/def2TZVPP
 -----------------

 -----------------------
 tmpdir/M2_conf_0_22.gjf
 -----------------------
 Symbolic Z-matrix:
 Charge =  0 Multiplicity = 1

                         Standard orientation:
 ---------------------------------------------------------------------
 Center     Atomic      Atomic             Coordinates (Angstroms)
 Number     Number       Type             X           Y           Z
 ---------------------------------------------------------------------
      1          8           0       -0.733843    0.107009    0.000252
      2          6           0        0.667988   -0.019185    0.000025
      3          1           0       -1.243527   -0.610613   -0.001018
      4          1           0        1.010166   -0.553461    0.886590
      5          1           0        1.008300   -0.560310   -0.882845
      6          1           0        1.087881    0.983426   -0.004890
 ---------------------------------------------------------------------

 SCF Done:  E(RM062X) =  -115.707785610     A.U. after   11 cycles

 The electronic state is 1-A.
 Alpha  occ. eigenvalues --  -19.60776 -10.57814  -1.15279  -0.79094  -0.59730
 Alpha  occ. eigenvalues --   -0.51708  -0.50712  -0.39860  -0.35289
 Alpha virt. eigenvalues --    0.06882   0.10768   0.15553   0.15799   0.17273
 Alpha virt. eigenvalues --    0.24529   0.25504   0.35001   0.39890   0.44112
 Alpha virt. eigenvalues --    0.47168   0.48207   0.52705   0.53391   0.54329

 Mulliken charges:
               1
     1  O   -0.342803
     2  C   -0.169696
     3  H    0.161209
     4  H    0.112250
     5  H    0.112256
     6  H    0.126784
 Sum of Mulliken charges =  -0.00000

 Dipole moment (field-independent basis, Debye):
    X=              0.6466    Y=             -1.3540    Z=             -0.0034  Tot=              1.5005
 Quadrupole moment (field-independent basis, Debye-Ang):
   XX=            -12.2270   YY=            -12.5286   ZZ=            -13.6984
   XY=              2.2145   XZ=              0.0030   YZ=              0.0002

 Normal termination of Gaussian 16 at Fri Sep 22 16:50:02 2023.
