 Gaussian 16, Revision A.03,
 Gaussian 16:  ES64L-G16RevA.03 25-Dec-2016

 -----------------
 # M062X/def2TZVPP
 -----------------

 -----------------------
 tmpdir/M2_conf_0_27.gjf
 -----------------------
 Symbolic Z-matrix:
 Charge =  0 Multiplicity = 1

                         Standard orientation:
 ---------------------------------------------------------------------
 Center     Atomic      Atomic             Coordinates (Angstroms)
 Number     Number       Type             X           Y           Z
 ---------------------------------------------------------------------
      1          8           0        0.736990    0.106672    0.000116
      2          6           0       -0.670068   -0.020572    0.000019
      3          1           0       -1.034779   -0.375629    0.965228
      4          1           0        1.260419   -0.605945    0.003545
      5          1           0       -1.093766    0.961937   -0.193898
      6          1           0       -1.007385   -0.710307   -0.775913
 ---------------------------------------------------------------------

 SCF Done:  E(RM062X) =  -115.708040731     A.U. after   11 cycles

 The electronic state is 1-A.
 Alpha  occ. eigenvalues --  -19.60830 -10.57915  -1.14976  -0.79081  -0.59634
 Alpha  occ. eigenvalues --   -0.51590  -0.50606  -0.39736  -0.35345
 Alpha virt. eigenvalues --    0.06892   0.10638   0.15477   0.15900   0.17254
 Alpha virt. eigenvalues --    0.24518   0.25594   0.34717   0.39777   0.44123
 Alpha virt. eigenvalues --    0.47341   0.48207   0.52370   0.53634   0.54214

 Mulliken charges:
               1
     1  O   -0.348221
     2  C   -0.168956
     3  H    0.113229
     4  H    0.165516
     5  H    0.126995
     6  H    0.111438
 Sum of Mulliken charges =  -0.00000

 Dipole moment (field-independent basis, Debye):
    X=             -0.6448    Y=             -1.3525    Z=             -0.0126  Tot=              1.4984
 Quadrupole moment (field-independent basis, Debye-Ang):
   XX=            -12.1181   YY=            -12.5904   ZZ=            -13.6992
   XY=             -2.2133   XZ=              0.0435   YZ=             -0.0202

 Normal termination of Gaussian 16 at Fri Sep 22 16:49:50 2023.
