 Gaussian 16, Revision A.03,
 Gaussian 16:  ES64L-G16RevA.03 25-Dec-2016

 -----------------
 # M062X/def2TZVPP
 -----------------

 -----------------------
 tmpdir/M2_conf_0_14.gjf
 -----------------------
 Symbolic Z-matrix:
 Charge =  0 Multiplicity = 1

                         Standard orientation:
 ---------------------------------------------------------------------
 Center     Atomic      Atomic             Coordinates (Angstroms)
 Number     Number       Type             X           Y           Z
 ---------------------------------------------------------------------
      1          7           0        1.036219   -0.337482   -0.133211
      2          6           0       -0.028128    0.645619    0.035557
      3          5           0       -1.283015   -0.311072   -0.009003
      4          1           0        0.798243   -1.203137    0.331477
      5          1           0        1.917304   -0.010909    0.236291
      6          1           0        0.049513    1.227210    0.969664
      7          1           0        0.029330    1.388363   -0.767250
      8          1           0       -2.346549    0.061744   -0.133939
      9          1           0       -1.117533   -1.419251    0.127909
 ---------------------------------------------------------------------

 SCF Done:  E(RM062X) =  -121.253817379     A.U. after   13 cycles

 The electronic state is 1-A.
 Alpha  occ. eigenvalues --  -14.71812 -10.53966  -7.03952  -0.98146  -0.74524
 Alpha  occ. eigenvalues --   -0.60571  -0.53158  -0.50700  -0.47160  -0.40984
 Alpha  occ. eigenvalues --   -0.37697  -0.30334
 Alpha virt. eigenvalues --   -0.02082   0.06248   0.08670   0.09336   0.12262
 Alpha virt. eigenvalues --    0.12376   0.14249   0.18313   0.20186   0.22141
 Alpha virt. eigenvalues --    0.23755   0.25436   0.28202   0.31749   0.35934

 Mulliken charges:
               1
     1  N   -0.376091
     2  C   -0.160819
     3  B   -0.062625
     4  H    0.150935
     5  H    0.128766
     6  H    0.109356
     7  H    0.118911
     8  H    0.051711
     9  H    0.039856
 Sum of Mulliken charges =  -0.00000

 Dipole moment (field-independent basis, Debye):
    X=              0.1642    Y=              0.3807    Z=              1.2318  Tot=              1.2997
 Quadrupole moment (field-independent basis, Debye-Ang):
   XX=            -21.3643   YY=            -20.2271   ZZ=            -20.7382
   XY=              0.5374   XZ=              1.7698   YZ=             -0.8953

 Normal termination of Gaussian 16 at Fri Sep 22 16:49:45 2023.
