 Gaussian 16, Revision A.03,
 Gaussian 16:  ES64L-G16RevA.03 25-Dec-2016

 -----------------
 # M062X/def2TZVPP
 -----------------

 -----------------------
 tmpdir/M2_conf_0_40.gjf
 -----------------------
 Symbolic Z-matrix:
 Charge =  0 Multiplicity = 1

                         Standard orientation:
 ---------------------------------------------------------------------
 Center     Atomic      Atomic             Coordinates (Angstroms)
 Number     Number       Type             X           Y           Z
 ---------------------------------------------------------------------
      1          1           0        0.509547    0.189959    0.948122
      2          6           0        0.006049   -0.001199    0.000238
      3          1           0        0.078547    0.883204   -0.627573
      4          1           0       -1.123389   -0.225468    0.168370
      5          1           0        0.499002   -0.840501   -0.490344
 ---------------------------------------------------------------------

 SCF Done:  E(RM062X) =  -40.4984419869     A.U. after   10 cycles

 The electronic state is 1-A.
 Alpha  occ. eigenvalues --  -10.52410  -0.78014  -0.45851  -0.45502  -0.44329
 Alpha virt. eigenvalues --    0.08464   0.15261   0.16190   0.16307   0.23696
 Alpha virt. eigenvalues --    0.23716   0.24229   0.41606   0.48206   0.50829
 Alpha virt. eigenvalues --    0.51200   0.54365   0.55233   0.55721   0.90408

 Mulliken charges:
               1
     1  H    0.128661
     2  C   -0.497217
     3  H    0.130216
     4  H    0.109548
     5  H    0.128793
 Sum of Mulliken charges =  -0.00000

 Dipole moment (field-independent basis, Debye):
    X=              0.0469    Y=              0.0208    Z=             -0.0137  Tot=              0.0531
 Quadrupole moment (field-independent basis, Debye-Ang):
   XX=             -8.4182   YY=             -8.5449   ZZ=             -8.5616
   XY=             -0.0401   XZ=              0.0291   YZ=              0.0051

 Normal termination of Gaussian 16 at Fri Sep 22 16:50:14 2023.
