 Gaussian 16, Revision A.03,
 Gaussian 16:  ES64L-G16RevA.03 25-Dec-2016

 -----------------
 # M062X/def2TZVPP
 -----------------

 --------------------
 tmpdir/M2_ref_29.gjf
 --------------------
 Symbolic Z-matrix:
 Charge =  0 Multiplicity = 1

                         Standard orientation:
 ---------------------------------------------------------------------
 Center     Atomic      Atomic             Coordinates (Angstroms)
 Number     Number       Type             X           Y           Z
 ---------------------------------------------------------------------
      1          8           0        0.736625    0.106830   -0.000055
      2          6           0       -0.670380   -0.020690    0.000081
      3          1           0       -1.007898   -0.709056   -0.777039
      4          1           0        1.260233   -0.605665    0.001827
      5          1           0       -1.028698   -0.377872    0.966878
      6          1           0       -1.094351    0.962091   -0.191712
 ---------------------------------------------------------------------

 SCF Done:  E(RM062X) =  -115.708022678     A.U. after   11 cycles

 The electronic state is 1-A.
 Alpha  occ. eigenvalues --  -19.60811 -10.57914  -1.14969  -0.79075  -0.59607
 Alpha  occ. eigenvalues --   -0.51618  -0.50608  -0.39723  -0.35335
 Alpha virt. eigenvalues --    0.06889   0.10650   0.15472   0.15894   0.17240
 Alpha virt. eigenvalues --    0.24514   0.25581   0.34720   0.39764   0.44120
 Alpha virt. eigenvalues --    0.47343   0.48236   0.52371   0.53636   0.54197

 Mulliken charges:
               1
     1  O   -0.348392
     2  C   -0.169072
     3  H    0.111539
     4  H    0.165466
     5  H    0.113359
     6  H    0.127100
 Sum of Mulliken charges =  -0.00000

 Dipole moment (field-independent basis, Debye):
    X=             -0.6449    Y=             -1.3524    Z=             -0.0151  Tot=              1.4983
 Quadrupole moment (field-independent basis, Debye-Ang):
   XX=            -12.1253   YY=            -12.5904   ZZ=            -13.6927
   XY=             -2.2156   XZ=              0.0446   YZ=             -0.0184

 Normal termination of Gaussian 16 at Fri Sep 22 16:48:35 2023.
