 Gaussian 16, Revision A.03,
 Gaussian 16:  ES64L-G16RevA.03 25-Dec-2016

 -----------------
 # M062X/def2TZVPP
 -----------------

 --------------------
 tmpdir/M2_ref_14.gjf
 --------------------
 Symbolic Z-matrix:
 Charge =  0 Multiplicity = 1

                         Standard orientation:
 ---------------------------------------------------------------------
 Center     Atomic      Atomic             Coordinates (Angstroms)
 Number     Number       Type             X           Y           Z
 ---------------------------------------------------------------------
      1          7           0       -1.142703    0.282409   -0.132551
      2          6           0        0.043247   -0.550298    0.034322
      3          5           0        1.375988    0.294412   -0.012854
      4          1           0       -1.010482    1.182608    0.308093
      5          1           0       -1.966859   -0.146404    0.262898
      6          1           0        0.059201   -1.114246    0.982178
      7          1           0        0.067755   -1.313558   -0.750753
      8          1           0        2.404235   -0.169847   -0.125996
      9          1           0        1.305647    1.414310    0.109769
 ---------------------------------------------------------------------

 SCF Done:  E(RM062X) =  -121.263651104     A.U. after   13 cycles

 The electronic state is 1-A.
 Alpha  occ. eigenvalues --  -14.72035 -10.54079  -7.03715  -0.97813  -0.75092
 Alpha  occ. eigenvalues --   -0.59192  -0.53843  -0.50800  -0.47578  -0.40546
 Alpha  occ. eigenvalues --   -0.38070  -0.30421
 Alpha virt. eigenvalues --   -0.01764   0.06031   0.08578   0.09538   0.11930
 Alpha virt. eigenvalues --    0.12540   0.14851   0.17843   0.20473   0.21991
 Alpha virt. eigenvalues --    0.23534   0.24656   0.29627   0.31103   0.34269

 Mulliken charges:
               1
     1  N   -0.383358
     2  C   -0.121431
     3  B   -0.087416
     4  H    0.145003
     5  H    0.137942
     6  H    0.098345
     7  H    0.111970
     8  H    0.053853
     9  H    0.045091
 Sum of Mulliken charges =  -0.00000

 Dipole moment (field-independent basis, Debye):
    X=             -0.0893    Y=             -0.3848    Z=              1.2612  Tot=              1.3216
 Quadrupole moment (field-independent basis, Debye-Ang):
   XX=            -21.2264   YY=            -20.3013   ZZ=            -20.7553
   XY=              0.3119   XZ=             -2.0941   YZ=              0.6986

 Normal termination of Gaussian 16 at Fri Sep 22 16:48:12 2023.
