 Gaussian 16, Revision A.03,
 Gaussian 16:  ES64L-G16RevA.03 25-Dec-2016

 -----------------
 # M062X/def2TZVPP
 -----------------

 --------------------
 tmpdir/M2_ref_12.gjf
 --------------------
 Symbolic Z-matrix:
 Charge =  0 Multiplicity = 1

                         Standard orientation:
 ---------------------------------------------------------------------
 Center     Atomic      Atomic             Coordinates (Angstroms)
 Number     Number       Type             X           Y           Z
 ---------------------------------------------------------------------
      1          6           0       -0.007137    0.006229    0.000803
      2          1           0        0.621128   -0.211967    0.880801
      3          1           0       -1.130472    0.024007    0.229579
      4          1           0        0.343258    0.949807   -0.406016
      5          1           0        0.208908   -0.799222   -0.709185
 ---------------------------------------------------------------------

 SCF Done:  E(RM062X) =  -40.4984994554     A.U. after   10 cycles

 The electronic state is 1-A.
 Alpha  occ. eigenvalues --  -10.52410  -0.78018  -0.45780  -0.45452  -0.44381
 Alpha virt. eigenvalues --    0.08461   0.15442   0.15982   0.16295   0.23704
 Alpha virt. eigenvalues --    0.23782   0.24185   0.41544   0.48780   0.50097
 Alpha virt. eigenvalues --    0.51126   0.54388   0.54702   0.56537   0.89839

 Mulliken charges:
               1
     1  C   -0.493225
     2  H    0.123265
     3  H    0.114600
     4  H    0.129085
     5  H    0.126276
 Sum of Mulliken charges =  -0.00000

 Dipole moment (field-independent basis, Debye):
    X=              0.0599    Y=             -0.0129    Z=             -0.0214  Tot=              0.0649
 Quadrupole moment (field-independent basis, Debye-Ang):
   XX=             -8.2921   YY=             -8.5269   ZZ=             -8.7070
   XY=              0.0144   XZ=              0.0076   YZ=             -0.0107

 Normal termination of Gaussian 16 at Fri Sep 22 16:47:42 2023.
