 Gaussian 16, Revision A.03,
 Gaussian 16:  ES64L-G16RevA.03 25-Dec-2016

 -----------------
 # M062X/def2TZVPP
 -----------------

 -------------------
 tmpdir/M2_ref_7.gjf
 -------------------
 Symbolic Z-matrix:
 Charge =  0 Multiplicity = 1

                         Standard orientation:
 ---------------------------------------------------------------------
 Center     Atomic      Atomic             Coordinates (Angstroms)
 Number     Number       Type             X           Y           Z
 ---------------------------------------------------------------------
      1          5           0        0.726549    0.026778   -0.006188
      2          8           0       -0.629891   -0.118158    0.002281
      3          1           0        1.259615    1.061921    0.012888
      4          1           0        1.363794   -0.904837    0.006783
      5          1           0       -1.217026    0.654291   -0.006975
 ---------------------------------------------------------------------

 SCF Done:  E(RM062X) =  -101.904468387     A.U. after   12 cycles

 The electronic state is 1-A.
 Alpha  occ. eigenvalues --  -19.64960  -7.05594  -1.14920  -0.66119  -0.53577
 Alpha  occ. eigenvalues --   -0.48416  -0.44713  -0.37689
 Alpha virt. eigenvalues --    0.01778   0.05025   0.09388   0.11729   0.15019
 Alpha virt. eigenvalues --    0.18076   0.19312   0.23697   0.35856   0.39969
 Alpha virt. eigenvalues --    0.40281   0.46678   0.51075   0.51395   0.52281

 Mulliken charges:
               1
     1  B    0.098182
     2  O   -0.346835
     3  H   -0.010124
     4  H    0.016730
     5  H    0.242047
 Sum of Mulliken charges =  -0.00000

 Dipole moment (field-independent basis, Debye):
    X=             -0.6275    Y=              1.3698    Z=             -0.0443  Tot=              1.5073
 Quadrupole moment (field-independent basis, Debye-Ang):
   XX=            -12.3695   YY=            -13.3524   ZZ=            -12.6598
   XY=             -2.1617   XZ=             -0.0004   YZ=             -0.0161

 Normal termination of Gaussian 16 at Fri Sep 22 16:47:36 2023.
