 Gaussian 16, Revision A.03,
 Gaussian 16:  ES64L-G16RevA.03 25-Dec-2016

 -----------------
 # M062X/def2TZVPP
 -----------------

 -------------------
 tmpdir/M2_ref_9.gjf
 -------------------
 Symbolic Z-matrix:
 Charge =  0 Multiplicity = 1

                         Standard orientation:
 ---------------------------------------------------------------------
 Center     Atomic      Atomic             Coordinates (Angstroms)
 Number     Number       Type             X           Y           Z
 ---------------------------------------------------------------------
      1          6           0       -1.286696   -0.172792    0.002615
      2          5           0        0.122102    0.539389   -0.003967
      3          8           0        1.305323   -0.139576   -0.002108
      4          1           0       -2.139110    0.551674   -0.248533
      5          1           0       -1.392166   -0.656873    0.988143
      6          1           0       -1.281899   -0.996381   -0.719319
      7          1           0        0.152928    1.667263    0.029290
      8          1           0        1.327331   -1.109270   -0.028577
 ---------------------------------------------------------------------

 SCF Done:  E(RM062X) =  -141.227446911     A.U. after   12 cycles

 The electronic state is 1-A.
 Alpha  occ. eigenvalues --  -19.64095 -10.51319  -7.05171  -1.14338  -0.78352
 Alpha  occ. eigenvalues --   -0.65086  -0.50344  -0.49676  -0.47420  -0.43254
 Alpha  occ. eigenvalues --   -0.42682  -0.35905
 Alpha virt. eigenvalues --    0.03718   0.04751   0.08225   0.10690   0.12400
 Alpha virt. eigenvalues --    0.13787   0.17081   0.19157   0.21744   0.22020
 Alpha virt. eigenvalues --    0.26486   0.27028   0.29969   0.35277   0.37018

 Mulliken charges:
               1
     1  C   -0.403149
     2  B    0.148729
     3  O   -0.349037
     4  H    0.112704
     5  H    0.122604
     6  H    0.109488
     7  H    0.027313
     8  H    0.231348
 Sum of Mulliken charges =  -0.00000

 Dipole moment (field-independent basis, Debye):
    X=             -0.5916    Y=             -1.5516    Z=             -0.0430  Tot=              1.6611
 Quadrupole moment (field-independent basis, Debye-Ang):
   XX=            -22.2023   YY=            -18.1311   ZZ=            -19.2594
   XY=             -2.5417   XZ=             -0.0113   YZ=             -0.1008

 Normal termination of Gaussian 16 at Fri Sep 22 16:47:39 2023.
