 Gaussian 16, Revision A.03,
 Gaussian 16:  ES64L-G16RevA.03 25-Dec-2016

 -----------------
 # M062X/def2TZVPP
 -----------------

 --------------------
 tmpdir/M2_ref_36.gjf
 --------------------
 Symbolic Z-matrix:
 Charge =  0 Multiplicity = 1

                         Standard orientation:
 ---------------------------------------------------------------------
 Center     Atomic      Atomic             Coordinates (Angstroms)
 Number     Number       Type             X           Y           Z
 ---------------------------------------------------------------------
      1          8           0       -0.738767    0.106807    0.000278
      2          6           0        0.672843   -0.019049    0.000036
      3          1           0        1.015478   -0.553291    0.886412
      4          1           0       -1.247838   -0.611305   -0.001185
      5          1           0        1.013603   -0.559562   -0.882992
      6          1           0        1.091838    0.983995   -0.004678
 ---------------------------------------------------------------------

 SCF Done:  E(RM062X) =  -115.707671089     A.U. after   11 cycles

 The electronic state is 1-A.
 Alpha  occ. eigenvalues --  -19.60775 -10.57914  -1.14984  -0.79084  -0.59568
 Alpha  occ. eigenvalues --   -0.51581  -0.50581  -0.39924  -0.35354
 Alpha virt. eigenvalues --    0.06889   0.10692   0.15519   0.15766   0.17194
 Alpha virt. eigenvalues --    0.24538   0.25516   0.34631   0.39664   0.44212
 Alpha virt. eigenvalues --    0.47128   0.48252   0.52609   0.53349   0.54237

 Mulliken charges:
               1
     1  O   -0.344937
     2  C   -0.172664
     3  H    0.114124
     4  H    0.161136
     5  H    0.114135
     6  H    0.128207
 Sum of Mulliken charges =  -0.00000

 Dipole moment (field-independent basis, Debye):
    X=              0.6843    Y=             -1.3565    Z=             -0.0037  Tot=              1.5193
 Quadrupole moment (field-independent basis, Debye-Ang):
   XX=            -12.2017   YY=            -12.5284   ZZ=            -13.7001
   XY=              2.2174   XZ=              0.0036   YZ=              0.0004

 Normal termination of Gaussian 16 at Fri Sep 22 16:48:34 2023.
