 Gaussian 16, Revision A.03,
 Gaussian 16:  ES64L-G16RevA.03 25-Dec-2016

 -----------------
 # M062X/def2TZVPP
 -----------------

 --------------------
 tmpdir/M2_ref_23.gjf
 --------------------
 Symbolic Z-matrix:
 Charge =  0 Multiplicity = 1

                         Standard orientation:
 ---------------------------------------------------------------------
 Center     Atomic      Atomic             Coordinates (Angstroms)
 Number     Number       Type             X           Y           Z
 ---------------------------------------------------------------------
      1          5           0        1.286568    0.228074   -0.005633
      2          8           0        0.140184   -0.500056   -0.000585
      3          6           0       -1.118715    0.150831    0.001043
      4          1           0        2.302823   -0.340016    0.017696
      5          1           0        1.204500    1.358901    0.005628
      6          1           0       -1.231904    0.775754    0.887122
      7          1           0       -1.231177    0.779390   -0.882290
      8          1           0       -1.886258   -0.618939   -0.001570
 ---------------------------------------------------------------------

 SCF Done:  E(RM062X) =  -141.196292382     A.U. after   12 cycles

 The electronic state is 1-A.
 Alpha  occ. eigenvalues --  -19.64564 -10.58903  -7.04907  -1.16021  -0.79621
 Alpha  occ. eigenvalues --   -0.61814  -0.54469  -0.53791  -0.50518  -0.42900
 Alpha  occ. eigenvalues --   -0.39173  -0.37308
 Alpha virt. eigenvalues --    0.01297   0.06912   0.09856   0.10600   0.12554
 Alpha virt. eigenvalues --    0.15287   0.16265   0.17961   0.18714   0.20439
 Alpha virt. eigenvalues --    0.25321   0.25400   0.29212   0.35995   0.37538

 Mulliken charges:
               1
     1  B    0.089004
     2  O   -0.291355
     3  C   -0.204766
     4  H    0.005977
     5  H    0.010580
     6  H    0.127598
     7  H    0.126765
     8  H    0.136197
 Sum of Mulliken charges =  -0.00000

 Dipole moment (field-independent basis, Debye):
    X=             -1.2294    Y=              0.9241    Z=             -0.0248  Tot=              1.5382
 Quadrupole moment (field-independent basis, Debye-Ang):
   XX=            -19.0645   YY=            -21.2981   ZZ=            -18.8539
   XY=              0.0686   XZ=             -0.0456   YZ=             -0.0013

 Normal termination of Gaussian 16 at Fri Sep 22 16:48:51 2023.
