 Gaussian 16, Revision A.03,
 Gaussian 16:  ES64L-G16RevA.03 25-Dec-2016

 -----------------
 # M062X/def2TZVPP
 -----------------

 -------------------
 tmpdir/M2_ref_8.gjf
 -------------------
 Symbolic Z-matrix:
 Charge =  0 Multiplicity = 1

                         Standard orientation:
 ---------------------------------------------------------------------
 Center     Atomic      Atomic             Coordinates (Angstroms)
 Number     Number       Type             X           Y           Z
 ---------------------------------------------------------------------
      1          5           0        0.726981    0.041927   -0.005816
      2          8           0       -0.620048   -0.130907    0.000243
      3          1           0        1.406127   -0.903827    0.012998
      4          1           0        1.132583    1.100652    0.009047
      5          1           0       -1.213236    0.640792    0.005094
 ---------------------------------------------------------------------

 SCF Done:  E(RM062X) =  -101.905197676     A.U. after   12 cycles

 The electronic state is 1-A.
 Alpha  occ. eigenvalues --  -19.64808  -7.05495  -1.14930  -0.65905  -0.53979
 Alpha  occ. eigenvalues --   -0.47910  -0.44701  -0.37889
 Alpha virt. eigenvalues --    0.01883   0.05006   0.09548   0.11577   0.15158
 Alpha virt. eigenvalues --    0.18107   0.18675   0.24187   0.36080   0.40063
 Alpha virt. eigenvalues --    0.40704   0.45847   0.51011   0.51873   0.52390

 Mulliken charges:
               1
     1  B    0.094378
     2  O   -0.339685
     3  H    0.000410
     4  H    0.001437
     5  H    0.243460
 Sum of Mulliken charges =  -0.00000

 Dipole moment (field-independent basis, Debye):
    X=             -0.6246    Y=              1.3943    Z=             -0.0195  Tot=              1.5279
 Quadrupole moment (field-independent basis, Debye-Ang):
   XX=            -12.3679   YY=            -13.3307   ZZ=            -12.6758
   XY=             -2.1326   XZ=             -0.0392   YZ=              0.0084

 Normal termination of Gaussian 16 at Fri Sep 22 16:47:42 2023.
