 Gaussian 16, Revision A.03,
 Gaussian 16:  ES64L-G16RevA.03 25-Dec-2016

 -----------------
 # M062X/def2TZVPP
 -----------------

 --------------------
 tmpdir/M2_ref_11.gjf
 --------------------
 Symbolic Z-matrix:
 Charge =  0 Multiplicity = 1

                         Standard orientation:
 ---------------------------------------------------------------------
 Center     Atomic      Atomic             Coordinates (Angstroms)
 Number     Number       Type             X           Y           Z
 ---------------------------------------------------------------------
      1          8           0       -1.114620   -0.294950    0.001876
      2          5           0       -0.004659    0.498084   -0.007697
      3          8           0        1.214035   -0.101170    0.001011
      4          1           0       -2.005658    0.089138   -0.002544
      5          1           0       -0.049209    1.661483    0.016047
      6          1           0        1.282848   -1.072086    0.001885
 ---------------------------------------------------------------------

 SCF Done:  E(RM062X) =  -177.215444109     A.U. after   12 cycles

 The electronic state is 1-A.
 Alpha  occ. eigenvalues --  -19.63845 -19.63076  -7.07947  -1.15909  -1.12372
 Alpha  occ. eigenvalues --   -0.66517  -0.62586  -0.52217  -0.47180  -0.44561
 Alpha  occ. eigenvalues --   -0.40762  -0.40435
 Alpha virt. eigenvalues --    0.05187   0.06487   0.07160   0.11152   0.14688
 Alpha virt. eigenvalues --    0.15917   0.17617   0.23546   0.34799   0.37980
 Alpha virt. eigenvalues --    0.40526   0.44838   0.45727   0.49520   0.50628

 Mulliken charges:
               1
     1  O   -0.368334
     2  B    0.279741
     3  O   -0.375231
     4  H    0.244693
     5  H   -0.020745
     6  H    0.239876
 Sum of Mulliken charges =  -0.00000

 Dipole moment (field-independent basis, Debye):
    X=             -1.5133    Y=             -0.3855    Z=             -0.0376  Tot=              1.5621
 Quadrupole moment (field-independent basis, Debye-Ang):
   XX=            -15.5336   YY=            -16.9949   ZZ=            -18.1346
   XY=             -3.7623   XZ=              0.0186   YZ=             -0.0242

 Normal termination of Gaussian 16 at Fri Sep 22 16:48:08 2023.
