 Gaussian 16, Revision A.03,
 Gaussian 16:  ES64L-G16RevA.03 25-Dec-2016

 -----------------
 # M062X/def2TZVPP
 -----------------

 --------------------
 tmpdir/M2_ref_21.gjf
 --------------------
 Symbolic Z-matrix:
 Charge =  0 Multiplicity = 1

                         Standard orientation:
 ---------------------------------------------------------------------
 Center     Atomic      Atomic             Coordinates (Angstroms)
 Number     Number       Type             X           Y           Z
 ---------------------------------------------------------------------
      1          5           0       -1.295454    0.210117    0.006675
      2          8           0       -0.128818   -0.496889   -0.003859
      3          6           0        1.122641    0.158663    0.001408
      4          1           0       -1.338854    1.373557   -0.017146
      5          1           0       -2.267910   -0.362984    0.000352
      6          1           0        1.318055    0.616551    0.972397
      7          1           0        1.889868   -0.585632   -0.198042
      8          1           0        1.170807    0.931052   -0.768513
 ---------------------------------------------------------------------

 SCF Done:  E(RM062X) =  -141.195504392     A.U. after   12 cycles

 The electronic state is 1-A.
 Alpha  occ. eigenvalues --  -19.64765 -10.58916  -7.05015  -1.16092  -0.79635
 Alpha  occ. eigenvalues --   -0.61782  -0.54398  -0.53852  -0.50956  -0.42745
 Alpha  occ. eigenvalues --   -0.39180  -0.37150
 Alpha virt. eigenvalues --    0.01237   0.06828   0.09750   0.10627   0.12670
 Alpha virt. eigenvalues --    0.15249   0.16120   0.18384   0.18988   0.20399
 Alpha virt. eigenvalues --    0.23768   0.25570   0.29525   0.35952   0.37256

 Mulliken charges:
               1
     1  B    0.089122
     2  O   -0.298174
     3  C   -0.198998
     4  H    0.000391
     5  H    0.021714
     6  H    0.130188
     7  H    0.135345
     8  H    0.120412
 Sum of Mulliken charges =  -0.00000

 Dipole moment (field-independent basis, Debye):
    X=              1.2150    Y=              0.8996    Z=              0.0385  Tot=              1.5123
 Quadrupole moment (field-independent basis, Debye-Ang):
   XX=            -19.0383   YY=            -21.3661   ZZ=            -18.8291
   XY=             -0.0397   XZ=             -0.0472   YZ=              0.0308

 Normal termination of Gaussian 16 at Fri Sep 22 16:48:27 2023.
