 Gaussian 16, Revision A.03,
 Gaussian 16:  ES64L-G16RevA.03 25-Dec-2016

 -----------------
 # M062X/def2TZVPP
 -----------------

 -------------------
 tmpdir/M2_ref_6.gjf
 -------------------
 Symbolic Z-matrix:
 Charge =  0 Multiplicity = 1

                         Standard orientation:
 ---------------------------------------------------------------------
 Center     Atomic      Atomic             Coordinates (Angstroms)
 Number     Number       Type             X           Y           Z
 ---------------------------------------------------------------------
      1          5           0        0.885050    0.004159   -0.010531
      2          6           0       -0.693483    0.001959    0.003146
      3          1           0        1.509150   -0.941834   -0.045565
      4          1           0        1.420473    0.995669    0.055687
      5          1           0       -1.129624    1.040833   -0.209124
      6          1           0       -1.001112   -0.417752    0.975735
      7          1           0       -1.063240   -0.709465   -0.742955
 ---------------------------------------------------------------------

 SCF Done:  E(RM062X) =  -65.9165245054     A.U. after   10 cycles

 The electronic state is 1-A.
 Alpha  occ. eigenvalues --  -10.51586  -7.03357  -0.78447  -0.56394  -0.47980
 Alpha  occ. eigenvalues --   -0.46211  -0.39015  -0.38317
 Alpha virt. eigenvalues --   -0.01308   0.06060   0.09757   0.10533   0.12987
 Alpha virt. eigenvalues --    0.15736   0.17990   0.19808   0.22370   0.23107
 Alpha virt. eigenvalues --    0.23954   0.26690   0.31004   0.36448   0.43616

 Mulliken charges:
               1
     1  B   -0.075155
     2  C   -0.367153
     3  H    0.045517
     4  H    0.048750
     5  H    0.108820
     6  H    0.116961
     7  H    0.122261
 Sum of Mulliken charges =  -0.00000

 Dipole moment (field-independent basis, Debye):
    X=             -0.3682    Y=             -0.1315    Z=              0.0081  Tot=              0.3910
 Quadrupole moment (field-independent basis, Debye-Ang):
   XX=            -16.4932   YY=            -15.4727   ZZ=            -13.6589
   XY=              0.0371   XZ=             -0.0639   YZ=             -0.2368

 Normal termination of Gaussian 16 at Fri Sep 22 16:47:30 2023.
