 Gaussian 16, Revision A.03,
 Gaussian 16:  ES64L-G16RevA.03 25-Dec-2016

 -----------------
 # M062X/def2TZVPP
 -----------------

 --------------------
 tmpdir/M2_ref_15.gjf
 --------------------
 Symbolic Z-matrix:
 Charge =  0 Multiplicity = 1

                         Standard orientation:
 ---------------------------------------------------------------------
 Center     Atomic      Atomic             Coordinates (Angstroms)
 Number     Number       Type             X           Y           Z
 ---------------------------------------------------------------------
      1          7           0       -0.748965   -0.003239   -0.115958
      2          6           0        0.704266    0.006344    0.009546
      3          1           0        1.069266   -0.401831    0.967091
      4          1           0       -1.147567    0.828181    0.298607
      5          1           0       -1.163503   -0.809445    0.328661
      6          1           0        1.116820    1.006511   -0.080354
      7          1           0        1.142146   -0.638809   -0.759576
 ---------------------------------------------------------------------

 SCF Done:  E(RM062X) =  -95.8435962963     A.U. after   11 cycles

 The electronic state is 1-A.
 Alpha  occ. eigenvalues --  -14.72124 -10.54992  -0.97795  -0.74747  -0.56475
 Alpha  occ. eigenvalues --   -0.50562  -0.46594  -0.43398  -0.30097
 Alpha virt. eigenvalues --    0.06424   0.11002   0.12118   0.16044   0.17121
 Alpha virt. eigenvalues --    0.19825   0.25815   0.26928   0.32160   0.39225
 Alpha virt. eigenvalues --    0.40909   0.41691   0.45155   0.48974   0.50378

 Mulliken charges:
               1
     1  N   -0.380270
     2  C   -0.240564
     3  H    0.102199
     4  H    0.140767
     5  H    0.143977
     6  H    0.115331
     7  H    0.118560
 Sum of Mulliken charges =  -0.00000

 Dipole moment (field-independent basis, Debye):
    X=              0.1983    Y=              0.0625    Z=              1.3024  Tot=              1.3189
 Quadrupole moment (field-independent basis, Debye-Ang):
   XX=            -13.8469   YY=            -12.5467   ZZ=            -15.5904
   XY=              0.1235   XZ=             -1.8889   YZ=              0.0139

 Normal termination of Gaussian 16 at Fri Sep 22 16:47:53 2023.
