 Gaussian 16, Revision A.03,
 Gaussian 16:  ES64L-G16RevA.03 25-Dec-2016

 -----------------
 # M062X/def2TZVPP
 -----------------

 -------------------
 tmpdir/M2_ref_3.gjf
 -------------------
 Symbolic Z-matrix:
 Charge =  0 Multiplicity = 1

                         Standard orientation:
 ---------------------------------------------------------------------
 Center     Atomic      Atomic             Coordinates (Angstroms)
 Number     Number       Type             X           Y           Z
 ---------------------------------------------------------------------
      1          1           0       -0.365136    0.884079    0.221236
      2          7           0        0.002333   -0.002359   -0.096883
      3          1           0       -0.612309   -0.735133    0.226774
      4          1           0        0.961117   -0.132430    0.230168
 ---------------------------------------------------------------------

 SCF Done:  E(RM062X) =  -56.5511173689     A.U. after   12 cycles

 The electronic state is 1-A.
 Alpha  occ. eigenvalues --  -14.71903  -0.94745  -0.53655  -0.53043  -0.32901
 Alpha virt. eigenvalues --    0.05986   0.13939   0.14161   0.34198   0.34774
 Alpha virt. eigenvalues --    0.39173   0.46684   0.50069   0.53126   0.53356
 Alpha virt. eigenvalues --    0.61844   0.63037   0.95813   0.96319   1.03760

 Mulliken charges:
               1
     1  H    0.157544
     2  N   -0.485853
     3  H    0.159908
     4  H    0.168401
 Sum of Mulliken charges =   0.00000

 Dipole moment (field-independent basis, Debye):
    X=             -0.0221    Y=              0.0209    Z=              1.4300  Tot=              1.4303
 Quadrupole moment (field-independent basis, Debye-Ang):
   XX=             -6.0058   YY=             -6.1999   ZZ=             -9.3650
   XY=              0.0044   XZ=              0.0006   YZ=             -0.0066

 Normal termination of Gaussian 16 at Fri Sep 22 16:47:25 2023.
