 Gaussian 16, Revision A.03,
 Gaussian 16:  ES64L-G16RevA.03 25-Dec-2016

 -----------------
 # M062X/def2TZVPP
 -----------------

 --------------------
 tmpdir/M2_ref_42.gjf
 --------------------
 Symbolic Z-matrix:
 Charge =  0 Multiplicity = 1

                         Standard orientation:
 ---------------------------------------------------------------------
 Center     Atomic      Atomic             Coordinates (Angstroms)
 Number     Number       Type             X           Y           Z
 ---------------------------------------------------------------------
      1          1           0       -0.000000    0.000000    0.369626
      2          1           0        0.000000   -0.000000   -0.369626
 ---------------------------------------------------------------------

 SCF Done:  E(RM062X) =  -1.16886906950     A.U. after    9 cycles

 The electronic state is 1-SGG.
 Alpha  occ. eigenvalues --   -0.49687
 Alpha virt. eigenvalues --    0.10742   0.24142   0.56755   0.57827   0.57827
 Alpha virt. eigenvalues --    0.96571   0.99159   0.99159   1.42371   2.14294
 Alpha virt. eigenvalues --    2.22668   2.87283   2.87284   3.37483   3.58746

 Mulliken charges:
               1
     1  H    0.000000
     2  H    0.000000
 Sum of Mulliken charges =   0.00000

 Dipole moment (field-independent basis, Debye):
    X=              0.0000    Y=              0.0000    Z=             -0.0000  Tot=              0.0000
 Quadrupole moment (field-independent basis, Debye-Ang):
   XX=             -2.0815   YY=             -2.0815   ZZ=             -1.4945
   XY=             -0.0000   XZ=             -0.0000   YZ=              0.0000

 Normal termination of Gaussian 16 at Fri Sep 22 16:48:36 2023.
