 Gaussian 16, Revision A.03,
 Gaussian 16:  ES64L-G16RevA.03 25-Dec-2016

 -----------------
 # M062X/def2TZVPP
 -----------------

 --------------------
 tmpdir/M2_ref_10.gjf
 --------------------
 Symbolic Z-matrix:
 Charge =  0 Multiplicity = 1

                         Standard orientation:
 ---------------------------------------------------------------------
 Center     Atomic      Atomic             Coordinates (Angstroms)
 Number     Number       Type             X           Y           Z
 ---------------------------------------------------------------------
      1          6           0        1.303843   -0.155298    0.004931
      2          5           0       -0.128936    0.506788   -0.022277
      3          8           0       -1.216133   -0.306566    0.006932
      4          1           0        1.268371   -1.274236   -0.242572
      5          1           0        1.736256    0.066226    0.995219
      6          1           0        1.955592    0.357183   -0.710678
      7          1           0       -0.297166    1.628086   -0.026993
      8          1           0       -2.112367    0.073117    0.011362
 ---------------------------------------------------------------------

 SCF Done:  E(RM062X) =  -141.230214940     A.U. after   12 cycles

 The electronic state is 1-A.
 Alpha  occ. eigenvalues --  -19.63967 -10.50675  -7.05020  -1.14306  -0.77825
 Alpha  occ. eigenvalues --   -0.63970  -0.53843  -0.46786  -0.45267  -0.43410
 Alpha  occ. eigenvalues --   -0.42687  -0.36205
 Alpha virt. eigenvalues --    0.04080   0.05167   0.07455   0.10999   0.13084
 Alpha virt. eigenvalues --    0.15285   0.16037   0.19762   0.20652   0.23007
 Alpha virt. eigenvalues --    0.25440   0.27110   0.30074   0.36912   0.38666

 Mulliken charges:
               1
     1  C   -0.387877
     2  B    0.142195
     3  O   -0.333895
     4  H    0.110794
     5  H    0.111809
     6  H    0.115005
     7  H    0.002493
     8  H    0.239477
 Sum of Mulliken charges =  -0.00000

 Dipole moment (field-independent basis, Debye):
    X=             -0.9124    Y=              0.8801    Z=             -0.0012  Tot=              1.2677
 Quadrupole moment (field-independent basis, Debye-Ang):
   XX=            -15.9200   YY=            -21.3249   ZZ=            -19.2901
   XY=             -1.1821   XZ=              0.0303   YZ=              0.1582

 Normal termination of Gaussian 16 at Fri Sep 22 16:47:58 2023.
