 Gaussian 16, Revision A.03,
 Gaussian 16:  ES64L-G16RevA.03 25-Dec-2016

 ----------------
 # b3lyp/6-31g(d)
 ----------------

 ----------------------
 tmpdir/M1_conf_0_3.gjf
 ----------------------
 Symbolic Z-matrix:
 Charge =  0 Multiplicity = 1

                         Standard orientation:
 ---------------------------------------------------------------------
 Center     Atomic      Atomic             Coordinates (Angstroms)
 Number     Number       Type             X           Y           Z
 ---------------------------------------------------------------------
      1          7           0       -0.633208   -0.014070    0.098354
      2          8           0        0.703275    0.014584   -0.153391
      3          1           0        1.041519   -0.133976    0.873820
      4          1           0       -1.044073    0.904403   -0.070681
      5          1           0       -1.191192   -0.788607   -0.264490
 ---------------------------------------------------------------------

 SCF Done:  E(RB3LYP) =  -131.680833685     A.U. after   12 cycles

 The electronic state is 1-A.
 Alpha  occ. eigenvalues --  -19.17776 -14.34818  -1.05759  -0.76620  -0.50726
 Alpha  occ. eigenvalues --   -0.48979  -0.43366  -0.28133  -0.21467
 Alpha virt. eigenvalues --    0.05379   0.08882   0.16173   0.20581   0.63442
 Alpha virt. eigenvalues --    0.72349   0.74685   0.75783   0.80271   0.89772
 Alpha virt. eigenvalues --    0.92332   0.99044   1.00385   1.16476   1.34203

 Mulliken charges:
               1
     1  N   -0.518762
     2  O   -0.490449
     3  H    0.387065
     4  H    0.309284
     5  H    0.312862
 Sum of Mulliken charges =   0.00000

 Dipole moment (field-independent basis, Debye):
    X=             -0.8734    Y=             -0.0641    Z=              0.6318  Tot=              1.0798
 Quadrupole moment (field-independent basis, Debye-Ang):
   XX=            -10.6680   YY=            -11.1057   ZZ=            -12.4735
   XY=             -0.2741   XZ=              2.9963   YZ=              0.0582

 Normal termination of Gaussian 16 at Wed Jul  3 14:23:02 2019.
