 Gaussian 16, Revision A.03,
 Gaussian 16:  ES64L-G16RevA.03 25-Dec-2016

 ----------------
 # b3lyp/6-31g(d)
 ----------------

 ----------------------
 tmpdir/M1_conf_0_1.gjf
 ----------------------
 Symbolic Z-matrix:
 Charge =  0 Multiplicity = 1

                         Standard orientation:
 ---------------------------------------------------------------------
 Center     Atomic      Atomic             Coordinates (Angstroms)
 Number     Number       Type             X           Y           Z
 ---------------------------------------------------------------------
      1          6           0       -0.779610    0.005870   -0.003598
      2          1           0       -1.170484   -0.337724    0.962012
      3          1           0       -1.152188   -0.702470   -0.754355
      4          6           0        0.781140    0.001416    0.004342
      5          1           0        1.157374   -0.526231   -0.880568
      6          1           0        1.179598   -0.527274    0.875443
      7          1           0       -1.164946    0.994111   -0.191826
      8          1           0        1.141468    1.055874   -0.015168
 ---------------------------------------------------------------------

 SCF Done:  E(RB3LYP) =  -79.8247661288     A.U. after   11 cycles

 The electronic state is 1-A.
 Alpha  occ. eigenvalues --  -10.17424 -10.17066  -0.74228  -0.61078  -0.43439
 Alpha  occ. eigenvalues --   -0.42635  -0.35446  -0.34299  -0.33635
 Alpha virt. eigenvalues --    0.10250   0.13536   0.13814   0.15663   0.23139
 Alpha virt. eigenvalues --    0.23318   0.23537   0.52030   0.53442   0.54139
 Alpha virt. eigenvalues --    0.65644   0.67110   0.68756   0.86130   0.86485

 Mulliken charges:
               1
     1  C   -0.442044
     2  H    0.145522
     3  H    0.145697
     4  C   -0.439508
     5  H    0.147018
     6  H    0.148579
     7  H    0.152048
     8  H    0.142688
 Sum of Mulliken charges =   0.00000

 Dipole moment (field-independent basis, Debye):
    X=             -0.0177    Y=             -0.0213    Z=              0.0001  Tot=              0.0277
 Quadrupole moment (field-independent basis, Debye-Ang):
   XX=            -15.4307   YY=            -14.4816   ZZ=            -14.7657
   XY=             -0.0863   XZ=             -0.0079   YZ=             -0.0159

 Normal termination of Gaussian 16 at Wed Jul  3 14:23:03 2019.
