 Gaussian 16, Revision A.03,
 Gaussian 16:  ES64L-G16RevA.03 25-Dec-2016

 ------------------
 # ub3lyp/6-31+g(d)
 ------------------

 ----------------------
 tmpdir/M1_conf_0_1.gjf
 ----------------------
 Symbolic Z-matrix:
 Charge =  0 Multiplicity = 2

                         Standard orientation:
 ---------------------------------------------------------------------
 Center     Atomic      Atomic             Coordinates (Angstroms)
 Number     Number       Type             X           Y           Z
 ---------------------------------------------------------------------
      1          6           0        0.010508   -0.007528   -0.034399
      2          1           0        1.087785   -0.064137    0.072917
      3          1           0       -0.501393    0.953948    0.064420
      4          1           0       -0.649440   -0.844644    0.069059
 ---------------------------------------------------------------------

 SCF Done:  E(UB3LYP) =  -39.8409800896     A.U. after   11 cycles

 The electronic state is 2-A.
 Alpha  occ. eigenvalues --  -10.20466  -0.69201  -0.43505  -0.41506  -0.23778
 Alpha virt. eigenvalues --    0.01968   0.05755   0.06005   0.07394   0.18065
 Alpha virt. eigenvalues --    0.18826   0.20888   0.63600   0.64163   0.64816
 Alpha virt. eigenvalues --    0.82680   0.93347   0.96638   0.99395   1.63441

  Beta  occ. eigenvalues --  -10.19079  -0.65318  -0.42565  -0.40536
  Beta virt. eigenvalues --   -0.07697   0.02503   0.05746   0.05994   0.09903
  Beta virt. eigenvalues --    0.18681   0.20052   0.21962   0.64580   0.65179
  Beta virt. eigenvalues --    0.71695   0.85018   0.93681   0.97513   1.01271

 Mulliken charges and spin densities:
               1          2
     1  C   -0.592122   1.148042
     2  H    0.200487  -0.049029
     3  H    0.192614  -0.049751
     4  H    0.199021  -0.049262
 Sum of Mulliken charges =   0.00000   1.00000

 Dipole moment (field-independent basis, Debye):
    X=             -0.0261    Y=              0.0068    Z=              0.2553  Tot=              0.2567
 Quadrupole moment (field-independent basis, Debye-Ang):
   XX=             -7.1168   YY=             -7.5408   ZZ=             -9.3280
   XY=              0.0320   XZ=              0.0026   YZ=             -0.0034

 Normal termination of Gaussian 16 at Thu Oct 12 15:18:05 2023.
