 Gaussian 16, Revision A.03,
 Gaussian 16:  ES64L-G16RevA.03 25-Dec-2016

 ------------------
 # ub3lyp/6-31+g(d)
 ------------------

 ----------------------
 tmpdir/M1_conf_0_5.gjf
 ----------------------
 Symbolic Z-matrix:
 Charge =  0 Multiplicity = 1

                         Standard orientation:
 ---------------------------------------------------------------------
 Center     Atomic      Atomic             Coordinates (Angstroms)
 Number     Number       Type             X           Y           Z
 ---------------------------------------------------------------------
      1          6           0        1.224574   -0.664426    0.000347
      2          6           0        0.037863   -1.397852    0.000369
      3          6           0       -1.180545   -0.732056   -0.004002
      4          6           0       -1.217080    0.668850    0.000484
      5          6           0       -0.035823    1.397075    0.000478
      6          6           0        1.188135    0.726879   -0.000238
      7          1           0        2.179541   -1.181882    0.000771
      8          1           0        0.063919   -2.484808    0.001138
      9          1           0       -0.065273    2.483907    0.001905
     10          1           0        2.114181    1.294207   -0.000508
     11          1           0       -2.177008   -1.198363    0.013763
     12          1           0       -2.218103    1.096120   -0.001696
 ---------------------------------------------------------------------

 SCF Done:  E(UB3LYP) =  -232.256131032     A.U. after   11 cycles

 The electronic state is 1-A.
 Alpha  occ. eigenvalues --  -10.19809 -10.19770 -10.19739 -10.19696 -10.19692
 Alpha  occ. eigenvalues --  -10.19552  -0.85940  -0.75139  -0.75091  -0.61061
 Alpha  occ. eigenvalues --   -0.60434  -0.52843  -0.46546  -0.45137  -0.42812
 Alpha  occ. eigenvalues --   -0.42400  -0.37109  -0.35239  -0.34503  -0.25859
 Alpha  occ. eigenvalues --   -0.25708
 Alpha virt. eigenvalues --   -0.01349  -0.01334   0.00849   0.02534   0.02682
 Alpha virt. eigenvalues --    0.04536   0.04687   0.06653   0.07830   0.07897
 Alpha virt. eigenvalues --    0.09190   0.09238   0.09963   0.12840   0.14272

  Beta  occ. eigenvalues --  -10.19809 -10.19770 -10.19739 -10.19696 -10.19692
  Beta  occ. eigenvalues --  -10.19552  -0.85940  -0.75139  -0.75091  -0.61061
  Beta  occ. eigenvalues --   -0.60434  -0.52843  -0.46546  -0.45137  -0.42812
  Beta  occ. eigenvalues --   -0.42400  -0.37109  -0.35239  -0.34503  -0.25859
  Beta  occ. eigenvalues --   -0.25708
  Beta virt. eigenvalues --   -0.01349  -0.01334   0.00849   0.02534   0.02682
  Beta virt. eigenvalues --    0.04536   0.04687   0.06653   0.07830   0.07897
  Beta virt. eigenvalues --    0.09190   0.09238   0.09963   0.12840   0.14272

 Mulliken charges and spin densities:
               1          2
     1  C   -0.176877  -0.000000
     2  C   -0.205664   0.000000
     3  C   -0.146113  -0.000000
     4  C   -0.164959   0.000000
     5  C   -0.190953  -0.000000
     6  C   -0.181445   0.000000
     7  H    0.178134   0.000000
     8  H    0.178583   0.000000
     9  H    0.178154   0.000000
    10  H    0.178005  -0.000000
    11  H    0.176840  -0.000000
    12  H    0.176296   0.000000
 Sum of Mulliken charges =  -0.00000  -0.00000

 Dipole moment (field-independent basis, Debye):
    X=             -0.0149    Y=              0.0100    Z=              0.0122  Tot=              0.0217
 Quadrupole moment (field-independent basis, Debye-Ang):
   XX=            -31.9443   YY=            -32.5679   ZZ=            -40.3551
   XY=             -0.0163   XZ=             -0.0290   YZ=             -0.0193

 Normal termination of Gaussian 16 at Thu Oct 12 15:18:28 2023.
