 Gaussian 16, Revision A.03,
 Gaussian 16:  ES64L-G16RevA.03 25-Dec-2016

 ------------------
 # ub3lyp/6-31+g(d)
 ------------------

 ----------------------
 tmpdir/M1_conf_0_4.gjf
 ----------------------
 Symbolic Z-matrix:
 Charge =  0 Multiplicity = 1

                         Standard orientation:
 ---------------------------------------------------------------------
 Center     Atomic      Atomic             Coordinates (Angstroms)
 Number     Number       Type             X           Y           Z
 ---------------------------------------------------------------------
      1          6           0       -0.681809   -0.015204   -0.004949
      2          6           0        0.691803   -0.006900   -0.034853
      3          1           0        1.300850   -0.898953    0.040784
      4          1           0       -1.274003   -0.919911    0.085415
      5          1           0       -1.183003    0.954430   -0.024896
      6          1           0        1.096193    0.997061    0.137510
 ---------------------------------------------------------------------

 SCF Done:  E(UB3LYP) =  -78.5863389293     A.U. after    9 cycles

 The electronic state is 1-A.
 Alpha  occ. eigenvalues --  -10.20100 -10.20005  -0.75939  -0.58472  -0.47861
 Alpha  occ. eigenvalues --   -0.41178  -0.37044  -0.27117
 Alpha virt. eigenvalues --   -0.01714   0.02489   0.03357   0.04644   0.06968
 Alpha virt. eigenvalues --    0.08531   0.08729   0.12495   0.15620   0.17142
 Alpha virt. eigenvalues --    0.20110   0.24167   0.32203   0.34977   0.58700

  Beta  occ. eigenvalues --  -10.20100 -10.20005  -0.75939  -0.58472  -0.47861
  Beta  occ. eigenvalues --   -0.41178  -0.37044  -0.27117
  Beta virt. eigenvalues --   -0.01714   0.02489   0.03357   0.04644   0.06968
  Beta virt. eigenvalues --    0.08531   0.08729   0.12495   0.15620   0.17142
  Beta virt. eigenvalues --    0.20110   0.24167   0.32203   0.34977   0.58700

 Mulliken charges and spin densities:
               1          2
     1  C   -0.367792  -0.000000
     2  C   -0.369031   0.000000
     3  H    0.188957  -0.000000
     4  H    0.186952   0.000000
     5  H    0.181958   0.000000
     6  H    0.178956   0.000000
 Sum of Mulliken charges =  -0.00000  -0.00000

 Dipole moment (field-independent basis, Debye):
    X=             -0.0509    Y=              0.0053    Z=              0.2631  Tot=              0.2681
 Quadrupole moment (field-independent basis, Debye-Ang):
   XX=            -12.7250   YY=            -12.2808   ZZ=            -16.1950
   XY=             -0.1496   XZ=              0.1430   YZ=              0.0118

 Normal termination of Gaussian 16 at Thu Oct 12 15:18:09 2023.
