 Gaussian 16, Revision A.03,
 Gaussian 16:  ES64L-G16RevA.03 25-Dec-2016

 ------------------
 # ub3lyp/6-31+g(d)
 ------------------

 ----------------------
 tmpdir/M1_conf_0_2.gjf
 ----------------------
 Symbolic Z-matrix:
 Charge =  0 Multiplicity = 2

                         Standard orientation:
 ---------------------------------------------------------------------
 Center     Atomic      Atomic             Coordinates (Angstroms)
 Number     Number       Type             X           Y           Z
 ---------------------------------------------------------------------
      1          6           0       -0.015121    0.004388   -0.056090
      2          1           0       -1.085581   -0.059835    0.121138
      3          1           0        0.635609   -0.871042    0.104820
      4          1           0        0.540696    0.904547    0.110583
 ---------------------------------------------------------------------

 SCF Done:  E(UB3LYP) =  -39.8392916545     A.U. after   11 cycles

 The electronic state is 2-A.
 Alpha  occ. eigenvalues --  -10.20640  -0.69223  -0.43476  -0.41028  -0.24229
 Alpha virt. eigenvalues --    0.01918   0.05760   0.06067   0.07368   0.17743
 Alpha virt. eigenvalues --    0.18679   0.21214   0.63610   0.64306   0.64763
 Alpha virt. eigenvalues --    0.83631   0.92261   0.96237   0.99944   1.63252

  Beta  occ. eigenvalues --  -10.19240  -0.65414  -0.42508  -0.40027
  Beta virt. eigenvalues --   -0.07954   0.02429   0.05758   0.06061   0.09851
  Beta virt. eigenvalues --    0.18396   0.19829   0.22412   0.64598   0.65369
  Beta virt. eigenvalues --    0.71543   0.86014   0.92693   0.97205   1.01781

 Mulliken charges and spin densities:
               1          2
     1  C   -0.586621   1.139273
     2  H    0.199490  -0.045461
     3  H    0.190206  -0.047225
     4  H    0.196925  -0.046587
 Sum of Mulliken charges =  -0.00000   1.00000

 Dipole moment (field-independent basis, Debye):
    X=              0.0380    Y=              0.0076    Z=              0.4017  Tot=              0.4036
 Quadrupole moment (field-independent basis, Debye-Ang):
   XX=             -7.1218   YY=             -7.6502   ZZ=             -9.2585
   XY=              0.0453   XZ=             -0.0060   YZ=              0.0045

 Normal termination of Gaussian 16 at Thu Oct 12 15:18:05 2023.
