 Gaussian 16, Revision A.03,
 Gaussian 16:  ES64L-G16RevA.03 25-Dec-2016

 ------------------
 # ub3lyp/6-31+g(d)
 ------------------

 ----------------------
 tmpdir/M1_conf_0_0.gjf
 ----------------------
 Symbolic Z-matrix:
 Charge =  0 Multiplicity = 1

                         Standard orientation:
 ---------------------------------------------------------------------
 Center     Atomic      Atomic             Coordinates (Angstroms)
 Number     Number       Type             X           Y           Z
 ---------------------------------------------------------------------
      1          6           0        0.044357    0.000659   -0.002175
      2          1           0        0.721675   -0.853307   -0.003170
      3          1           0        0.540386    0.969455   -0.000752
      4          1           0       -0.775191   -0.059403   -0.723963
      5          1           0       -0.753014   -0.060698    0.740938
 ---------------------------------------------------------------------

 SCF Done:  E(UB3LYP) =  -40.5040713855     A.U. after    8 cycles

 The electronic state is 1-A.
 Alpha  occ. eigenvalues --  -10.17236  -0.70259  -0.43046  -0.40391  -0.34735
 Alpha virt. eigenvalues --    0.01608   0.05772   0.05992   0.06635   0.15990
 Alpha virt. eigenvalues --    0.18287   0.19654   0.26133   0.64308   0.64729
 Alpha virt. eigenvalues --    0.65337   0.87400   0.94390   0.95207   1.05205

  Beta  occ. eigenvalues --  -10.17236  -0.70259  -0.43046  -0.40391  -0.34735
  Beta virt. eigenvalues --    0.01608   0.05772   0.05992   0.06635   0.15990
  Beta virt. eigenvalues --    0.18287   0.19654   0.26133   0.64308   0.64729
  Beta virt. eigenvalues --    0.65337   0.87400   0.94390   0.95207   1.05205

 Mulliken charges and spin densities:
               1          2
     1  C   -0.788228  -0.000000
     2  H    0.204782   0.000000
     3  H    0.204650   0.000000
     4  H    0.189305   0.000000
     5  H    0.189491   0.000000
 Sum of Mulliken charges =   0.00000   0.00000

 Dipole moment (field-independent basis, Debye):
    X=             -0.2110    Y=             -0.0091    Z=              0.0144  Tot=              0.2116
 Quadrupole moment (field-independent basis, Debye-Ang):
   XX=             -7.8199   YY=             -8.3068   ZZ=             -9.5430
   XY=             -0.0037   XZ=             -0.0035   YZ=              0.0002

 Normal termination of Gaussian 16 at Thu Oct 12 15:18:05 2023.
