 Gaussian 16, Revision A.03,
 Gaussian 16:  ES64L-G16RevA.03 25-Dec-2016

 ------------------
 # ub3lyp/6-31+g(d)
 ------------------

 ----------------------
 tmpdir/M1_conf_0_3.gjf
 ----------------------
 Symbolic Z-matrix:
 Charge =  0 Multiplicity = 1

                         Standard orientation:
 ---------------------------------------------------------------------
 Center     Atomic      Atomic             Coordinates (Angstroms)
 Number     Number       Type             X           Y           Z
 ---------------------------------------------------------------------
      1          6           0        0.022813   -0.002764   -0.004488
      2          1           0        1.051764   -0.356051    0.093203
      3          1           0       -0.027498    1.074969   -0.220495
      4          1           0       -0.589040   -0.154166    0.900184
      5          1           0       -0.572104   -0.548169   -0.745962
 ---------------------------------------------------------------------

 SCF Done:  E(UB3LYP) =  -40.5178228070     A.U. after    8 cycles

 The electronic state is 1-A.
 Alpha  occ. eigenvalues --  -10.17426  -0.69563  -0.40955  -0.39377  -0.37783
 Alpha virt. eigenvalues --    0.01653   0.05951   0.06143   0.06324   0.16905
 Alpha virt. eigenvalues --    0.17905   0.18934   0.27454   0.64635   0.64701
 Alpha virt. eigenvalues --    0.64892   0.90323   0.92753   0.94900   1.06827

  Beta  occ. eigenvalues --  -10.17426  -0.69563  -0.40955  -0.39377  -0.37783
  Beta virt. eigenvalues --    0.01653   0.05951   0.06143   0.06324   0.16905
  Beta virt. eigenvalues --    0.17905   0.18934   0.27454   0.64635   0.64701
  Beta virt. eigenvalues --    0.64892   0.90323   0.92753   0.94900   1.06827

 Mulliken charges and spin densities:
               1          2
     1  C   -0.799034   0.000000
     2  H    0.202870   0.000000
     3  H    0.199415   0.000000
     4  H    0.197158  -0.000000
     5  H    0.199591   0.000000
 Sum of Mulliken charges =  -0.00000   0.00000

 Dipole moment (field-independent basis, Debye):
    X=             -0.0807    Y=              0.0002    Z=              0.0168  Tot=              0.0825
 Quadrupole moment (field-independent basis, Debye-Ang):
   XX=             -8.2062   YY=             -8.5374   ZZ=             -8.8750
   XY=             -0.0181   XZ=              0.0197   YZ=              0.0023

 Normal termination of Gaussian 16 at Thu Oct 12 15:18:06 2023.
