 Gaussian 16, Revision A.03,
 Gaussian 16:  ES64L-G16RevA.03 25-Dec-2016

 ------------------
 # ub3lyp/6-31+g(d)
 ------------------

 -------------------
 tmpdir/M1_ref_2.gjf
 -------------------
 Symbolic Z-matrix:
 Charge =  0 Multiplicity = 2

                         Standard orientation:
 ---------------------------------------------------------------------
 Center     Atomic      Atomic             Coordinates (Angstroms)
 Number     Number       Type             X           Y           Z
 ---------------------------------------------------------------------
      1          6           0        0.009332   -0.008204   -0.078633
      2          1           0        1.071378   -0.045237    0.165764
      3          1           0       -0.506747    0.944436    0.146983
      4          1           0       -0.620624   -0.849975    0.159050
 ---------------------------------------------------------------------

 SCF Done:  E(UB3LYP) =  -39.8382984612     A.U. after   10 cycles

 The electronic state is 2-A.
 Alpha  occ. eigenvalues --  -10.20867  -0.69229  -0.42803  -0.41043  -0.24893
 Alpha virt. eigenvalues --    0.01862   0.05861   0.06068   0.07333   0.17594
 Alpha virt. eigenvalues --    0.19087   0.20849   0.63750   0.64134   0.64689
 Alpha virt. eigenvalues --    0.85156   0.92030   0.95285   0.99741   1.63266

  Beta  occ. eigenvalues --  -10.19448  -0.65518  -0.41785  -0.40013
  Beta virt. eigenvalues --   -0.08352   0.02339   0.05866   0.06072   0.09773
  Beta virt. eigenvalues --    0.18406   0.19991   0.22253   0.64761   0.65197
  Beta virt. eigenvalues --    0.71404   0.87599   0.92645   0.96081   1.01714

 Mulliken charges and spin densities:
               1          2
     1  C   -0.579489   1.126841
     2  H    0.195896  -0.041304
     3  H    0.188065  -0.043266
     4  H    0.195528  -0.042271
 Sum of Mulliken charges =  -0.00000   1.00000

 Dipole moment (field-independent basis, Debye):
    X=             -0.0271    Y=              0.0059    Z=              0.5321  Tot=              0.5329
 Quadrupole moment (field-independent basis, Debye-Ang):
   XX=             -7.3006   YY=             -7.6327   ZZ=             -9.1521
   XY=              0.0400   XZ=              0.0037   YZ=             -0.0067

 Normal termination of Gaussian 16 at Thu Oct 12 15:17:40 2023.
