 Gaussian 16, Revision A.03,
 Gaussian 16:  ES64L-G16RevA.03 25-Dec-2016

 ------------------
 # ub3lyp/6-31+g(d)
 ------------------

 -------------------
 tmpdir/M1_ref_1.gjf
 -------------------
 Symbolic Z-matrix:
 Charge =  0 Multiplicity = 2

                         Standard orientation:
 ---------------------------------------------------------------------
 Center     Atomic      Atomic             Coordinates (Angstroms)
 Number     Number       Type             X           Y           Z
 ---------------------------------------------------------------------
      1          6           0        0.009142   -0.008763   -0.081636
      2          1           0        1.069164   -0.059735    0.172087
      3          1           0       -0.490753    0.950635    0.152238
      4          1           0       -0.633260   -0.838320    0.165493
 ---------------------------------------------------------------------

 SCF Done:  E(UB3LYP) =  -39.8379331559     A.U. after   10 cycles

 The electronic state is 2-A.
 Alpha  occ. eigenvalues --  -10.20889  -0.69249  -0.42765  -0.40988  -0.24997
 Alpha virt. eigenvalues --    0.01854   0.05868   0.06077   0.07328   0.17535
 Alpha virt. eigenvalues --    0.19072   0.20956   0.63750   0.64133   0.64685
 Alpha virt. eigenvalues --    0.85387   0.91910   0.95170   0.99896   1.63243

  Beta  occ. eigenvalues --  -10.19467  -0.65553  -0.41741  -0.39951
  Beta virt. eigenvalues --   -0.08417   0.02325   0.05874   0.06082   0.09761
  Beta virt. eigenvalues --    0.18370   0.19984   0.22347   0.64763   0.65199
  Beta virt. eigenvalues --    0.71392   0.87831   0.92556   0.95990   1.01848

 Mulliken charges and spin densities:
               1          2
     1  C   -0.578792   1.125044
     2  H    0.195595  -0.040650
     3  H    0.187760  -0.042737
     4  H    0.195437  -0.041657
 Sum of Mulliken charges =   0.00000   1.00000

 Dipole moment (field-independent basis, Debye):
    X=             -0.0278    Y=              0.0078    Z=              0.5483  Tot=              0.5491
 Quadrupole moment (field-independent basis, Debye-Ang):
   XX=             -7.3113   YY=             -7.6471   ZZ=             -9.1340
   XY=              0.0401   XZ=              0.0034   YZ=             -0.0069

 Normal termination of Gaussian 16 at Thu Oct 12 15:17:40 2023.
