 Gaussian 16, Revision A.03,
 Gaussian 16:  ES64L-G16RevA.03 25-Dec-2016

 ------------------
 # ub3lyp/6-31+g(d)
 ------------------

 ----------------------
 tmpdir/M2_conf_0_7.gjf
 ----------------------
 Symbolic Z-matrix:
 Charge =  0 Multiplicity = 1

                         Standard orientation:
 ---------------------------------------------------------------------
 Center     Atomic      Atomic             Coordinates (Angstroms)
 Number     Number       Type             X           Y           Z
 ---------------------------------------------------------------------
      1          6           0       -0.549976   -0.014488   -0.001036
      2          1           0       -1.118130    0.912556    0.002110
      3          8           0        0.680502    0.009188    0.000231
      4          1           0       -1.026027   -0.899128    0.002260
 ---------------------------------------------------------------------

 SCF Done:  E(UB3LYP) =  -114.500592014     A.U. after   10 cycles

 The electronic state is 1-A.
 Alpha  occ. eigenvalues --  -19.18202 -10.28957  -1.06015  -0.66498  -0.52087
 Alpha  occ. eigenvalues --   -0.45558  -0.40222  -0.28153
 Alpha virt. eigenvalues --   -0.06762   0.01198   0.04039   0.04490   0.06676
 Alpha virt. eigenvalues --    0.17094   0.19786   0.21965   0.22513   0.26460
 Alpha virt. eigenvalues --    0.26735   0.35400   0.62511   0.65401   0.73104

  Beta  occ. eigenvalues --  -19.18202 -10.28957  -1.06015  -0.66498  -0.52087
  Beta  occ. eigenvalues --   -0.45558  -0.40222  -0.28153
  Beta virt. eigenvalues --   -0.06762   0.01198   0.04039   0.04490   0.06676
  Beta virt. eigenvalues --    0.17094   0.19786   0.21965   0.22513   0.26460
  Beta virt. eigenvalues --    0.26735   0.35400   0.62511   0.65401   0.73104

 Mulliken charges and spin densities:
               1          2
     1  C   -0.003469   0.000000
     2  H    0.162845   0.000000
     3  O   -0.333982   0.000000
     4  H    0.174606   0.000000
 Sum of Mulliken charges =   0.00000   0.00000

 Dipole moment (field-independent basis, Debye):
    X=             -2.6726    Y=             -0.1078    Z=              0.0008  Tot=              2.6748
 Quadrupole moment (field-independent basis, Debye-Ang):
   XX=            -12.3299   YY=            -11.5903   ZZ=            -11.7303
   XY=              0.0328   XZ=             -0.0018   YZ=              0.0001

 Normal termination of Gaussian 16 at Thu Oct 12 15:13:20 2023.
