 Gaussian 16, Revision A.03,
 Gaussian 16:  ES64L-G16RevA.03 25-Dec-2016

 ------------------
 # ub3lyp/6-31+g(d)
 ------------------

 ----------------------
 tmpdir/M2_conf_0_3.gjf
 ----------------------
 Symbolic Z-matrix:
 Charge =  0 Multiplicity = 1

                         Standard orientation:
 ---------------------------------------------------------------------
 Center     Atomic      Atomic             Coordinates (Angstroms)
 Number     Number       Type             X           Y           Z
 ---------------------------------------------------------------------
      1          6           0       -1.421801   -0.473048   -0.000610
      2          6           0       -0.583966    0.643576    0.000161
      3          6           0        0.798040    0.482155    0.000737
      4          1           0       -1.017621   -1.392683    0.010556
      5          1           0       -2.501943   -0.350329   -0.005311
      6          1           0       -1.014052    1.640888    0.000801
      7          8           0        1.291820   -0.646010   -0.001099
      8          1           0        1.445418    1.354111    0.001006
 ---------------------------------------------------------------------

 SCF Done:  E(UB3LYP) =  -191.905415550     A.U. after   12 cycles

 The electronic state is 1-A.
 Alpha  occ. eigenvalues --  -19.15263 -10.27720 -10.22794 -10.21783  -1.04528
 Alpha  occ. eigenvalues --   -0.80512  -0.68536  -0.56112  -0.52944  -0.45814
 Alpha  occ. eigenvalues --   -0.43188  -0.40712  -0.40164  -0.28741  -0.26762
 Alpha virt. eigenvalues --   -0.09782   0.00585   0.02237   0.03908   0.04177
 Alpha virt. eigenvalues --    0.06099   0.06219   0.07106   0.09412   0.09514
 Alpha virt. eigenvalues --    0.11698   0.12122   0.14038   0.16154   0.19238

  Beta  occ. eigenvalues --  -19.15263 -10.27720 -10.22794 -10.21783  -1.04528
  Beta  occ. eigenvalues --   -0.80512  -0.68536  -0.56112  -0.52944  -0.45814
  Beta  occ. eigenvalues --   -0.43188  -0.40712  -0.40164  -0.28741  -0.26762
  Beta virt. eigenvalues --   -0.09782   0.00585   0.02237   0.03908   0.04177
  Beta virt. eigenvalues --    0.06099   0.06219   0.07106   0.09412   0.09514
  Beta virt. eigenvalues --    0.11698   0.12122   0.14038   0.16154   0.19238

 Mulliken charges and spin densities:
               1          2
     1  C   -0.445892  -0.000000
     2  C    0.090044  -0.000000
     3  C   -0.006014   0.000000
     4  H    0.234483  -0.000000
     5  H    0.201430   0.000000
     6  H    0.188036   0.000000
     7  O   -0.425965   0.000000
     8  H    0.163877  -0.000000
 Sum of Mulliken charges =  -0.00000   0.00000

 Dipole moment (field-independent basis, Debye):
    X=             -2.3731    Y=              1.8491    Z=              0.0079  Tot=              3.0084
 Quadrupole moment (field-independent basis, Debye-Ang):
   XX=            -24.1800   YY=            -22.6881   ZZ=            -25.2144
   XY=              3.4898   XZ=              0.0076   YZ=             -0.0121

 Normal termination of Gaussian 16 at Thu Oct 12 15:13:19 2023.
