 Gaussian 16, Revision A.03,
 Gaussian 16:  ES64L-G16RevA.03 25-Dec-2016

 ------------------
 # ub3lyp/6-31+g(d)
 ------------------

 -----------------------
 tmpdir/M2_conf_0_42.gjf
 -----------------------
 Symbolic Z-matrix:
 Charge =  0 Multiplicity = 2

                         Standard orientation:
 ---------------------------------------------------------------------
 Center     Atomic      Atomic             Coordinates (Angstroms)
 Number     Number       Type             X           Y           Z
 ---------------------------------------------------------------------
      1          6           0       -0.866943    0.455817   -0.227279
      2          6           0        0.571292    0.637676    0.218916
      3          6           0        1.488591   -0.495140   -0.242743
      4          8           0       -1.364992   -0.615080    0.139547
      5          1           0       -1.405616    1.100543   -0.775326
      6          1           0        0.986477    1.608277   -0.060792
      7          1           0        0.619240    0.445467    1.306933
      8          1           0        1.017111   -1.451027   -0.081927
      9          1           0        2.545079   -0.372736    0.001367
 ---------------------------------------------------------------------

 SCF Done:  E(UB3LYP) =  -192.459868685     A.U. after   15 cycles

 The electronic state is 2-A.
 Alpha  occ. eigenvalues --  -19.16495 -10.28797 -10.21528 -10.21450  -1.05155
 Alpha  occ. eigenvalues --   -0.79353  -0.67015  -0.59647  -0.50818  -0.46120
 Alpha  occ. eigenvalues --   -0.44262  -0.42527  -0.38621  -0.36418  -0.27300
 Alpha  occ. eigenvalues --   -0.22857
 Alpha virt. eigenvalues --   -0.05899   0.00989   0.02508   0.03601   0.04383
 Alpha virt. eigenvalues --    0.06841   0.07396   0.08222   0.09090   0.09250
 Alpha virt. eigenvalues --    0.11628   0.12744   0.16121   0.18612   0.21070

  Beta  occ. eigenvalues --  -19.16501 -10.28770 -10.21552 -10.20054  -1.05156
  Beta  occ. eigenvalues --   -0.78194  -0.65566  -0.58386  -0.50567  -0.45321
  Beta  occ. eigenvalues --   -0.43720  -0.41988  -0.38060  -0.35844  -0.27111
  Beta virt. eigenvalues --   -0.07356  -0.05767   0.01096   0.02611   0.03773
  Beta virt. eigenvalues --    0.04452   0.06917   0.07614   0.08323   0.09322
  Beta virt. eigenvalues --    0.10387   0.11746   0.12843   0.16421   0.18899

 Mulliken charges and spin densities:
               1          2
     1  C    0.193432   0.006822
     2  C   -0.491241  -0.067252
     3  C   -0.347656   1.094953
     4  O   -0.384952  -0.005241
     5  H    0.180599   0.001638
     6  H    0.197581   0.006585
     7  H    0.246538   0.045942
     8  H    0.216777  -0.041748
     9  H    0.188921  -0.041699
 Sum of Mulliken charges =  -0.00000   1.00000

 Dipole moment (field-independent basis, Debye):
    X=              1.3948    Y=              2.2934    Z=              0.0250  Tot=              2.6843
 Quadrupole moment (field-independent basis, Debye-Ang):
   XX=            -26.7018   YY=            -24.6777   ZZ=            -25.1314
   XY=             -2.8432   XZ=              2.2825   YZ=             -0.5840

 Normal termination of Gaussian 16 at Thu Oct 12 15:14:16 2023.
