 Gaussian 16, Revision A.03,
 Gaussian 16:  ES64L-G16RevA.03 25-Dec-2016

 ------------------
 # ub3lyp/6-31+g(d)
 ------------------

 -----------------------
 tmpdir/M2_conf_0_15.gjf
 -----------------------
 Symbolic Z-matrix:
 Charge =  0 Multiplicity = 1

                         Standard orientation:
 ---------------------------------------------------------------------
 Center     Atomic      Atomic             Coordinates (Angstroms)
 Number     Number       Type             X           Y           Z
 ---------------------------------------------------------------------
      1          6           0       -1.245451   -0.261470   -0.002005
      2          6           0       -0.119832    0.575384   -0.016968
      3          6           0        1.203512   -0.181917   -0.000936
      4          1           0       -2.167078    0.133853    0.021016
      5          1           0       -0.995737   -1.330688   -0.005876
      6          1           0       -0.229159    1.573714    0.007804
      7          1           0        1.111389   -0.747663    0.945757
      8          1           0        2.064314    0.490068   -0.025179
      9          1           0        1.186892   -0.911270   -0.824065
 ---------------------------------------------------------------------

 SCF Done:  E(UB3LYP) =  -117.884714870     A.U. after   11 cycles

 The electronic state is 1-A.
 Alpha  occ. eigenvalues --  -10.19581 -10.18836 -10.17902  -0.78726  -0.67807
 Alpha  occ. eigenvalues --   -0.57299  -0.48139  -0.41746  -0.41195  -0.37597
 Alpha  occ. eigenvalues --   -0.36109  -0.24377
 Alpha virt. eigenvalues --   -0.01583   0.01682   0.03267   0.03563   0.05988
 Alpha virt. eigenvalues --    0.06600   0.07725   0.09342   0.09571   0.11704
 Alpha virt. eigenvalues --    0.12587   0.12866   0.16443   0.20013   0.21393

  Beta  occ. eigenvalues --  -10.19581 -10.18836 -10.17902  -0.78726  -0.67807
  Beta  occ. eigenvalues --   -0.57299  -0.48139  -0.41746  -0.41195  -0.37597
  Beta  occ. eigenvalues --   -0.36109  -0.24377
  Beta virt. eigenvalues --   -0.01583   0.01682   0.03267   0.03563   0.05988
  Beta virt. eigenvalues --    0.06600   0.07725   0.09342   0.09571   0.11704
  Beta virt. eigenvalues --    0.12587   0.12866   0.16443   0.20013   0.21393

 Mulliken charges and spin densities:
               1          2
     1  C   -0.467344  -0.000000
     2  C    0.115569   0.000000
     3  C   -0.825780  -0.000000
     4  H    0.182981   0.000000
     5  H    0.174976   0.000000
     6  H    0.180514  -0.000000
     7  H    0.220638   0.000000
     8  H    0.199069  -0.000000
     9  H    0.219377   0.000000
 Sum of Mulliken charges =  -0.00000  -0.00000

 Dipole moment (field-independent basis, Debye):
    X=              0.3884    Y=              0.0757    Z=              0.0759  Tot=              0.4030
 Quadrupole moment (field-independent basis, Debye-Ang):
   XX=            -20.2065   YY=            -18.9435   ZZ=            -22.3754
   XY=              0.0708   XZ=             -0.1714   YZ=              0.1030

 Normal termination of Gaussian 16 at Thu Oct 12 15:13:15 2023.
