 Gaussian 16, Revision A.03,
 Gaussian 16:  ES64L-G16RevA.03 25-Dec-2016

 ------------------
 # ub3lyp/6-31+g(d)
 ------------------

 -----------------------
 tmpdir/M2_conf_0_53.gjf
 -----------------------
 Symbolic Z-matrix:
 Charge =  0 Multiplicity = 2

                         Standard orientation:
 ---------------------------------------------------------------------
 Center     Atomic      Atomic             Coordinates (Angstroms)
 Number     Number       Type             X           Y           Z
 ---------------------------------------------------------------------
      1          6           0        0.009779   -0.008246   -0.078539
      2          1           0        1.068112   -0.046890    0.165983
      3          1           0       -0.504948    0.945245    0.146599
      4          1           0       -0.621841   -0.848879    0.158650
 ---------------------------------------------------------------------

 SCF Done:  E(UB3LYP) =  -39.8383087762     A.U. after   10 cycles

 The electronic state is 2-A.
 Alpha  occ. eigenvalues --  -10.20832  -0.69260  -0.42852  -0.41042  -0.24892
 Alpha virt. eigenvalues --    0.01868   0.05861   0.06070   0.07334   0.17605
 Alpha virt. eigenvalues --    0.19189   0.20861   0.63743   0.64085   0.64696
 Alpha virt. eigenvalues --    0.85128   0.92040   0.95470   0.99804   1.63244

  Beta  occ. eigenvalues --  -10.19413  -0.65550  -0.41833  -0.40012
  Beta virt. eigenvalues --   -0.08351   0.02344   0.05864   0.06074   0.09775
  Beta virt. eigenvalues --    0.18415   0.20085   0.22273   0.64751   0.65148
  Beta virt. eigenvalues --    0.71408   0.87578   0.92653   0.96264   1.01792

 Mulliken charges and spin densities:
               1          2
     1  C   -0.579772   1.126877
     2  H    0.196361  -0.041295
     3  H    0.187966  -0.043289
     4  H    0.195445  -0.042293
 Sum of Mulliken charges =  -0.00000   1.00000

 Dipole moment (field-independent basis, Debye):
    X=             -0.0262    Y=              0.0058    Z=              0.5321  Tot=              0.5328
 Quadrupole moment (field-independent basis, Debye-Ang):
   XX=             -7.3002   YY=             -7.6299   ZZ=             -9.1479
   XY=              0.0396   XZ=              0.0045   YZ=             -0.0067

 Normal termination of Gaussian 16 at Thu Oct 12 15:14:22 2023.
