 Gaussian 16, Revision A.03,
 Gaussian 16:  ES64L-G16RevA.03 25-Dec-2016

 ------------------
 # ub3lyp/6-31+g(d)
 ------------------

 -----------------------
 tmpdir/M2_conf_0_22.gjf
 -----------------------
 Symbolic Z-matrix:
 Charge =  0 Multiplicity = 1

                         Standard orientation:
 ---------------------------------------------------------------------
 Center     Atomic      Atomic             Coordinates (Angstroms)
 Number     Number       Type             X           Y           Z
 ---------------------------------------------------------------------
      1          6           0       -0.550395   -0.014760   -0.000194
      2          1           0       -1.116973    0.913137    0.000395
      3          1           0       -1.027669   -0.897042    0.000425
      4          8           0        0.680877    0.009059    0.000043
 ---------------------------------------------------------------------

 SCF Done:  E(UB3LYP) =  -114.500335728     A.U. after    9 cycles

 The electronic state is 1-A.
 Alpha  occ. eigenvalues --  -19.18206 -10.28954  -1.05973  -0.66542  -0.52089
 Alpha  occ. eigenvalues --   -0.45550  -0.40198  -0.28158
 Alpha virt. eigenvalues --   -0.06784   0.01197   0.04038   0.04491   0.06675
 Alpha virt. eigenvalues --    0.17114   0.19793   0.21964   0.22513   0.26482
 Alpha virt. eigenvalues --    0.26721   0.35373   0.62513   0.65323   0.73058

  Beta  occ. eigenvalues --  -19.18206 -10.28954  -1.05973  -0.66542  -0.52089
  Beta  occ. eigenvalues --   -0.45550  -0.40198  -0.28158
  Beta virt. eigenvalues --   -0.06784   0.01197   0.04038   0.04491   0.06675
  Beta virt. eigenvalues --    0.17114   0.19793   0.21964   0.22513   0.26482
  Beta virt. eigenvalues --    0.26721   0.35373   0.62513   0.65323   0.73058

 Mulliken charges and spin densities:
               1          2
     1  C   -0.003432   0.000000
     2  H    0.162882  -0.000000
     3  H    0.174995  -0.000000
     4  O   -0.334445  -0.000000
 Sum of Mulliken charges =  -0.00000  -0.00000

 Dipole moment (field-independent basis, Debye):
    X=             -2.6764    Y=             -0.1087    Z=              0.0002  Tot=              2.6786
 Quadrupole moment (field-independent basis, Debye-Ang):
   XX=            -12.3260   YY=            -11.5906   ZZ=            -11.7308
   XY=              0.0380   XZ=             -0.0003   YZ=              0.0000

 Normal termination of Gaussian 16 at Thu Oct 12 15:13:10 2023.
