 Gaussian 16, Revision A.03,
 Gaussian 16:  ES64L-G16RevA.03 25-Dec-2016

 ------------------
 # ub3lyp/6-31+g(d)
 ------------------

 -----------------------
 tmpdir/M2_conf_0_39.gjf
 -----------------------
 Symbolic Z-matrix:
 Charge =  0 Multiplicity = 2

                         Standard orientation:
 ---------------------------------------------------------------------
 Center     Atomic      Atomic             Coordinates (Angstroms)
 Number     Number       Type             X           Y           Z
 ---------------------------------------------------------------------
      1          6           0        0.705262   -0.012770    0.004360
      2          6           0       -0.801024   -0.005438   -0.113407
      3          1           0        1.089079    0.919493   -0.430584
      4          1           0        1.171607   -0.905519   -0.417785
      5          1           0        0.813449    0.051933    1.103053
      6          1           0       -1.196603    0.955742    0.172122
      7          1           0       -1.302958   -0.912396    0.227477
 ---------------------------------------------------------------------

 SCF Done:  E(UB3LYP) =  -79.1540620167     A.U. after   12 cycles

 The electronic state is 2-A.
 Alpha  occ. eigenvalues --  -10.19805 -10.18778  -0.76382  -0.60554  -0.46152
 Alpha  occ. eigenvalues --   -0.42513  -0.37359  -0.36701  -0.21361
 Alpha virt. eigenvalues --    0.01845   0.03352   0.04969   0.05755   0.08125
 Alpha virt. eigenvalues --    0.08887   0.09760   0.14844   0.17185   0.19621
 Alpha virt. eigenvalues --    0.23001   0.23295   0.25418   0.30451   0.61495

  Beta  occ. eigenvalues --  -10.18813 -10.18419  -0.74785  -0.58352  -0.45533
  Beta  occ. eigenvalues --   -0.40999  -0.36472  -0.36222
  Beta virt. eigenvalues --   -0.05873   0.02019   0.03529   0.04986   0.06187
  Beta virt. eigenvalues --    0.08106   0.08880   0.11109   0.15164   0.17825
  Beta virt. eigenvalues --    0.19741   0.24085   0.24438   0.26314   0.31112

 Mulliken charges and spin densities:
               1          2
     1  C   -0.701158  -0.089883
     2  C   -0.273609   1.101709
     3  H    0.205290   0.009141
     4  H    0.205938   0.008725
     5  H    0.206500   0.053696
     6  H    0.177729  -0.042578
     7  H    0.179312  -0.040810
 Sum of Mulliken charges =  -0.00000   1.00000

 Dipole moment (field-independent basis, Debye):
    X=              0.3824    Y=              0.0394    Z=              0.6257  Tot=              0.7343
 Quadrupole moment (field-independent basis, Debye-Ang):
   XX=            -15.5496   YY=            -13.6318   ZZ=            -15.4824
   XY=             -0.0048   XZ=             -0.9561   YZ=              0.0225

 Normal termination of Gaussian 16 at Thu Oct 12 15:13:51 2023.
