 Gaussian 16, Revision A.03,
 Gaussian 16:  ES64L-G16RevA.03 25-Dec-2016

 ------------------
 # ub3lyp/6-31+g(d)
 ------------------

 -----------------------
 tmpdir/M2_conf_0_29.gjf
 -----------------------
 Symbolic Z-matrix:
 Charge =  0 Multiplicity = 1

                         Standard orientation:
 ---------------------------------------------------------------------
 Center     Atomic      Atomic             Coordinates (Angstroms)
 Number     Number       Type             X           Y           Z
 ---------------------------------------------------------------------
      1          6           0       -0.698769   -0.009615   -0.000229
      2          6           0        0.698130   -0.007687   -0.000182
      3          1           0        1.236538    0.935443   -0.002975
      4          1           0       -1.191663   -0.883259   -0.002972
      5          1           0       -1.248534    0.928214    0.004161
      6          1           0        1.207490   -0.876585    0.004251
 ---------------------------------------------------------------------

 SCF Done:  E(UB3LYP) =  -78.5791163415     A.U. after    9 cycles

 The electronic state is 1-A.
 Alpha  occ. eigenvalues --  -10.19494 -10.19433  -0.75898  -0.60197  -0.48375
 Alpha  occ. eigenvalues --   -0.41487  -0.38211  -0.26788
 Alpha virt. eigenvalues --   -0.01890   0.02503   0.03389   0.04911   0.07088
 Alpha virt. eigenvalues --    0.08724   0.08786   0.12460   0.15922   0.18120
 Alpha virt. eigenvalues --    0.21991   0.25547   0.32594   0.35122   0.58863

  Beta  occ. eigenvalues --  -10.19494 -10.19433  -0.75898  -0.60197  -0.48375
  Beta  occ. eigenvalues --   -0.41487  -0.38211  -0.26788
  Beta virt. eigenvalues --   -0.01890   0.02503   0.03389   0.04911   0.07088
  Beta virt. eigenvalues --    0.08724   0.08786   0.12460   0.15922   0.18120
  Beta virt. eigenvalues --    0.21991   0.25547   0.32594   0.35122   0.58863

 Mulliken charges and spin densities:
               1          2
     1  C   -0.371849   0.000000
     2  C   -0.371765  -0.000000
     3  H    0.184198  -0.000000
     4  H    0.186859  -0.000000
     5  H    0.185011  -0.000000
     6  H    0.187546  -0.000000
 Sum of Mulliken charges =  -0.00000  -0.00000

 Dipole moment (field-independent basis, Debye):
    X=              0.0001    Y=             -0.0430    Z=              0.0027  Tot=              0.0431
 Quadrupole moment (field-independent basis, Debye-Ang):
   XX=            -12.3769   YY=            -12.2787   ZZ=            -16.1368
   XY=             -0.0243   XZ=             -0.0000   YZ=             -0.0001

 Normal termination of Gaussian 16 at Thu Oct 12 15:14:04 2023.
