 Gaussian 16, Revision A.03,
 Gaussian 16:  ES64L-G16RevA.03 25-Dec-2016

 ------------------
 # ub3lyp/6-31+g(d)
 ------------------

 -----------------------
 tmpdir/M2_conf_0_33.gjf
 -----------------------
 Symbolic Z-matrix:
 Charge =  0 Multiplicity = 2

                         Standard orientation:
 ---------------------------------------------------------------------
 Center     Atomic      Atomic             Coordinates (Angstroms)
 Number     Number       Type             X           Y           Z
 ---------------------------------------------------------------------
      1          6           0        0.790715    0.446705   -0.281060
      2          6           0       -0.607381    0.678627    0.281573
      3          6           0       -1.425434   -0.546787   -0.126332
      4          1           0        1.261300    1.008910   -0.967857
      5          8           0        1.319977   -0.583525    0.152451
      6          1           0       -1.058861    1.597339   -0.099550
      7          1           0       -0.542387    0.638410    1.378816
      8          1           0       -1.096191   -1.422092    0.409671
      9          1           0       -1.671080   -0.625631   -1.185773
 ---------------------------------------------------------------------

 SCF Done:  E(UB3LYP) =  -192.460544329     A.U. after   16 cycles

 The electronic state is 2-A.
 Alpha  occ. eigenvalues --  -19.16420 -10.28922 -10.21668 -10.21267  -1.05268
 Alpha  occ. eigenvalues --   -0.79301  -0.66579  -0.60058  -0.50201  -0.47309
 Alpha  occ. eigenvalues --   -0.43938  -0.42182  -0.38282  -0.36263  -0.27624
 Alpha  occ. eigenvalues --   -0.23284
 Alpha virt. eigenvalues --   -0.05689   0.01183   0.03072   0.03181   0.04354
 Alpha virt. eigenvalues --    0.07081   0.07506   0.08046   0.08545   0.08716
 Alpha virt. eigenvalues --    0.11892   0.13212   0.15350   0.19789   0.20648

  Beta  occ. eigenvalues --  -19.16313 -10.28825 -10.21323 -10.20274  -1.05053
  Beta  occ. eigenvalues --   -0.78108  -0.64923  -0.58997  -0.49719  -0.46655
  Beta  occ. eigenvalues --   -0.43498  -0.41527  -0.37719  -0.35633  -0.27006
  Beta virt. eigenvalues --   -0.08533  -0.04838   0.01244   0.03179   0.03528
  Beta virt. eigenvalues --    0.04515   0.07166   0.07924   0.08082   0.08630
  Beta virt. eigenvalues --    0.09371   0.12110   0.13429   0.15633   0.20040

 Mulliken charges and spin densities:
               1          2
     1  C    0.198253   0.022030
     2  C   -0.514246  -0.110083
     3  C   -0.339230   1.106466
     4  H    0.179666   0.005684
     5  O   -0.371509   0.035629
     6  H    0.199293   0.011088
     7  H    0.238376   0.010449
     8  H    0.218694  -0.041351
     9  H    0.190702  -0.039913
 Sum of Mulliken charges =  -0.00000   1.00000

 Dipole moment (field-independent basis, Debye):
    X=             -1.0121    Y=              2.0844    Z=             -0.9190  Tot=              2.4927
 Quadrupole moment (field-independent basis, Debye-Ang):
   XX=            -29.4078   YY=            -24.5743   ZZ=            -23.2495
   XY=              2.7022   XZ=             -0.5299   YZ=             -0.3859

 Normal termination of Gaussian 16 at Thu Oct 12 15:14:08 2023.
