 Gaussian 16, Revision A.03,
 Gaussian 16:  ES64L-G16RevA.03 25-Dec-2016

 ------------------
 # ub3lyp/6-31+g(d)
 ------------------

 -----------------------
 tmpdir/M2_conf_0_23.gjf
 -----------------------
 Symbolic Z-matrix:
 Charge =  0 Multiplicity = 1

                         Standard orientation:
 ---------------------------------------------------------------------
 Center     Atomic      Atomic             Coordinates (Angstroms)
 Number     Number       Type             X           Y           Z
 ---------------------------------------------------------------------
      1          6           0       -0.790299    0.487421   -0.001321
      2          6           0        0.585726    0.650881   -0.000558
      3          6           0        1.414962   -0.473269    0.000630
      4          8           0       -1.281167   -0.647688   -0.000762
      5          1           0       -1.541017    1.288616    0.009613
      6          1           0        1.017556    1.648526    0.000598
      7          1           0        1.016819   -1.398400    0.007912
      8          1           0        2.493633   -0.347432   -0.004531
 ---------------------------------------------------------------------

 SCF Done:  E(UB3LYP) =  -191.902804275     A.U. after   12 cycles

 The electronic state is 1-A.
 Alpha  occ. eigenvalues --  -19.14938 -10.27697 -10.22938 -10.22036  -1.04186
 Alpha  occ. eigenvalues --   -0.80591  -0.68316  -0.56037  -0.53119  -0.45811
 Alpha  occ. eigenvalues --   -0.43194  -0.40567  -0.39987  -0.28723  -0.26436
 Alpha virt. eigenvalues --   -0.09849   0.00589   0.02264   0.03817   0.04160
 Alpha virt. eigenvalues --    0.06145   0.06205   0.07042   0.09316   0.09501
 Alpha virt. eigenvalues --    0.11634   0.12104   0.14104   0.16192   0.18722

  Beta  occ. eigenvalues --  -19.14938 -10.27697 -10.22938 -10.22036  -1.04186
  Beta  occ. eigenvalues --   -0.80591  -0.68316  -0.56037  -0.53119  -0.45811
  Beta  occ. eigenvalues --   -0.43194  -0.40567  -0.39987  -0.28723  -0.26436
  Beta virt. eigenvalues --   -0.09849   0.00589   0.02264   0.03817   0.04160
  Beta virt. eigenvalues --    0.06145   0.06205   0.07042   0.09316   0.09501
  Beta virt. eigenvalues --    0.11634   0.12104   0.14104   0.16192   0.18722

 Mulliken charges and spin densities:
               1          2
     1  C   -0.019993  -0.000000
     2  C    0.081984   0.000000
     3  C   -0.435544  -0.000000
     4  O   -0.421931  -0.000000
     5  H    0.166451  -0.000000
     6  H    0.190718  -0.000000
     7  H    0.237162  -0.000000
     8  H    0.201154   0.000000
 Sum of Mulliken charges =  -0.00000   0.00000

 Dipole moment (field-independent basis, Debye):
    X=              2.3793    Y=              1.8469    Z=              0.0068  Tot=              3.0120
 Quadrupole moment (field-independent basis, Debye-Ang):
   XX=            -23.9748   YY=            -22.8093   ZZ=            -25.2406
   XY=             -3.5176   XZ=             -0.0117   YZ=             -0.0069

 Normal termination of Gaussian 16 at Thu Oct 12 15:13:29 2023.
