 Gaussian 16, Revision A.03,
 Gaussian 16:  ES64L-G16RevA.03 25-Dec-2016

 ------------------
 # ub3lyp/6-31+g(d)
 ------------------

 -----------------------
 tmpdir/M2_conf_0_36.gjf
 -----------------------
 Symbolic Z-matrix:
 Charge =  0 Multiplicity = 2

                         Standard orientation:
 ---------------------------------------------------------------------
 Center     Atomic      Atomic             Coordinates (Angstroms)
 Number     Number       Type             X           Y           Z
 ---------------------------------------------------------------------
      1          6           0       -0.810949   -0.005963   -0.108034
      2          6           0        0.713843   -0.012238    0.002406
      3          1           0        1.184970   -0.898247   -0.429045
      4          1           0       -1.210876    0.954346    0.174355
      5          1           0       -1.316779   -0.915760    0.216579
      6          1           0        0.845728    0.036107    1.097232
      7          1           0        1.079592    0.932760   -0.425356
 ---------------------------------------------------------------------

 SCF Done:  E(UB3LYP) =  -79.1547305581     A.U. after   12 cycles

 The electronic state is 2-A.
 Alpha  occ. eigenvalues --  -10.19955 -10.18876  -0.75959  -0.60731  -0.46008
 Alpha  occ. eigenvalues --   -0.42250  -0.37224  -0.36835  -0.21459
 Alpha virt. eigenvalues --    0.01862   0.03292   0.05009   0.05814   0.08154
 Alpha virt. eigenvalues --    0.08850   0.09752   0.14814   0.17216   0.19658
 Alpha virt. eigenvalues --    0.22857   0.23381   0.24925   0.30271   0.62054

  Beta  occ. eigenvalues --  -10.18913 -10.18565  -0.74370  -0.58497  -0.45391
  Beta  occ. eigenvalues --   -0.40814  -0.36474  -0.36236
  Beta virt. eigenvalues --   -0.05926   0.02029   0.03480   0.05025   0.06247
  Beta virt. eigenvalues --    0.08134   0.08843   0.11117   0.15130   0.17849
  Beta virt. eigenvalues --    0.19772   0.24110   0.24378   0.25911   0.30818

 Mulliken charges and spin densities:
               1          2
     1  C   -0.274283   1.108869
     2  C   -0.702474  -0.092887
     3  H    0.206321   0.008906
     4  H    0.178495  -0.043353
     5  H    0.179972  -0.041565
     6  H    0.207248   0.051390
     7  H    0.204722   0.008640
 Sum of Mulliken charges =   0.00000   1.00000

 Dipole moment (field-independent basis, Debye):
    X=              0.3688    Y=              0.0334    Z=              0.6120  Tot=              0.7153
 Quadrupole moment (field-independent basis, Debye-Ang):
   XX=            -15.4802   YY=            -13.6236   ZZ=            -15.5176
   XY=             -0.0240   XZ=             -0.9008   YZ=              0.0187

 Normal termination of Gaussian 16 at Thu Oct 12 15:13:47 2023.
