 Gaussian 16, Revision A.03,
 Gaussian 16:  ES64L-G16RevA.03 25-Dec-2016

 ------------------
 # ub3lyp/6-31+g(d)
 ------------------

 -----------------------
 tmpdir/M2_conf_0_27.gjf
 -----------------------
 Symbolic Z-matrix:
 Charge =  0 Multiplicity = 1

                         Standard orientation:
 ---------------------------------------------------------------------
 Center     Atomic      Atomic             Coordinates (Angstroms)
 Number     Number       Type             X           Y           Z
 ---------------------------------------------------------------------
      1          6           0        0.798706    0.481520    0.000285
      2          6           0       -0.583162    0.644106   -0.001027
      3          6           0       -1.422094   -0.472825   -0.000232
      4          8           0        1.290816   -0.646512    0.000483
      5          1           0        1.446879    1.353001    0.000649
      6          1           0       -1.011325    1.642136   -0.000704
      7          1           0       -1.020844   -1.392157   -0.005719
      8          1           0       -2.501937   -0.347687    0.007756
 ---------------------------------------------------------------------

 SCF Done:  E(UB3LYP) =  -191.905123894     A.U. after   12 cycles

 The electronic state is 1-A.
 Alpha  occ. eigenvalues --  -19.15258 -10.27708 -10.22792 -10.21787  -1.04568
 Alpha  occ. eigenvalues --   -0.80496  -0.68543  -0.56120  -0.52939  -0.45832
 Alpha  occ. eigenvalues --   -0.43174  -0.40728  -0.40189  -0.28730  -0.26758
 Alpha virt. eigenvalues --   -0.09781   0.00587   0.02238   0.03908   0.04181
 Alpha virt. eigenvalues --    0.06102   0.06220   0.07105   0.09413   0.09515
 Alpha virt. eigenvalues --    0.11699   0.12119   0.14042   0.16154   0.19246

  Beta  occ. eigenvalues --  -19.15258 -10.27708 -10.22792 -10.21787  -1.04568
  Beta  occ. eigenvalues --   -0.80496  -0.68543  -0.56120  -0.52939  -0.45832
  Beta  occ. eigenvalues --   -0.43174  -0.40728  -0.40189  -0.28730  -0.26758
  Beta virt. eigenvalues --   -0.09781   0.00587   0.02238   0.03908   0.04181
  Beta virt. eigenvalues --    0.06102   0.06220   0.07105   0.09413   0.09515
  Beta virt. eigenvalues --    0.11699   0.12119   0.14042   0.16154   0.19246

 Mulliken charges and spin densities:
               1          2
     1  C   -0.005552   0.000000
     2  C    0.089518   0.000000
     3  C   -0.445645  -0.000000
     4  O   -0.425729  -0.000000
     5  H    0.163689  -0.000000
     6  H    0.187986   0.000000
     7  H    0.234388   0.000000
     8  H    0.201344   0.000000
 Sum of Mulliken charges =  -0.00000  -0.00000

 Dipole moment (field-independent basis, Debye):
    X=             -2.3683    Y=              1.8480    Z=              0.0014  Tot=              3.0040
 Quadrupole moment (field-independent basis, Debye-Ang):
   XX=            -24.1754   YY=            -22.6884   ZZ=            -25.2140
   XY=              3.4907   XZ=             -0.0153   YZ=              0.0056

 Normal termination of Gaussian 16 at Thu Oct 12 15:13:44 2023.
