 Gaussian 16, Revision A.03,
 Gaussian 16:  ES64L-G16RevA.03 25-Dec-2016

 ------------------
 # ub3lyp/6-31+g(d)
 ------------------

 -----------------------
 tmpdir/M2_conf_0_57.gjf
 -----------------------
 Symbolic Z-matrix:
 Charge =  0 Multiplicity = 1

                         Standard orientation:
 ---------------------------------------------------------------------
 Center     Atomic      Atomic             Coordinates (Angstroms)
 Number     Number       Type             X           Y           Z
 ---------------------------------------------------------------------
      1          6           0       -0.686674   -0.014003   -0.009142
      2          6           0        0.687309   -0.012688   -0.002441
      3          1           0       -1.146386    0.991454    0.018137
      4          1           0       -1.297912   -0.910064    0.027427
      5          1           0        1.143263    0.988104    0.014644
      6          1           0        1.297228   -0.909347    0.009288
 ---------------------------------------------------------------------

 SCF Done:  E(UB3LYP) =  -78.5888055843     A.U. after    9 cycles

 The electronic state is 1-A.
 Alpha  occ. eigenvalues --  -10.20196 -10.20112  -0.75803  -0.58361  -0.47772
 Alpha  occ. eigenvalues --   -0.41163  -0.36936  -0.27185
 Alpha virt. eigenvalues --   -0.01468   0.02494   0.03322   0.04614   0.07000
 Alpha virt. eigenvalues --    0.08512   0.08685   0.12577   0.15556   0.16766
 Alpha virt. eigenvalues --    0.20041   0.23911   0.32288   0.35359   0.58732

  Beta  occ. eigenvalues --  -10.20196 -10.20112  -0.75803  -0.58361  -0.47772
  Beta  occ. eigenvalues --   -0.41163  -0.36936  -0.27185
  Beta virt. eigenvalues --   -0.01468   0.02494   0.03322   0.04614   0.07000
  Beta virt. eigenvalues --    0.08512   0.08685   0.12577   0.15556   0.16766
  Beta virt. eigenvalues --    0.20041   0.23911   0.32288   0.35359   0.58732

 Mulliken charges and spin densities:
               1          2
     1  C   -0.366917   0.000000
     2  C   -0.368349  -0.000000
     3  H    0.178794  -0.000000
     4  H    0.188380  -0.000000
     5  H    0.179647   0.000000
     6  H    0.188445   0.000000
 Sum of Mulliken charges =   0.00000  -0.00000

 Dipole moment (field-independent basis, Debye):
    X=              0.0037    Y=              0.0069    Z=              0.0762  Tot=              0.0766
 Quadrupole moment (field-independent basis, Debye-Ang):
   XX=            -12.6604   YY=            -12.2466   ZZ=            -16.2678
   XY=              0.0044   XZ=             -0.0315   YZ=              0.0014

 Normal termination of Gaussian 16 at Thu Oct 12 15:14:12 2023.
