 Gaussian 16, Revision A.03,
 Gaussian 16:  ES64L-G16RevA.03 25-Dec-2016

 ------------------
 # ub3lyp/6-31+g(d)
 ------------------

 ----------------------
 tmpdir/M2_conf_0_1.gjf
 ----------------------
 Symbolic Z-matrix:
 Charge =  0 Multiplicity = 1

                         Standard orientation:
 ---------------------------------------------------------------------
 Center     Atomic      Atomic             Coordinates (Angstroms)
 Number     Number       Type             X           Y           Z
 ---------------------------------------------------------------------
      1          6           0        0.696310    0.483826    0.000243
      2          6           0       -0.695490    0.484433   -0.000482
      3          6           0        1.399685   -0.722030   -0.000162
      4          1           0        1.238620    1.424840    0.000639
      5          6           0       -1.400786   -0.721341    0.000267
      6          1           0       -1.236930    1.425838    0.000168
 ---------------------------------------------------------------------

 SCF Done:  E(UB3LYP) =  -153.312926514     A.U. after   13 cycles

 The electronic state is 1-A.
 Alpha  occ. eigenvalues --  -10.29236 -10.29223 -10.24457 -10.24402  -0.86362
 Alpha  occ. eigenvalues --   -0.73497  -0.62228  -0.51185  -0.50179  -0.37373
 Alpha  occ. eigenvalues --   -0.33380  -0.31296  -0.25491
 Alpha virt. eigenvalues --   -0.14804  -0.11690  -0.08297   0.00160   0.02829
 Alpha virt. eigenvalues --    0.04136   0.04506   0.05740   0.06642   0.08250
 Alpha virt. eigenvalues --    0.09104   0.09136   0.10610   0.11955   0.12792

  Beta  occ. eigenvalues --  -10.29236 -10.29223 -10.24457 -10.24402  -0.86362
  Beta  occ. eigenvalues --   -0.73497  -0.62228  -0.51185  -0.50179  -0.37373
  Beta  occ. eigenvalues --   -0.33380  -0.31296  -0.25491
  Beta virt. eigenvalues --   -0.14804  -0.11690  -0.08297   0.00160   0.02829
  Beta virt. eigenvalues --    0.04136   0.04506   0.05740   0.06642   0.08250
  Beta virt. eigenvalues --    0.09104   0.09136   0.10610   0.11955   0.12792

 Mulliken charges and spin densities:
               1          2
     1  C    0.133312  -0.000000
     2  C    0.131527   0.000000
     3  C   -0.381562   0.000000
     4  H    0.248420   0.000000
     5  C   -0.380063   0.000000
     6  H    0.248366  -0.000000
 Sum of Mulliken charges =  -0.00000   0.00000

 Dipole moment (field-independent basis, Debye):
    X=              0.0028    Y=              3.7213    Z=              0.0009  Tot=              3.7213
 Quadrupole moment (field-independent basis, Debye-Ang):
   XX=            -25.8918   YY=            -24.3295   ZZ=            -26.8447
   XY=              0.0019   XZ=              0.0025   YZ=              0.0020

 Normal termination of Gaussian 16 at Thu Oct 12 15:13:21 2023.
