 Gaussian 16, Revision A.03,
 Gaussian 16:  ES64L-G16RevA.03 25-Dec-2016

 ------------------
 # ub3lyp/6-31+g(d)
 ------------------

 ----------------------
 tmpdir/M2_conf_0_5.gjf
 ----------------------
 Symbolic Z-matrix:
 Charge =  0 Multiplicity = 1

                         Standard orientation:
 ---------------------------------------------------------------------
 Center     Atomic      Atomic             Coordinates (Angstroms)
 Number     Number       Type             X           Y           Z
 ---------------------------------------------------------------------
      1          6           0       -0.695321    0.504463   -0.000495
      2          6           0        0.696078    0.503958    0.000220
      3          1           0        1.238650    1.444821    0.000578
      4          8           0       -1.317038   -0.558581    0.000207
      5          1           0       -1.236830    1.445830    0.000296
      6          8           0        1.316243   -0.559067   -0.000110
 ---------------------------------------------------------------------

 SCF Done:  E(UB3LYP) =  -227.810867757     A.U. after   11 cycles

 The electronic state is 1-A.
 Alpha  occ. eigenvalues --  -19.20382 -19.20379 -10.31032 -10.30976  -1.10349
 Alpha  occ. eigenvalues --   -1.06513  -0.76885  -0.58831  -0.56788  -0.48552
 Alpha  occ. eigenvalues --   -0.46579  -0.45819  -0.39050  -0.31902  -0.29484
 Alpha virt. eigenvalues --   -0.14995  -0.00192   0.01607   0.02849   0.03105
 Alpha virt. eigenvalues --    0.04638   0.07474   0.07511   0.09498   0.14746
 Alpha virt. eigenvalues --    0.16851   0.19227   0.20439   0.21397   0.23850

  Beta  occ. eigenvalues --  -19.20382 -19.20379 -10.31032 -10.30976  -1.10349
  Beta  occ. eigenvalues --   -1.06513  -0.76885  -0.58831  -0.56788  -0.48552
  Beta  occ. eigenvalues --   -0.46579  -0.45819  -0.39050  -0.31902  -0.29484
  Beta virt. eigenvalues --   -0.14995  -0.00192   0.01607   0.02849   0.03105
  Beta virt. eigenvalues --    0.04638   0.07474   0.07511   0.09498   0.14746
  Beta virt. eigenvalues --    0.16851   0.19227   0.20439   0.21397   0.23850

 Mulliken charges and spin densities:
               1          2
     1  C    0.130257   0.000000
     2  C    0.130462  -0.000000
     3  H    0.181150  -0.000000
     4  O   -0.311673  -0.000000
     5  H    0.181229  -0.000000
     6  O   -0.311425   0.000000
 Sum of Mulliken charges =  -0.00000  -0.00000

 Dipole moment (field-independent basis, Debye):
    X=              0.0038    Y=              3.8655    Z=             -0.0002  Tot=              3.8655
 Quadrupole moment (field-independent basis, Debye-Ang):
   XX=            -26.4548   YY=            -22.0202   ZZ=            -21.3828
   XY=              0.0008   XZ=              0.0009   YZ=              0.0002

 Normal termination of Gaussian 16 at Thu Oct 12 15:13:39 2023.
