 Gaussian 16, Revision A.03,
 Gaussian 16:  ES64L-G16RevA.03 25-Dec-2016

 ------------------
 # ub3lyp/6-31+g(d)
 ------------------

 -----------------------
 tmpdir/M2_conf_0_12.gjf
 -----------------------
 Symbolic Z-matrix:
 Charge =  0 Multiplicity = 1

                         Standard orientation:
 ---------------------------------------------------------------------
 Center     Atomic      Atomic             Coordinates (Angstroms)
 Number     Number       Type             X           Y           Z
 ---------------------------------------------------------------------
      1          6           0       -0.234244    0.499819   -0.014860
      2          6           0        1.141751   -0.145847   -0.002483
      3          1           0       -0.434850    1.483854    0.010820
      4          8           0       -1.154464   -0.326240    0.000442
      5          1           0        1.098019   -0.717582    0.944088
      6          1           0        1.945270    0.593624   -0.028364
      7          1           0        1.182226   -0.873813   -0.826019
 ---------------------------------------------------------------------

 SCF Done:  E(UB3LYP) =  -153.822697912     A.U. after   11 cycles

 The electronic state is 1-A.
 Alpha  occ. eigenvalues --  -19.15935 -10.28497 -10.20454  -1.04650  -0.75308
 Alpha  occ. eigenvalues --   -0.61790  -0.48663  -0.45165  -0.43251  -0.41339
 Alpha  occ. eigenvalues --   -0.35967  -0.26502
 Alpha virt. eigenvalues --   -0.05132   0.01059   0.02630   0.04780   0.04926
 Alpha virt. eigenvalues --    0.07230   0.07771   0.09378   0.14123   0.16948
 Alpha virt. eigenvalues --    0.17243   0.20273   0.23536   0.25229   0.26035

  Beta  occ. eigenvalues --  -19.15935 -10.28497 -10.20454  -1.04650  -0.75308
  Beta  occ. eigenvalues --   -0.61790  -0.48663  -0.45165  -0.43251  -0.41339
  Beta  occ. eigenvalues --   -0.35967  -0.26502
  Beta virt. eigenvalues --   -0.05132   0.01059   0.02630   0.04780   0.04926
  Beta virt. eigenvalues --    0.07230   0.07771   0.09378   0.14123   0.16948
  Beta virt. eigenvalues --    0.17243   0.20273   0.23536   0.25229   0.26035

 Mulliken charges and spin densities:
               1          2
     1  C    0.230181   0.000000
     2  C   -0.703967  -0.000000
     3  H    0.177587  -0.000000
     4  O   -0.378978  -0.000000
     5  H    0.237240   0.000000
     6  H    0.196722   0.000000
     7  H    0.241215  -0.000000
 Sum of Mulliken charges =   0.00000  -0.00000

 Dipole moment (field-independent basis, Debye):
    X=              2.3676    Y=              1.5565    Z=              0.0172  Tot=              2.8335
 Quadrupole moment (field-independent basis, Debye-Ang):
   XX=            -21.9042   YY=            -17.6171   ZZ=            -17.9758
   XY=             -1.4763   XZ=             -0.0757   YZ=              0.0443

 Normal termination of Gaussian 16 at Thu Oct 12 15:13:11 2023.
