 Gaussian 16, Revision A.03,
 Gaussian 16:  ES64L-G16RevA.03 25-Dec-2016

 ------------------
 # ub3lyp/6-31+g(d)
 ------------------

 -----------------------
 tmpdir/M2_conf_0_20.gjf
 -----------------------
 Symbolic Z-matrix:
 Charge =  0 Multiplicity = 1

                         Standard orientation:
 ---------------------------------------------------------------------
 Center     Atomic      Atomic             Coordinates (Angstroms)
 Number     Number       Type             X           Y           Z
 ---------------------------------------------------------------------
      1          6           0       -0.846161   -0.642905   -0.002402
      2          6           0        0.339515    0.074261   -0.005792
      3          6           0        1.729429   -0.532990    0.002671
      4          8           0       -1.919866   -0.039823    0.004310
      5          1           0       -0.827419   -1.729841   -0.004172
      6          8           0        0.317779    1.310761   -0.001904
      7          1           0        2.273266   -0.142608    0.884063
      8          1           0        1.720197   -1.623433   -0.056677
      9          1           0        2.313959   -0.061826   -0.809323
 ---------------------------------------------------------------------

 SCF Done:  E(UB3LYP) =  -267.132402399     A.U. after   12 cycles

 The electronic state is 1-A.
 Alpha  occ. eigenvalues --  -19.19834 -19.17970 -10.30576 -10.30335 -10.21917
 Alpha  occ. eigenvalues --   -1.09463  -1.05334  -0.79259  -0.71715  -0.57303
 Alpha  occ. eigenvalues --   -0.51570  -0.48744  -0.47788  -0.44077  -0.43463
 Alpha  occ. eigenvalues --   -0.41810  -0.36415  -0.30674  -0.28213
 Alpha virt. eigenvalues --   -0.14017  -0.00560   0.01853   0.02022   0.03628
 Alpha virt. eigenvalues --    0.05226   0.05634   0.06238   0.07592   0.08940
 Alpha virt. eigenvalues --    0.09958   0.12086   0.12922   0.14406   0.17119

  Beta  occ. eigenvalues --  -19.19834 -19.17970 -10.30576 -10.30335 -10.21917
  Beta  occ. eigenvalues --   -1.09463  -1.05334  -0.79259  -0.71715  -0.57303
  Beta  occ. eigenvalues --   -0.51570  -0.48744  -0.47788  -0.44077  -0.43463
  Beta  occ. eigenvalues --   -0.41810  -0.36415  -0.30674  -0.28213
  Beta virt. eigenvalues --   -0.14017  -0.00560   0.01853   0.02022   0.03628
  Beta virt. eigenvalues --    0.05226   0.05634   0.06238   0.07592   0.08940
  Beta virt. eigenvalues --    0.09958   0.12086   0.12922   0.14406   0.17119

 Mulliken charges and spin densities:
               1          2
     1  C    0.048742   0.000000
     2  C    0.528970  -0.000000
     3  C   -0.793636   0.000000
     4  O   -0.300814  -0.000000
     5  H    0.182411  -0.000000
     6  O   -0.368034   0.000000
     7  H    0.250368  -0.000000
     8  H    0.201129   0.000000
     9  H    0.250865   0.000000
 Sum of Mulliken charges =  -0.00000  -0.00000

 Dipole moment (field-independent basis, Debye):
    X=              2.6688    Y=             -3.4584    Z=             -0.0035  Tot=              4.3685
 Quadrupole moment (field-independent basis, Debye-Ang):
   XX=            -32.2372   YY=            -31.1783   ZZ=            -27.8204
   XY=              0.5051   XZ=              0.0600   YZ=              0.0349

 Normal termination of Gaussian 16 at Thu Oct 12 15:14:04 2023.
