 Gaussian 16, Revision A.03,
 Gaussian 16:  ES64L-G16RevA.03 25-Dec-2016

 ------------------
 # ub3lyp/6-31+g(d)
 ------------------

 -----------------------
 tmpdir/M2_conf_0_46.gjf
 -----------------------
 Symbolic Z-matrix:
 Charge =  0 Multiplicity = 2

                         Standard orientation:
 ---------------------------------------------------------------------
 Center     Atomic      Atomic             Coordinates (Angstroms)
 Number     Number       Type             X           Y           Z
 ---------------------------------------------------------------------
      1          6           0       -0.967076    0.822125    0.127000
      2          6           0       -0.818744   -0.652582   -0.248603
      3          6           0        0.594185   -0.492409    0.310096
      4          1           0       -0.345116    1.436044   -0.503981
      5          1           0       -1.014507    1.031577    1.196858
      6          1           0       -0.851583   -0.734017   -1.343087
      7          1           0       -1.538600   -1.304593    0.250774
      8          8           0        1.248009    0.319230   -0.239784
      9          1           0        0.915548   -1.045652    1.186755
 ---------------------------------------------------------------------

 SCF Done:  E(UB3LYP) =  -192.436952128     A.U. after   15 cycles

 The electronic state is 2-A.
 Alpha  occ. eigenvalues --  -19.16043 -10.29266 -10.21306 -10.21268  -1.09382
 Alpha  occ. eigenvalues --   -0.80618  -0.64805  -0.59461  -0.51359  -0.46475
 Alpha  occ. eigenvalues --   -0.45756  -0.42907  -0.38849  -0.37660  -0.27126
 Alpha  occ. eigenvalues --   -0.21127
 Alpha virt. eigenvalues --   -0.03067   0.01332   0.02428   0.03282   0.04465
 Alpha virt. eigenvalues --    0.07208   0.07503   0.08190   0.08408   0.08586
 Alpha virt. eigenvalues --    0.12045   0.13681   0.15370   0.19285   0.19858

  Beta  occ. eigenvalues --  -19.15553 -10.29282 -10.21298 -10.20006  -1.08552
  Beta  occ. eigenvalues --   -0.79351  -0.63098  -0.58889  -0.50609  -0.45859
  Beta  occ. eigenvalues --   -0.44965  -0.41435  -0.38105  -0.36500  -0.26441
  Beta virt. eigenvalues --   -0.07595  -0.01604   0.01393   0.02505   0.03860
  Beta virt. eigenvalues --    0.04725   0.07311   0.07897   0.08231   0.08425
  Beta virt. eigenvalues --    0.09177   0.12405   0.13813   0.15751   0.19519

 Mulliken charges and spin densities:
               1          2
     1  C   -0.443332   0.990203
     2  C   -0.451107  -0.082494
     3  C    0.184528  -0.008665
     4  H    0.249119  -0.033371
     5  H    0.201701  -0.039623
     6  H    0.231007   0.008101
     7  H    0.208231   0.007551
     8  O   -0.346659   0.155429
     9  H    0.166513   0.002869
 Sum of Mulliken charges =  -0.00000   1.00000

 Dipole moment (field-independent basis, Debye):
    X=             -1.2251    Y=             -1.5979    Z=              1.0112  Tot=              2.2531
 Quadrupole moment (field-independent basis, Debye-Ang):
   XX=            -29.3203   YY=            -24.3515   ZZ=            -23.2869
   XY=             -0.2958   XZ=              0.8274   YZ=             -0.1662

 Normal termination of Gaussian 16 at Thu Oct 12 15:14:28 2023.
