 Gaussian 16, Revision A.03,
 Gaussian 16:  ES64L-G16RevA.03 25-Dec-2016

 ------------------
 # ub3lyp/6-31+g(d)
 ------------------

 -----------------------
 tmpdir/M2_conf_0_11.gjf
 -----------------------
 Symbolic Z-matrix:
 Charge =  0 Multiplicity = 1

                         Standard orientation:
 ---------------------------------------------------------------------
 Center     Atomic      Atomic             Coordinates (Angstroms)
 Number     Number       Type             X           Y           Z
 ---------------------------------------------------------------------
      1          6           0       -0.700905   -0.018138   -0.006337
      2          6           0        0.700485   -0.018029   -0.000979
      3          1           0       -1.208527   -0.884824    0.013500
      4          1           0       -1.131301    0.997989    0.018280
      5          1           0        1.204483   -0.885252    0.010177
      6          1           0        1.137868    0.989094    0.001936
 ---------------------------------------------------------------------

 SCF Done:  E(UB3LYP) =  -78.5737646402     A.U. after    9 cycles

 The electronic state is 1-A.
 Alpha  occ. eigenvalues --  -10.19560 -10.19473  -0.75971  -0.59485  -0.49399
 Alpha  occ. eigenvalues --   -0.39999  -0.38523  -0.26743
 Alpha virt. eigenvalues --   -0.01874   0.02539   0.03569   0.04649   0.07067
 Alpha virt. eigenvalues --    0.08508   0.08692   0.12474   0.15758   0.16654
 Alpha virt. eigenvalues --    0.23277   0.24528   0.32369   0.35428   0.58816

  Beta  occ. eigenvalues --  -10.19560 -10.19473  -0.75971  -0.59485  -0.49399
  Beta  occ. eigenvalues --   -0.39999  -0.38523  -0.26743
  Beta virt. eigenvalues --   -0.01874   0.02539   0.03569   0.04649   0.07067
  Beta virt. eigenvalues --    0.08508   0.08692   0.12474   0.15758   0.16654
  Beta virt. eigenvalues --    0.23277   0.24528   0.32369   0.35428   0.58816

 Mulliken charges and spin densities:
               1          2
     1  C   -0.368189   0.000000
     2  C   -0.370423  -0.000000
     3  H    0.187653  -0.000000
     4  H    0.181352  -0.000000
     5  H    0.187507   0.000000
     6  H    0.182101   0.000000
 Sum of Mulliken charges =  -0.00000  -0.00000

 Dipole moment (field-independent basis, Debye):
    X=              0.0052    Y=             -0.0319    Z=              0.0507  Tot=              0.0601
 Quadrupole moment (field-independent basis, Debye-Ang):
   XX=            -12.9002   YY=            -11.9745   ZZ=            -16.2071
   XY=              0.0177   XZ=             -0.0249   YZ=             -0.0010

 Normal termination of Gaussian 16 at Thu Oct 12 15:13:25 2023.
