 Gaussian 16, Revision A.03,
 Gaussian 16:  ES64L-G16RevA.03 25-Dec-2016

 ------------------
 # ub3lyp/6-31+g(d)
 ------------------

 -----------------------
 tmpdir/M2_conf_0_14.gjf
 -----------------------
 Symbolic Z-matrix:
 Charge =  0 Multiplicity = 1

                         Standard orientation:
 ---------------------------------------------------------------------
 Center     Atomic      Atomic             Coordinates (Angstroms)
 Number     Number       Type             X           Y           Z
 ---------------------------------------------------------------------
      1          6           0        0.854114   -0.642191   -0.006418
      2          6           0       -0.339512    0.065591   -0.023434
      3          6           0       -1.742375   -0.531297    0.003232
      4          8           0        1.920410   -0.027844    0.008508
      5          1           0        0.845628   -1.729231   -0.014164
      6          8           0       -0.333162    1.302076   -0.001458
      7          1           0       -2.127451   -0.122623    0.956909
      8          1           0       -1.727448   -1.623023   -0.028764
      9          1           0       -2.322075   -0.071596   -0.810657
 ---------------------------------------------------------------------

 SCF Done:  E(UB3LYP) =  -267.131461098     A.U. after   12 cycles

 The electronic state is 1-A.
 Alpha  occ. eigenvalues --  -19.19875 -19.17913 -10.30632 -10.30283 -10.21894
 Alpha  occ. eigenvalues --   -1.09498  -1.05384  -0.79102  -0.71698  -0.57316
 Alpha  occ. eigenvalues --   -0.51198  -0.48620  -0.48287  -0.43514  -0.43343
 Alpha  occ. eigenvalues --   -0.42352  -0.36564  -0.30689  -0.28096
 Alpha virt. eigenvalues --   -0.13985  -0.00575   0.01908   0.02143   0.03595
 Alpha virt. eigenvalues --    0.05220   0.05595   0.06347   0.07569   0.08788
 Alpha virt. eigenvalues --    0.09932   0.12020   0.12831   0.14490   0.17508

  Beta  occ. eigenvalues --  -19.19875 -19.17913 -10.30632 -10.30283 -10.21894
  Beta  occ. eigenvalues --   -1.09498  -1.05384  -0.79102  -0.71698  -0.57316
  Beta  occ. eigenvalues --   -0.51198  -0.48620  -0.48287  -0.43514  -0.43343
  Beta  occ. eigenvalues --   -0.42352  -0.36564  -0.30689  -0.28096
  Beta virt. eigenvalues --   -0.13985  -0.00575   0.01908   0.02143   0.03595
  Beta virt. eigenvalues --    0.05220   0.05595   0.06347   0.07569   0.08788
  Beta virt. eigenvalues --    0.09932   0.12020   0.12831   0.14490   0.17508

 Mulliken charges and spin densities:
               1          2
     1  C    0.058816   0.000000
     2  C    0.479410  -0.000000
     3  C   -0.752436  -0.000000
     4  O   -0.299625  -0.000000
     5  H    0.182434   0.000000
     6  O   -0.360793  -0.000000
     7  H    0.244926  -0.000000
     8  H    0.199090  -0.000000
     9  H    0.248178   0.000000
 Sum of Mulliken charges =  -0.00000   0.00000

 Dipole moment (field-independent basis, Debye):
    X=             -2.5252    Y=             -3.4887    Z=             -0.0197  Tot=              4.3068
 Quadrupole moment (field-independent basis, Debye-Ang):
   XX=            -32.7777   YY=            -31.1719   ZZ=            -27.5791
   XY=             -0.5252   XZ=              0.0136   YZ=              0.0532

 Normal termination of Gaussian 16 at Thu Oct 12 15:14:00 2023.
