 Gaussian 16, Revision A.03,
 Gaussian 16:  ES64L-G16RevA.03 25-Dec-2016

 ------------------
 # ub3lyp/6-31+g(d)
 ------------------

 -----------------------
 tmpdir/M2_conf_0_43.gjf
 -----------------------
 Symbolic Z-matrix:
 Charge =  0 Multiplicity = 1

                         Standard orientation:
 ---------------------------------------------------------------------
 Center     Atomic      Atomic             Coordinates (Angstroms)
 Number     Number       Type             X           Y           Z
 ---------------------------------------------------------------------
      1          6           0        0.243643    0.499166   -0.000107
      2          6           0       -1.138985   -0.124551   -0.000151
      3          1           0       -1.959475    0.594172   -0.054259
      4          8           0        1.159226   -0.332176   -0.001485
      5          1           0        0.453588    1.479978    0.011190
      6          1           0       -1.216129   -0.797414    0.875239
      7          1           0       -1.179737   -0.867022   -0.818744
 ---------------------------------------------------------------------

 SCF Done:  E(UB3LYP) =  -153.823462053     A.U. after   11 cycles

 The electronic state is 1-A.
 Alpha  occ. eigenvalues --  -19.16012 -10.28605 -10.20456  -1.04663  -0.75192
 Alpha  occ. eigenvalues --   -0.62044  -0.48844  -0.44183  -0.43962  -0.41449
 Alpha  occ. eigenvalues --   -0.35710  -0.26638
 Alpha virt. eigenvalues --   -0.05287   0.01046   0.02529   0.04796   0.05084
 Alpha virt. eigenvalues --    0.07438   0.07641   0.09405   0.14149   0.17034
 Alpha virt. eigenvalues --    0.17290   0.20478   0.23858   0.24912   0.26191

  Beta  occ. eigenvalues --  -19.16012 -10.28605 -10.20456  -1.04663  -0.75192
  Beta  occ. eigenvalues --   -0.62044  -0.48844  -0.44183  -0.43962  -0.41449
  Beta  occ. eigenvalues --   -0.35710  -0.26638
  Beta virt. eigenvalues --   -0.05287   0.01046   0.02529   0.04796   0.05084
  Beta virt. eigenvalues --    0.07438   0.07641   0.09405   0.14149   0.17034
  Beta virt. eigenvalues --    0.17290   0.20478   0.23858   0.24912   0.26191

 Mulliken charges and spin densities:
               1          2
     1  C    0.247788  -0.000000
     2  C   -0.728881   0.000000
     3  H    0.198803  -0.000000
     4  O   -0.380596  -0.000000
     5  H    0.178323   0.000000
     6  H    0.241715  -0.000000
     7  H    0.242848  -0.000000
 Sum of Mulliken charges =   0.00000   0.00000

 Dipole moment (field-independent basis, Debye):
    X=             -2.4040    Y=              1.4961    Z=              0.0155  Tot=              2.8316
 Quadrupole moment (field-independent basis, Debye-Ang):
   XX=            -21.6407   YY=            -17.4555   ZZ=            -18.2349
   XY=              1.7202   XZ=              0.0059   YZ=             -0.0277

 Normal termination of Gaussian 16 at Thu Oct 12 15:14:27 2023.
