 Gaussian 16, Revision A.03,
 Gaussian 16:  ES64L-G16RevA.03 25-Dec-2016

 ------------------
 # ub3lyp/6-31+g(d)
 ------------------

 -----------------------
 tmpdir/M2_conf_0_37.gjf
 -----------------------
 Symbolic Z-matrix:
 Charge =  0 Multiplicity = 2

                         Standard orientation:
 ---------------------------------------------------------------------
 Center     Atomic      Atomic             Coordinates (Angstroms)
 Number     Number       Type             X           Y           Z
 ---------------------------------------------------------------------
      1          6           0        1.308391   -0.577412   -0.243508
      2          6           0        0.611686    0.701723    0.220869
      3          6           0       -0.811424    0.429698   -0.236997
      4          1           0        0.709454   -1.443839   -0.014487
      5          1           0        2.387722   -0.614644   -0.093041
      6          1           0        0.681847    0.593462    1.317107
      7          1           0        1.093722    1.614725   -0.135766
      8          8           0       -1.274758   -0.572867    0.173889
      9          1           0       -1.326598    1.109175   -0.907109
 ---------------------------------------------------------------------

 SCF Done:  E(UB3LYP) =  -192.461452864     A.U. after   15 cycles

 The electronic state is 2-A.
 Alpha  occ. eigenvalues --  -19.16602 -10.28928 -10.21021 -10.20913  -1.08662
 Alpha  occ. eigenvalues --   -0.79333  -0.65523  -0.58260  -0.51537  -0.46826
 Alpha  occ. eigenvalues --   -0.44823  -0.42362  -0.38816  -0.36873  -0.27469
 Alpha  occ. eigenvalues --   -0.22602
 Alpha virt. eigenvalues --   -0.04266   0.01196   0.02453   0.03433   0.04419
 Alpha virt. eigenvalues --    0.06908   0.07511   0.08332   0.09091   0.09150
 Alpha virt. eigenvalues --    0.11608   0.13078   0.15925   0.20127   0.20704

  Beta  occ. eigenvalues --  -19.16597 -10.28905 -10.21050 -10.19530  -1.08643
  Beta  occ. eigenvalues --   -0.78147  -0.63863  -0.57202  -0.51270  -0.46409
  Beta  occ. eigenvalues --   -0.44298  -0.41675  -0.38139  -0.36268  -0.27113
  Beta virt. eigenvalues --   -0.07435  -0.03937   0.01282   0.02550   0.03597
  Beta virt. eigenvalues --    0.04450   0.06966   0.07721   0.08372   0.09201
  Beta virt. eigenvalues --    0.10484   0.11816   0.13163   0.16186   0.20290

 Mulliken charges and spin densities:
               1          2
     1  C   -0.356944   1.092761
     2  C   -0.505702  -0.082664
     3  C    0.190660   0.010804
     4  H    0.225816  -0.042322
     5  H    0.184423  -0.040765
     6  H    0.242893   0.052410
     7  H    0.203334   0.007935
     8  O   -0.350338  -0.000304
     9  H    0.165857   0.002147
 Sum of Mulliken charges =  -0.00000   1.00000

 Dipole moment (field-independent basis, Debye):
    X=              1.2453    Y=              2.0546    Z=             -0.0305  Tot=              2.4027
 Quadrupole moment (field-independent basis, Debye-Ang):
   XX=            -26.4911   YY=            -24.6220   ZZ=            -25.1530
   XY=             -2.0975   XZ=              1.9744   YZ=             -0.5017

 Normal termination of Gaussian 16 at Thu Oct 12 15:14:15 2023.
