 Gaussian 16, Revision A.03,
 Gaussian 16:  ES64L-G16RevA.03 25-Dec-2016

 ------------------
 # ub3lyp/6-31+g(d)
 ------------------

 ----------------------
 tmpdir/M2_conf_0_9.gjf
 ----------------------
 Symbolic Z-matrix:
 Charge =  0 Multiplicity = 1

                         Standard orientation:
 ---------------------------------------------------------------------
 Center     Atomic      Atomic             Coordinates (Angstroms)
 Number     Number       Type             X           Y           Z
 ---------------------------------------------------------------------
      1          6           0        0.697677   -0.007665   -0.000057
      2          6           0       -0.698322   -0.009300   -0.000955
      3          1           0       -1.248549    0.928266   -0.001718
      4          1           0        1.206557   -0.876852   -0.003300
      5          1           0        1.236170    0.935528    0.004647
      6          1           0       -1.190311   -0.885153    0.006442
 ---------------------------------------------------------------------

 SCF Done:  E(UB3LYP) =  -78.5794013851     A.U. after    9 cycles

 The electronic state is 1-A.
 Alpha  occ. eigenvalues --  -10.19486 -10.19428  -0.75911  -0.60167  -0.48380
 Alpha  occ. eigenvalues --   -0.41483  -0.38197  -0.26799
 Alpha virt. eigenvalues --   -0.01872   0.02505   0.03392   0.04906   0.07086
 Alpha virt. eigenvalues --    0.08724   0.08783   0.12466   0.15920   0.18107
 Alpha virt. eigenvalues --    0.21978   0.25535   0.32637   0.35118   0.58843

  Beta  occ. eigenvalues --  -10.19486 -10.19428  -0.75911  -0.60167  -0.48380
  Beta  occ. eigenvalues --   -0.41483  -0.38197  -0.26799
  Beta virt. eigenvalues --   -0.01872   0.02505   0.03392   0.04906   0.07086
  Beta virt. eigenvalues --    0.08724   0.08783   0.12466   0.15920   0.18107
  Beta virt. eigenvalues --    0.21978   0.25535   0.32637   0.35118   0.58843

 Mulliken charges and spin densities:
               1          2
     1  C   -0.371830   0.000000
     2  C   -0.371599  -0.000000
     3  H    0.185066   0.000000
     4  H    0.187488  -0.000000
     5  H    0.184141   0.000000
     6  H    0.186734  -0.000000
 Sum of Mulliken charges =  -0.00000   0.00000

 Dipole moment (field-independent basis, Debye):
    X=              0.0004    Y=             -0.0430    Z=              0.0067  Tot=              0.0435
 Quadrupole moment (field-independent basis, Debye-Ang):
   XX=            -12.3843   YY=            -12.2753   ZZ=            -16.1351
   XY=             -0.0270   XZ=             -0.0044   YZ=             -0.0003

 Normal termination of Gaussian 16 at Thu Oct 12 15:13:06 2023.
