 Gaussian 16, Revision A.03,
 Gaussian 16:  ES64L-G16RevA.03 25-Dec-2016

 ------------------
 # ub3lyp/6-31+g(d)
 ------------------

 -----------------------
 tmpdir/M2_conf_0_55.gjf
 -----------------------
 Symbolic Z-matrix:
 Charge =  0 Multiplicity = 2

                         Standard orientation:
 ---------------------------------------------------------------------
 Center     Atomic      Atomic             Coordinates (Angstroms)
 Number     Number       Type             X           Y           Z
 ---------------------------------------------------------------------
      1          6           0        0.718775   -0.015673    0.003243
      2          6           0       -0.806128   -0.008669   -0.105616
      3          1           0       -1.391032   -0.871622    0.214026
      4          1           0        0.851985    0.052366    1.096864
      5          1           0        1.181472   -0.912745   -0.414240
      6          1           0        1.085719    0.920713   -0.442075
      7          1           0       -1.204026    0.957340    0.159662
 ---------------------------------------------------------------------

 SCF Done:  E(UB3LYP) =  -79.1552540951     A.U. after   12 cycles

 The electronic state is 2-A.
 Alpha  occ. eigenvalues --  -10.19898 -10.19017  -0.75903  -0.60894  -0.45708
 Alpha  occ. eigenvalues --   -0.42273  -0.37627  -0.36696  -0.21319
 Alpha virt. eigenvalues --    0.01866   0.03213   0.05072   0.05823   0.08163
 Alpha virt. eigenvalues --    0.08855   0.09746   0.14892   0.17345   0.19422
 Alpha virt. eigenvalues --    0.22634   0.23472   0.25252   0.30233   0.62245

  Beta  occ. eigenvalues --  -10.19055 -10.18510  -0.74319  -0.58642  -0.45117
  Beta  occ. eigenvalues --   -0.40852  -0.36825  -0.36126
  Beta virt. eigenvalues --   -0.05827   0.02026   0.03403   0.05088   0.06248
  Beta virt. eigenvalues --    0.08143   0.08849   0.11134   0.15202   0.17937
  Beta virt. eigenvalues --    0.19582   0.23786   0.24657   0.26116   0.30767

 Mulliken charges and spin densities:
               1          2
     1  C   -0.704026  -0.093138
     2  C   -0.274676   1.111661
     3  H    0.181768  -0.042227
     4  H    0.207799   0.051011
     5  H    0.206719   0.008430
     6  H    0.206196   0.009120
     7  H    0.176221  -0.044857
 Sum of Mulliken charges =  -0.00000   1.00000

 Dipole moment (field-independent basis, Debye):
    X=              0.3586    Y=              0.0448    Z=              0.5999  Tot=              0.7004
 Quadrupole moment (field-independent basis, Debye-Ang):
   XX=            -15.2906   YY=            -13.7234   ZZ=            -15.5272
   XY=              0.0601   XZ=             -0.9068   YZ=              0.0129

 Normal termination of Gaussian 16 at Thu Oct 12 15:14:31 2023.
