 Gaussian 16, Revision A.03,
 Gaussian 16:  ES64L-G16RevA.03 25-Dec-2016

 ------------------
 # ub3lyp/6-31+g(d)
 ------------------

 -----------------------
 tmpdir/M2_conf_0_41.gjf
 -----------------------
 Symbolic Z-matrix:
 Charge =  0 Multiplicity = 1

                         Standard orientation:
 ---------------------------------------------------------------------
 Center     Atomic      Atomic             Coordinates (Angstroms)
 Number     Number       Type             X           Y           Z
 ---------------------------------------------------------------------
      1          6           0        1.127809   -0.140291   -0.001367
      2          6           0       -0.252671    0.466604   -0.019288
      3          1           0        1.188354   -0.871644   -0.818101
      4          1           0        1.083676   -0.692828    0.956635
      5          1           0        1.922448    0.607995   -0.037295
      6          8           0       -1.131693   -0.317966    0.000657
      7          1           0       -0.391760    1.542330    0.017433
 ---------------------------------------------------------------------

 SCF Done:  E(UB3LYP) =  -153.828441777     A.U. after   11 cycles

 The electronic state is 1-A.
 Alpha  occ. eigenvalues --  -19.16145 -10.28528 -10.19896  -1.08042  -0.75296
 Alpha  occ. eigenvalues --   -0.59663  -0.49095  -0.45960  -0.44042  -0.41177
 Alpha  occ. eigenvalues --   -0.37257  -0.26483
 Alpha virt. eigenvalues --   -0.03712   0.01237   0.02507   0.04727   0.04897
 Alpha virt. eigenvalues --    0.07221   0.07816   0.09384   0.14258   0.16779
 Alpha virt. eigenvalues --    0.17585   0.20577   0.22888   0.25199   0.25329

  Beta  occ. eigenvalues --  -19.16145 -10.28528 -10.19896  -1.08042  -0.75296
  Beta  occ. eigenvalues --   -0.59663  -0.49095  -0.45960  -0.44042  -0.41177
  Beta  occ. eigenvalues --   -0.37257  -0.26483
  Beta virt. eigenvalues --   -0.03712   0.01237   0.02507   0.04727   0.04897
  Beta virt. eigenvalues --    0.07221   0.07816   0.09384   0.14258   0.16779
  Beta virt. eigenvalues --    0.17585   0.20577   0.22888   0.25199   0.25329

 Mulliken charges and spin densities:
               1          2
     1  C   -0.710043   0.000000
     2  C    0.229822  -0.000000
     3  H    0.236740  -0.000000
     4  H    0.231963  -0.000000
     5  H    0.195755  -0.000000
     6  O   -0.345176  -0.000000
     7  H    0.160939  -0.000000
 Sum of Mulliken charges =  -0.00000   0.00000

 Dipole moment (field-independent basis, Debye):
    X=              2.1426    Y=              1.3508    Z=              0.0076  Tot=              2.5329
 Quadrupole moment (field-independent basis, Debye-Ang):
   XX=            -21.7558   YY=            -17.9724   ZZ=            -17.8908
   XY=             -1.2578   XZ=             -0.0997   YZ=              0.0419

 Normal termination of Gaussian 16 at Thu Oct 12 15:14:06 2023.
