 Gaussian 16, Revision A.03,
 Gaussian 16:  ES64L-G16RevA.03 25-Dec-2016

 ------------------
 # ub3lyp/6-31+g(d)
 ------------------

 -----------------------
 tmpdir/M2_conf_0_44.gjf
 -----------------------
 Symbolic Z-matrix:
 Charge =  0 Multiplicity = 1

                         Standard orientation:
 ---------------------------------------------------------------------
 Center     Atomic      Atomic             Coordinates (Angstroms)
 Number     Number       Type             X           Y           Z
 ---------------------------------------------------------------------
      1          6           0        1.269539    0.331288   -0.200088
      2          6           0       -0.009601    1.004432    0.259651
      3          6           0       -1.260480    0.265338   -0.212804
      4          8           0        1.310887   -0.877292    0.058867
      5          1           0        2.041874    0.774374   -0.662007
      6          1           0       -0.122027    0.830127    1.346841
      7          1           0       -0.063104    2.058456   -0.021173
      8          8           0       -1.283199   -0.880811    0.060089
      9          1           0       -2.074999    0.795515   -0.695863
 ---------------------------------------------------------------------

 SCF Done:  E(UB3LYP) =  -267.122880749     A.U. after   12 cycles

 The electronic state is 1-A.
 Alpha  occ. eigenvalues --  -19.16997 -19.16447 -10.29708 -10.29211 -10.22231
 Alpha  occ. eigenvalues --   -1.09009  -1.04967  -0.78640  -0.65053  -0.60094
 Alpha  occ. eigenvalues --   -0.50883  -0.49397  -0.47698  -0.44781  -0.42287
 Alpha  occ. eigenvalues --   -0.39236  -0.37326  -0.28846  -0.25517
 Alpha virt. eigenvalues --   -0.06792  -0.04186   0.00351   0.02357   0.02732
 Alpha virt. eigenvalues --    0.04300   0.06483   0.06751   0.07701   0.08257
 Alpha virt. eigenvalues --    0.09257   0.11731   0.13230   0.15405   0.17250

  Beta  occ. eigenvalues --  -19.16997 -19.16447 -10.29708 -10.29211 -10.22231
  Beta  occ. eigenvalues --   -1.09009  -1.04967  -0.78640  -0.65053  -0.60094
  Beta  occ. eigenvalues --   -0.50883  -0.49397  -0.47698  -0.44781  -0.42287
  Beta  occ. eigenvalues --   -0.39236  -0.37326  -0.28846  -0.25517
  Beta virt. eigenvalues --   -0.06792  -0.04186   0.00351   0.02357   0.02732
  Beta virt. eigenvalues --    0.04300   0.06483   0.06751   0.07701   0.08257
  Beta virt. eigenvalues --    0.09257   0.11731   0.13230   0.15405   0.17250

 Mulliken charges and spin densities:
               1          2
     1  C    0.130625   0.000000
     2  C   -0.458146  -0.000000
     3  C    0.112095   0.000000
     4  O   -0.322213   0.000000
     5  H    0.183364   0.000000
     6  H    0.263573   0.000000
     7  H    0.190354  -0.000000
     8  O   -0.271565  -0.000000
     9  H    0.171914  -0.000000
 Sum of Mulliken charges =  -0.00000  -0.00000

 Dipole moment (field-independent basis, Debye):
    X=             -0.2120    Y=              4.6571    Z=             -0.6877  Tot=              4.7124
 Quadrupole moment (field-independent basis, Debye-Ang):
   XX=            -28.7862   YY=            -31.9494   ZZ=            -27.2862
   XY=              0.3513   XZ=             -0.2942   YZ=             -0.1034

 Normal termination of Gaussian 16 at Thu Oct 12 15:14:55 2023.
