 Gaussian 16, Revision A.03,
 Gaussian 16:  ES64L-G16RevA.03 25-Dec-2016

 ------------------
 # ub3lyp/6-31+g(d)
 ------------------

 -----------------------
 tmpdir/M2_conf_0_17.gjf
 -----------------------
 Symbolic Z-matrix:
 Charge =  0 Multiplicity = 1

                         Standard orientation:
 ---------------------------------------------------------------------
 Center     Atomic      Atomic             Coordinates (Angstroms)
 Number     Number       Type             X           Y           Z
 ---------------------------------------------------------------------
      1          6           0        0.235459    0.497661    0.000061
      2          6           0       -1.131429   -0.128542   -0.000155
      3          8           0        1.155859   -0.328348   -0.001565
      4          1           0        0.439698    1.479678    0.011644
      5          1           0       -1.204653   -0.802101    0.875046
      6          1           0       -1.938221    0.605491   -0.054636
      7          1           0       -1.167872   -0.870998   -0.818962
 ---------------------------------------------------------------------

 SCF Done:  E(UB3LYP) =  -153.823064172     A.U. after   11 cycles

 The electronic state is 1-A.
 Alpha  occ. eigenvalues --  -19.15895 -10.28451 -10.20403  -1.04622  -0.75465
 Alpha  occ. eigenvalues --   -0.61984  -0.48843  -0.44349  -0.44114  -0.41413
 Alpha  occ. eigenvalues --   -0.35600  -0.26572
 Alpha virt. eigenvalues --   -0.05263   0.01047   0.02540   0.04787   0.05047
 Alpha virt. eigenvalues --    0.07431   0.07652   0.09426   0.14139   0.17031
 Alpha virt. eigenvalues --    0.17256   0.20562   0.24290   0.24958   0.26208

  Beta  occ. eigenvalues --  -19.15895 -10.28451 -10.20403  -1.04622  -0.75465
  Beta  occ. eigenvalues --   -0.61984  -0.48843  -0.44349  -0.44114  -0.41413
  Beta  occ. eigenvalues --   -0.35600  -0.26572
  Beta virt. eigenvalues --   -0.05263   0.01047   0.02540   0.04787   0.05047
  Beta virt. eigenvalues --    0.07431   0.07652   0.09426   0.14139   0.17031
  Beta virt. eigenvalues --    0.17256   0.20562   0.24290   0.24958   0.26208

 Mulliken charges and spin densities:
               1          2
     1  C    0.250434  -0.000000
     2  C   -0.728267  -0.000000
     3  O   -0.383759   0.000000
     4  H    0.178044   0.000000
     5  H    0.242667  -0.000000
     6  H    0.197101   0.000000
     7  H    0.243778   0.000000
 Sum of Mulliken charges =  -0.00000  -0.00000

 Dipole moment (field-independent basis, Debye):
    X=             -2.4250    Y=              1.4796    Z=              0.0163  Tot=              2.8408
 Quadrupole moment (field-independent basis, Debye-Ang):
   XX=            -21.7278   YY=            -17.4117   ZZ=            -18.2111
   XY=              1.6830   XZ=              0.0053   YZ=             -0.0295

 Normal termination of Gaussian 16 at Thu Oct 12 15:13:42 2023.
