 Gaussian 16, Revision A.03,
 Gaussian 16:  ES64L-G16RevA.03 25-Dec-2016

 ------------------
 # ub3lyp/6-31+g(d)
 ------------------

 -----------------------
 tmpdir/M2_conf_0_13.gjf
 -----------------------
 Symbolic Z-matrix:
 Charge =  0 Multiplicity = 1

                         Standard orientation:
 ---------------------------------------------------------------------
 Center     Atomic      Atomic             Coordinates (Angstroms)
 Number     Number       Type             X           Y           Z
 ---------------------------------------------------------------------
      1          6           0       -0.799521    0.493317    0.002323
      2          6           0        0.580782    0.636802   -0.010592
      3          6           0        1.407060   -0.496653   -0.000318
      4          8           0       -1.289427   -0.635674    0.000553
      5          1           0       -1.440711    1.371179    0.006187
      6          1           0        1.144672    1.585111    0.022762
      7          1           0        1.003074   -1.414805    0.003838
      8          1           0        2.478455   -0.256885    0.014305
 ---------------------------------------------------------------------

 SCF Done:  E(UB3LYP) =  -191.900099186     A.U. after   12 cycles

 The electronic state is 1-A.
 Alpha  occ. eigenvalues --  -19.15347 -10.27871 -10.22813 -10.21799  -1.04703
 Alpha  occ. eigenvalues --   -0.80405  -0.68281  -0.55965  -0.53401  -0.45694
 Alpha  occ. eigenvalues --   -0.42498  -0.40826  -0.40003  -0.28620  -0.26900
 Alpha virt. eigenvalues --   -0.09817   0.00441   0.02410   0.03734   0.04179
 Alpha virt. eigenvalues --    0.06161   0.06213   0.06967   0.09198   0.09525
 Alpha virt. eigenvalues --    0.11792   0.12109   0.13834   0.16144   0.19134

  Beta  occ. eigenvalues --  -19.15347 -10.27871 -10.22813 -10.21799  -1.04703
  Beta  occ. eigenvalues --   -0.80405  -0.68281  -0.55965  -0.53401  -0.45694
  Beta  occ. eigenvalues --   -0.42498  -0.40826  -0.40003  -0.28620  -0.26900
  Beta virt. eigenvalues --   -0.09817   0.00441   0.02410   0.03734   0.04179
  Beta virt. eigenvalues --    0.06161   0.06213   0.06967   0.09198   0.09525
  Beta virt. eigenvalues --    0.11792   0.12109   0.13834   0.16144   0.19134

 Mulliken charges and spin densities:
               1          2
     1  C   -0.010899  -0.000000
     2  C    0.076074  -0.000000
     3  C   -0.424159   0.000000
     4  O   -0.425116   0.000000
     5  H    0.164031   0.000000
     6  H    0.190647  -0.000000
     7  H    0.233295  -0.000000
     8  H    0.196126  -0.000000
 Sum of Mulliken charges =  -0.00000   0.00000

 Dipole moment (field-independent basis, Debye):
    X=              2.3573    Y=              1.8475    Z=              0.0438  Tot=              2.9953
 Quadrupole moment (field-independent basis, Debye-Ang):
   XX=            -24.1991   YY=            -22.7799   ZZ=            -25.2700
   XY=             -3.1175   XZ=              0.0757   YZ=              0.0382

 Normal termination of Gaussian 16 at Thu Oct 12 15:13:30 2023.
