 Gaussian 16, Revision A.03,
 Gaussian 16:  ES64L-G16RevA.03 25-Dec-2016

 ------------------
 # ub3lyp/6-31+g(d)
 ------------------

 -----------------------
 tmpdir/M2_conf_0_28.gjf
 -----------------------
 Symbolic Z-matrix:
 Charge =  0 Multiplicity = 1

                         Standard orientation:
 ---------------------------------------------------------------------
 Center     Atomic      Atomic             Coordinates (Angstroms)
 Number     Number       Type             X           Y           Z
 ---------------------------------------------------------------------
      1          6           0        0.696103    0.503998    0.000274
      2          6           0       -0.695297    0.504450   -0.000517
      3          1           0       -1.237832    1.445225    0.000179
      4          8           0        1.316308   -0.559002   -0.000138
      5          1           0        1.238308    1.445073    0.000597
      6          8           0       -1.316972   -0.558621    0.000224
 ---------------------------------------------------------------------

 SCF Done:  E(UB3LYP) =  -227.810864199     A.U. after   11 cycles

 The electronic state is 1-A.
 Alpha  occ. eigenvalues --  -19.20381 -19.20379 -10.31032 -10.30977  -1.10349
 Alpha  occ. eigenvalues --   -1.06513  -0.76882  -0.58832  -0.56789  -0.48552
 Alpha  occ. eigenvalues --   -0.46579  -0.45818  -0.39050  -0.31901  -0.29484
 Alpha virt. eigenvalues --   -0.14995  -0.00192   0.01607   0.02849   0.03106
 Alpha virt. eigenvalues --    0.04638   0.07474   0.07509   0.09498   0.14746
 Alpha virt. eigenvalues --    0.16852   0.19222   0.20439   0.21397   0.23849

  Beta  occ. eigenvalues --  -19.20381 -19.20379 -10.31032 -10.30977  -1.10349
  Beta  occ. eigenvalues --   -1.06513  -0.76882  -0.58832  -0.56789  -0.48552
  Beta  occ. eigenvalues --   -0.46579  -0.45818  -0.39050  -0.31901  -0.29484
  Beta virt. eigenvalues --   -0.14995  -0.00192   0.01607   0.02849   0.03106
  Beta virt. eigenvalues --    0.04638   0.07474   0.07509   0.09498   0.14746
  Beta virt. eigenvalues --    0.16852   0.19222   0.20439   0.21397   0.23849

 Mulliken charges and spin densities:
               1          2
     1  C    0.130501  -0.000000
     2  C    0.130125   0.000000
     3  H    0.181270   0.000000
     4  O   -0.311415   0.000000
     5  H    0.181138   0.000000
     6  O   -0.311620  -0.000000
 Sum of Mulliken charges =   0.00000  -0.00000

 Dipole moment (field-independent basis, Debye):
    X=              0.0034    Y=              3.8655    Z=             -0.0001  Tot=              3.8655
 Quadrupole moment (field-independent basis, Debye-Ang):
   XX=            -26.4534   YY=            -22.0210   ZZ=            -21.3829
   XY=             -0.0006   XZ=              0.0011   YZ=              0.0002

 Normal termination of Gaussian 16 at Thu Oct 12 15:13:58 2023.
