 Gaussian 16, Revision A.03,
 Gaussian 16:  ES64L-G16RevA.03 25-Dec-2016

 ------------------
 # ub3lyp/6-31+g(d)
 ------------------

 -----------------------
 tmpdir/M2_conf_0_60.gjf
 -----------------------
 Symbolic Z-matrix:
 Charge =  0 Multiplicity = 1

                         Standard orientation:
 ---------------------------------------------------------------------
 Center     Atomic      Atomic             Coordinates (Angstroms)
 Number     Number       Type             X           Y           Z
 ---------------------------------------------------------------------
      1          6           0        1.138385   -0.140874   -0.001442
      2          6           0       -0.262560    0.468392   -0.019405
      3          1           0       -0.375646    1.547131    0.018269
      4          1           0        1.201686   -0.872059   -0.818120
      5          1           0        1.096617   -0.693489    0.956620
      6          1           0        1.930044    0.610554   -0.037754
      7          8           0       -1.138456   -0.319655    0.000759
 ---------------------------------------------------------------------

 SCF Done:  E(UB3LYP) =  -153.828705834     A.U. after   11 cycles

 The electronic state is 1-A.
 Alpha  occ. eigenvalues --  -19.16375 -10.28732 -10.19896  -1.08114  -0.74929
 Alpha  occ. eigenvalues --   -0.59748  -0.48969  -0.45758  -0.44026  -0.41186
 Alpha  occ. eigenvalues --   -0.37416  -0.26504
 Alpha virt. eigenvalues --   -0.03778   0.01242   0.02502   0.04706   0.04942
 Alpha virt. eigenvalues --    0.07255   0.07793   0.09365   0.14234   0.16778
 Alpha virt. eigenvalues --    0.17560   0.20501   0.22608   0.25109   0.25223

  Beta  occ. eigenvalues --  -19.16375 -10.28732 -10.19896  -1.08114  -0.74929
  Beta  occ. eigenvalues --   -0.59748  -0.48969  -0.45758  -0.44026  -0.41186
  Beta  occ. eigenvalues --   -0.37416  -0.26504
  Beta virt. eigenvalues --   -0.03778   0.01242   0.02502   0.04706   0.04942
  Beta virt. eigenvalues --    0.07255   0.07793   0.09365   0.14234   0.16778
  Beta virt. eigenvalues --    0.17560   0.20501   0.22608   0.25109   0.25223

 Mulliken charges and spin densities:
               1          2
     1  C   -0.709625   0.000000
     2  C    0.227438  -0.000000
     3  H    0.162241   0.000000
     4  H    0.235378   0.000000
     5  H    0.230604   0.000000
     6  H    0.195571   0.000000
     7  O   -0.341607   0.000000
 Sum of Mulliken charges =  -0.00000   0.00000

 Dipole moment (field-independent basis, Debye):
    X=              2.1030    Y=              1.3717    Z=              0.0067  Tot=              2.5108
 Quadrupole moment (field-independent basis, Debye-Ang):
   XX=            -21.7842   YY=            -17.9572   ZZ=            -17.9244
   XY=             -1.2294   XZ=             -0.0975   YZ=              0.0412

 Normal termination of Gaussian 16 at Thu Oct 12 15:14:33 2023.
