 Gaussian 16, Revision A.03,
 Gaussian 16:  ES64L-G16RevA.03 25-Dec-2016

 ------------------
 # ub3lyp/6-31+g(d)
 ------------------

 -----------------------
 tmpdir/M2_conf_0_18.gjf
 -----------------------
 Symbolic Z-matrix:
 Charge =  0 Multiplicity = 1

                         Standard orientation:
 ---------------------------------------------------------------------
 Center     Atomic      Atomic             Coordinates (Angstroms)
 Number     Number       Type             X           Y           Z
 ---------------------------------------------------------------------
      1          6           0       -1.406651   -0.497664   -0.006213
      2          6           0       -0.580779    0.636133   -0.003486
      3          6           0        0.797549    0.493450    0.000380
      4          1           0       -1.004901   -1.418336    0.007177
      5          1           0       -2.481147   -0.247325    0.027890
      6          1           0       -1.137202    1.582638    0.007203
      7          8           0        1.290579   -0.635052    0.001209
      8          1           0        1.437907    1.371925    0.003974
 ---------------------------------------------------------------------

 SCF Done:  E(UB3LYP) =  -191.900019995     A.U. after   12 cycles

 The electronic state is 1-A.
 Alpha  occ. eigenvalues --  -19.15324 -10.27828 -10.22904 -10.21745  -1.04641
 Alpha  occ. eigenvalues --   -0.80450  -0.68288  -0.55971  -0.53410  -0.45722
 Alpha  occ. eigenvalues --   -0.42378  -0.40799  -0.40084  -0.28626  -0.26878
 Alpha virt. eigenvalues --   -0.09842   0.00424   0.02409   0.03745   0.04199
 Alpha virt. eigenvalues --    0.06188   0.06195   0.06955   0.09200   0.09522
 Alpha virt. eigenvalues --    0.11782   0.12115   0.13788   0.16151   0.19150

  Beta  occ. eigenvalues --  -19.15324 -10.27828 -10.22904 -10.21745  -1.04641
  Beta  occ. eigenvalues --   -0.80450  -0.68288  -0.55971  -0.53410  -0.45722
  Beta  occ. eigenvalues --   -0.42378  -0.40799  -0.40084  -0.28626  -0.26878
  Beta virt. eigenvalues --   -0.09842   0.00424   0.02409   0.03745   0.04199
  Beta virt. eigenvalues --    0.06188   0.06195   0.06955   0.09200   0.09522
  Beta virt. eigenvalues --    0.11782   0.12115   0.13788   0.16151   0.19150

 Mulliken charges and spin densities:
               1          2
     1  C   -0.421680  -0.000000
     2  C    0.075624   0.000000
     3  C   -0.011331  -0.000000
     4  H    0.233457   0.000000
     5  H    0.195615  -0.000000
     6  H    0.190875  -0.000000
     7  O   -0.426393   0.000000
     8  H    0.163834   0.000000
 Sum of Mulliken charges =  -0.00000   0.00000

 Dipole moment (field-independent basis, Debye):
    X=             -2.3694    Y=              1.8538    Z=              0.0378  Tot=              3.0087
 Quadrupole moment (field-independent basis, Debye-Ang):
   XX=            -24.2478   YY=            -22.7543   ZZ=            -25.2687
   XY=              3.0984   XZ=             -0.0882   YZ=              0.0029

 Normal termination of Gaussian 16 at Thu Oct 12 15:13:19 2023.
