 Gaussian 16, Revision A.03,
 Gaussian 16:  ES64L-G16RevA.03 25-Dec-2016

 ------------------
 # ub3lyp/6-31+g(d)
 ------------------

 -----------------------
 tmpdir/M2_conf_0_19.gjf
 -----------------------
 Symbolic Z-matrix:
 Charge =  0 Multiplicity = 1

                         Standard orientation:
 ---------------------------------------------------------------------
 Center     Atomic      Atomic             Coordinates (Angstroms)
 Number     Number       Type             X           Y           Z
 ---------------------------------------------------------------------
      1          6           0        1.253446   -0.263074   -0.007466
      2          6           0        0.125596    0.570872   -0.000021
      3          6           0       -1.202185   -0.162399    0.000135
      4          1           0        2.176904    0.131835    0.014688
      5          1           0        0.995261   -1.336062    0.012904
      6          1           0        0.236026    1.567765    0.014954
      7          1           0       -1.222736   -0.842729    0.872914
      8          1           0       -2.061817    0.509314   -0.049930
      9          1           0       -1.184776   -0.902516   -0.821414
 ---------------------------------------------------------------------

 SCF Done:  E(UB3LYP) =  -117.886359733     A.U. after   11 cycles

 The electronic state is 1-A.
 Alpha  occ. eigenvalues --  -10.19614 -10.18845 -10.18086  -0.78651  -0.67929
 Alpha  occ. eigenvalues --   -0.57471  -0.48198  -0.41738  -0.40406  -0.37742
 Alpha  occ. eigenvalues --   -0.36567  -0.24408
 Alpha virt. eigenvalues --   -0.01699   0.01612   0.03192   0.03559   0.06161
 Alpha virt. eigenvalues --    0.06505   0.07662   0.09589   0.09706   0.11651
 Alpha virt. eigenvalues --    0.12619   0.12886   0.16536   0.19608   0.21370

  Beta  occ. eigenvalues --  -10.19614 -10.18845 -10.18086  -0.78651  -0.67929
  Beta  occ. eigenvalues --   -0.57471  -0.48198  -0.41738  -0.40406  -0.37742
  Beta  occ. eigenvalues --   -0.36567  -0.24408
  Beta virt. eigenvalues --   -0.01699   0.01612   0.03192   0.03559   0.06161
  Beta virt. eigenvalues --    0.06505   0.07662   0.09589   0.09706   0.11651
  Beta virt. eigenvalues --    0.12619   0.12886   0.16536   0.19608   0.21370

 Mulliken charges and spin densities:
               1          2
     1  C   -0.478643   0.000000
     2  C    0.140442  -0.000000
     3  C   -0.838233  -0.000000
     4  H    0.183110   0.000000
     5  H    0.174115   0.000000
     6  H    0.180425  -0.000000
     7  H    0.220081   0.000000
     8  H    0.199505   0.000000
     9  H    0.219198   0.000000
 Sum of Mulliken charges =  -0.00000   0.00000

 Dipole moment (field-independent basis, Debye):
    X=             -0.3874    Y=              0.0277    Z=              0.0542  Tot=              0.3921
 Quadrupole moment (field-independent basis, Debye-Ang):
   XX=            -20.0240   YY=            -18.7513   ZZ=            -22.6277
   XY=              0.1089   XZ=              0.0914   YZ=             -0.0228

 Normal termination of Gaussian 16 at Thu Oct 12 15:13:34 2023.
