 Gaussian 16, Revision A.03,
 Gaussian 16:  ES64L-G16RevA.03 25-Dec-2016

 ------------------
 # ub3lyp/6-31+g(d)
 ------------------

 -----------------------
 tmpdir/M2_conf_0_50.gjf
 -----------------------
 Symbolic Z-matrix:
 Charge =  0 Multiplicity = 3

                         Standard orientation:
 ---------------------------------------------------------------------
 Center     Atomic      Atomic             Coordinates (Angstroms)
 Number     Number       Type             X           Y           Z
 ---------------------------------------------------------------------
      1          6           0       -1.197836   -0.234321   -0.038671
      2          6           0        0.072608    0.615401   -0.080923
      3          6           0        1.315464   -0.190415    0.071996
      4          1           0       -1.038679   -1.122765   -0.663920
      5          1           0       -2.101645    0.318657   -0.303316
      6          1           0       -1.181863   -0.553165    1.020147
      7          1           0        0.019873    1.565501    0.453157
      8          1           0        1.086870   -1.189181    0.490323
      9          1           0        2.074033   -0.163039   -0.710808
 ---------------------------------------------------------------------

 SCF Done:  E(UB3LYP) =  -117.792325770     A.U. after   13 cycles

 The electronic state is 3-A.
 Alpha  occ. eigenvalues --  -10.20799 -10.20654 -10.19564  -0.79469  -0.68556
 Alpha  occ. eigenvalues --   -0.57564  -0.46246  -0.43937  -0.40926  -0.38441
 Alpha  occ. eigenvalues --   -0.37006  -0.25856  -0.17792
 Alpha virt. eigenvalues --    0.01610   0.03189   0.03630   0.05034   0.06543
 Alpha virt. eigenvalues --    0.07870   0.08514   0.09296   0.09701   0.11888
 Alpha virt. eigenvalues --    0.13449   0.15678   0.17932   0.21371   0.22400

  Beta  occ. eigenvalues --  -10.19524 -10.19451 -10.19307  -0.76783  -0.66124
  Beta  occ. eigenvalues --   -0.54757  -0.44973  -0.42123  -0.39727  -0.36795
  Beta  occ. eigenvalues --   -0.35817
  Beta virt. eigenvalues --   -0.10360  -0.02727   0.01882   0.03435   0.03947
  Beta virt. eigenvalues --    0.05334   0.06849   0.07875   0.08966   0.09821
  Beta virt. eigenvalues --    0.11145   0.12286   0.14224   0.16083   0.18587

 Mulliken charges and spin densities:
               1          2
     1  C   -0.805872  -0.024172
     2  C    0.032564   0.955800
     3  C   -0.422084   1.039401
     4  H    0.210643   0.007818
     5  H    0.209360   0.009756
     6  H    0.213966   0.053318
     7  H    0.184445  -0.013811
     8  H    0.180927  -0.009717
     9  H    0.196051  -0.018391
 Sum of Mulliken charges =  -0.00000   2.00000

 Dipole moment (field-independent basis, Debye):
    X=             -0.5708    Y=             -0.4405    Z=              0.1089  Tot=              0.7292
 Quadrupole moment (field-independent basis, Debye-Ang):
   XX=            -21.3515   YY=            -20.6646   ZZ=            -21.6561
   XY=             -0.5765   XZ=             -1.0782   YZ=              0.5611

 Normal termination of Gaussian 16 at Thu Oct 12 15:14:29 2023.
