 Gaussian 16, Revision A.03,
 Gaussian 16:  ES64L-G16RevA.03 25-Dec-2016

 ------------------
 # ub3lyp/6-31+g(d)
 ------------------

 -----------------------
 tmpdir/M2_conf_0_63.gjf
 -----------------------
 Symbolic Z-matrix:
 Charge =  0 Multiplicity = 1

                         Standard orientation:
 ---------------------------------------------------------------------
 Center     Atomic      Atomic             Coordinates (Angstroms)
 Number     Number       Type             X           Y           Z
 ---------------------------------------------------------------------
      1          6           0       -1.172917   -0.164589    0.002893
      2          6           0        0.153761    0.576184   -0.004767
      3          6           0        1.191924   -0.265807   -0.010281
      4          1           0       -1.163052   -0.889026   -0.829851
      5          1           0       -1.167861   -0.845739    0.875128
      6          1           0       -2.044601    0.492738   -0.031701
      7          1           0        0.193424    1.659744    0.016647
      8          1           0        0.914388   -1.336180    0.006210
      9          1           0        2.231093    0.043736    0.036501
 ---------------------------------------------------------------------

 SCF Done:  E(UB3LYP) =  -117.898699072     A.U. after   11 cycles

 The electronic state is 1-A.
 Alpha  occ. eigenvalues --  -10.19711 -10.18543 -10.18227  -0.79452  -0.67468
 Alpha  occ. eigenvalues --   -0.56182  -0.47552  -0.41450  -0.40615  -0.38319
 Alpha  occ. eigenvalues --   -0.35034  -0.25290
 Alpha virt. eigenvalues --   -0.00868   0.01689   0.03109   0.03252   0.06119
 Alpha virt. eigenvalues --    0.06590   0.07722   0.09434   0.09525   0.11523
 Alpha virt. eigenvalues --    0.12697   0.12918   0.16651   0.19962   0.20702

  Beta  occ. eigenvalues --  -10.19711 -10.18543 -10.18227  -0.79452  -0.67468
  Beta  occ. eigenvalues --   -0.56182  -0.47552  -0.41450  -0.40615  -0.38319
  Beta  occ. eigenvalues --   -0.35034  -0.25290
  Beta virt. eigenvalues --   -0.00868   0.01689   0.03109   0.03252   0.06119
  Beta virt. eigenvalues --    0.06590   0.07722   0.09434   0.09525   0.11523
  Beta virt. eigenvalues --    0.12697   0.12918   0.16651   0.19962   0.20702

 Mulliken charges and spin densities:
               1          2
     1  C   -0.857359  -0.000000
     2  C    0.177541  -0.000000
     3  C   -0.493547   0.000000
     4  H    0.217925  -0.000000
     5  H    0.217824  -0.000000
     6  H    0.196959   0.000000
     7  H    0.185202   0.000000
     8  H    0.172886   0.000000
     9  H    0.182568  -0.000000
 Sum of Mulliken charges =  -0.00000   0.00000

 Dipole moment (field-independent basis, Debye):
    X=             -0.3298    Y=              0.0095    Z=              0.0741  Tot=              0.3381
 Quadrupole moment (field-independent basis, Debye-Ang):
   XX=            -20.2047   YY=            -18.8234   ZZ=            -22.4895
   XY=             -0.1603   XZ=              0.1614   YZ=             -0.0022

 Normal termination of Gaussian 16 at Thu Oct 12 15:14:41 2023.
