 Gaussian 16, Revision A.03,
 Gaussian 16:  ES64L-G16RevA.03 25-Dec-2016

 ------------------
 # ub3lyp/6-31+g(d)
 ------------------

 -----------------------
 tmpdir/M2_conf_0_52.gjf
 -----------------------
 Symbolic Z-matrix:
 Charge =  0 Multiplicity = 3

                         Standard orientation:
 ---------------------------------------------------------------------
 Center     Atomic      Atomic             Coordinates (Angstroms)
 Number     Number       Type             X           Y           Z
 ---------------------------------------------------------------------
      1          6           0        0.742640   -0.050824   -0.098531
      2          6           0       -0.734164   -0.057881    0.092308
      3          1           0       -1.431603   -0.609079   -0.540530
      4          1           0        1.110330    0.977310   -0.278894
      5          1           0        1.370033   -0.677546    0.535947
      6          1           0       -1.099617    0.961546    0.320817
 ---------------------------------------------------------------------

 SCF Done:  E(UB3LYP) =  -78.4729896563     A.U. after   11 cycles

 The electronic state is 3-A.
 Alpha  occ. eigenvalues --  -10.21478 -10.21352  -0.76515  -0.60931  -0.45827
 Alpha  occ. eigenvalues --   -0.41088  -0.40656  -0.27691  -0.19038
 Alpha virt. eigenvalues --    0.02014   0.02981   0.05158   0.06079   0.08502
 Alpha virt. eigenvalues --    0.09147   0.10032   0.15168   0.17343   0.19596
 Alpha virt. eigenvalues --    0.24346   0.26121   0.28250   0.61877   0.64732

  Beta  occ. eigenvalues --  -10.20113 -10.19987  -0.72288  -0.57339  -0.43848
  Beta  occ. eigenvalues --   -0.39111  -0.38517
  Beta virt. eigenvalues --   -0.11730  -0.03287   0.02496   0.03304   0.05429
  Beta virt. eigenvalues --    0.06846   0.08559   0.09970   0.12057   0.15737
  Beta virt. eigenvalues --    0.18919   0.21692   0.25764   0.27781   0.30790

 Mulliken charges and spin densities:
               1          2
     1  C   -0.382521   1.020360
     2  C   -0.383061   1.025320
     3  H    0.198365  -0.010511
     4  H    0.186315  -0.012368
     5  H    0.197985  -0.012709
     6  H    0.182917  -0.010092
 Sum of Mulliken charges =   0.00000   2.00000

 Dipole moment (field-independent basis, Debye):
    X=             -0.0138    Y=              0.5586    Z=              0.0209  Tot=              0.5591
 Quadrupole moment (field-independent basis, Debye-Ang):
   XX=            -13.9819   YY=            -13.3005   ZZ=            -15.5404
   XY=             -0.0119   XZ=              1.4149   YZ=             -0.0256

 Normal termination of Gaussian 16 at Thu Oct 12 15:14:19 2023.
