 Gaussian 16, Revision A.03,
 Gaussian 16:  ES64L-G16RevA.03 25-Dec-2016

 ------------------
 # ub3lyp/6-31+g(d)
 ------------------

 -----------------------
 tmpdir/M2_conf_0_24.gjf
 -----------------------
 Symbolic Z-matrix:
 Charge =  0 Multiplicity = 1

                         Standard orientation:
 ---------------------------------------------------------------------
 Center     Atomic      Atomic             Coordinates (Angstroms)
 Number     Number       Type             X           Y           Z
 ---------------------------------------------------------------------
      1          6           0       -0.686183    0.509057   -0.001491
      2          6           0        0.699516    0.511197   -0.000957
      3          1           0        1.243253    1.452547   -0.000713
      4          8           0       -1.305872   -0.561181   -0.000089
      5          1           0       -1.338511    1.392221    0.008782
      6          8           0        1.307779   -0.559606    0.000916
 ---------------------------------------------------------------------

 SCF Done:  E(UB3LYP) =  -227.807203959     A.U. after   11 cycles

 The electronic state is 1-A.
 Alpha  occ. eigenvalues --  -19.20487 -19.20076 -10.31258 -10.30946  -1.10308
 Alpha  occ. eigenvalues --   -1.06291  -0.76693  -0.58811  -0.56977  -0.48495
 Alpha  occ. eigenvalues --   -0.46574  -0.45498  -0.38876  -0.31588  -0.29526
 Alpha virt. eigenvalues --   -0.15060  -0.00160   0.01576   0.02695   0.03182
 Alpha virt. eigenvalues --    0.04636   0.07212   0.07530   0.09492   0.14748
 Alpha virt. eigenvalues --    0.16995   0.18317   0.20456   0.21293   0.23572

  Beta  occ. eigenvalues --  -19.20487 -19.20076 -10.31258 -10.30946  -1.10308
  Beta  occ. eigenvalues --   -1.06291  -0.76693  -0.58811  -0.56977  -0.48495
  Beta  occ. eigenvalues --   -0.46574  -0.45498  -0.38876  -0.31588  -0.29526
  Beta virt. eigenvalues --   -0.15060  -0.00160   0.01576   0.02695   0.03182
  Beta virt. eigenvalues --    0.04636   0.07212   0.07530   0.09492   0.14748
  Beta virt. eigenvalues --    0.16995   0.18317   0.20456   0.21293   0.23572

 Mulliken charges and spin densities:
               1          2
     1  C    0.112739   0.000000
     2  C    0.130650  -0.000000
     3  H    0.182668   0.000000
     4  O   -0.305912   0.000000
     5  H    0.186138  -0.000000
     6  O   -0.306283  -0.000000
 Sum of Mulliken charges =  -0.00000   0.00000

 Dipole moment (field-independent basis, Debye):
    X=              0.0140    Y=              3.8835    Z=             -0.0009  Tot=              3.8835
 Quadrupole moment (field-independent basis, Debye-Ang):
   XX=            -26.1801   YY=            -22.1288   ZZ=            -21.4175
   XY=             -0.0548   XZ=             -0.0093   YZ=              0.0020

 Normal termination of Gaussian 16 at Thu Oct 12 15:13:38 2023.
