 Gaussian 16, Revision A.03,
 Gaussian 16:  ES64L-G16RevA.03 25-Dec-2016

 ------------------
 # ub3lyp/6-31+g(d)
 ------------------

 -----------------------
 tmpdir/M2_conf_0_35.gjf
 -----------------------
 Symbolic Z-matrix:
 Charge =  0 Multiplicity = 1

                         Standard orientation:
 ---------------------------------------------------------------------
 Center     Atomic      Atomic             Coordinates (Angstroms)
 Number     Number       Type             X           Y           Z
 ---------------------------------------------------------------------
      1          6           0       -1.235532    0.317662   -0.230981
      2          6           0        0.018456    1.027969    0.267007
      3          6           0        1.246155    0.264882   -0.201344
      4          1           0       -2.009771    0.736943   -0.714690
      5          8           0       -1.263178   -0.880938    0.072357
      6          1           0       -0.066990    0.866479    1.358518
      7          1           0        0.036469    2.082398   -0.017553
      8          8           0        1.239017   -0.883551    0.062632
      9          1           0        2.059111    0.767009   -0.714279
 ---------------------------------------------------------------------

 SCF Done:  E(UB3LYP) =  -267.121759558     A.U. after   13 cycles

 The electronic state is 1-A.
 Alpha  occ. eigenvalues --  -19.16801 -19.16393 -10.29477 -10.29163 -10.22184
 Alpha  occ. eigenvalues --   -1.08931  -1.04914  -0.78579  -0.64714  -0.60201
 Alpha  occ. eigenvalues --   -0.51142  -0.48680  -0.48046  -0.44546  -0.42397
 Alpha  occ. eigenvalues --   -0.38947  -0.37243  -0.29062  -0.25193
 Alpha virt. eigenvalues --   -0.06888  -0.03876   0.00386   0.02378   0.02742
 Alpha virt. eigenvalues --    0.04331   0.06533   0.06893   0.07703   0.08170
 Alpha virt. eigenvalues --    0.09217   0.11768   0.13127   0.15364   0.17609

  Beta  occ. eigenvalues --  -19.16801 -19.16393 -10.29477 -10.29163 -10.22184
  Beta  occ. eigenvalues --   -1.08931  -1.04914  -0.78579  -0.64714  -0.60201
  Beta  occ. eigenvalues --   -0.51142  -0.48680  -0.48046  -0.44546  -0.42397
  Beta  occ. eigenvalues --   -0.38947  -0.37243  -0.29062  -0.25193
  Beta virt. eigenvalues --   -0.06888  -0.03876   0.00386   0.02378   0.02742
  Beta virt. eigenvalues --    0.04331   0.06533   0.06893   0.07703   0.08170
  Beta virt. eigenvalues --    0.09217   0.11768   0.13127   0.15364   0.17609

 Mulliken charges and spin densities:
               1          2
     1  C    0.122879  -0.000000
     2  C   -0.476755   0.000000
     3  C    0.129446  -0.000000
     4  H    0.183439   0.000000
     5  O   -0.314668   0.000000
     6  H    0.265577  -0.000000
     7  H    0.192650  -0.000000
     8  O   -0.273086   0.000000
     9  H    0.170519   0.000000
 Sum of Mulliken charges =  -0.00000  -0.00000

 Dipole moment (field-independent basis, Debye):
    X=              0.0794    Y=              4.6251    Z=             -0.7421  Tot=              4.6849
 Quadrupole moment (field-independent basis, Debye-Ang):
   XX=            -28.6631   YY=            -31.9190   ZZ=            -27.2385
   XY=             -0.4636   XZ=              0.1316   YZ=             -0.0269

 Normal termination of Gaussian 16 at Thu Oct 12 15:14:51 2023.
