 Gaussian 16, Revision A.03,
 Gaussian 16:  ES64L-G16RevA.03 25-Dec-2016

 ------------------
 # ub3lyp/6-31+g(d)
 ------------------

 -----------------------
 tmpdir/M2_conf_0_10.gjf
 -----------------------
 Symbolic Z-matrix:
 Charge =  0 Multiplicity = 1

                         Standard orientation:
 ---------------------------------------------------------------------
 Center     Atomic      Atomic             Coordinates (Angstroms)
 Number     Number       Type             X           Y           Z
 ---------------------------------------------------------------------
      1          6           0        0.685519    0.508193   -0.009510
      2          6           0       -0.702235    0.511102    0.001472
      3          1           0       -1.244306    1.453405    0.002910
      4          8           0        1.308273   -0.560199    0.002205
      5          1           0        1.346233    1.391800    0.023382
      6          8           0       -1.308477   -0.559922    0.000537
 ---------------------------------------------------------------------

 SCF Done:  E(UB3LYP) =  -227.807297571     A.U. after   11 cycles

 The electronic state is 1-A.
 Alpha  occ. eigenvalues --  -19.20516 -19.20068 -10.31308 -10.30994  -1.10328
 Alpha  occ. eigenvalues --   -1.06327  -0.76617  -0.58760  -0.56924  -0.48509
 Alpha  occ. eigenvalues --   -0.46576  -0.45490  -0.38908  -0.31613  -0.29496
 Alpha virt. eigenvalues --   -0.15039  -0.00160   0.01537   0.02674   0.03185
 Alpha virt. eigenvalues --    0.04638   0.07187   0.07527   0.09478   0.14745
 Alpha virt. eigenvalues --    0.16996   0.18188   0.20451   0.21232   0.23546

  Beta  occ. eigenvalues --  -19.20516 -19.20068 -10.31308 -10.30994  -1.10328
  Beta  occ. eigenvalues --   -1.06327  -0.76617  -0.58760  -0.56924  -0.48509
  Beta  occ. eigenvalues --   -0.46576  -0.45490  -0.38908  -0.31613  -0.29496
  Beta virt. eigenvalues --   -0.15039  -0.00160   0.01537   0.02674   0.03185
  Beta virt. eigenvalues --    0.04638   0.07187   0.07527   0.09478   0.14745
  Beta virt. eigenvalues --    0.16996   0.18188   0.20451   0.21232   0.23546

 Mulliken charges and spin densities:
               1          2
     1  C    0.110265  -0.000000
     2  C    0.131719   0.000000
     3  H    0.182880  -0.000000
     4  O   -0.304997   0.000000
     5  H    0.185714   0.000000
     6  O   -0.305581  -0.000000
 Sum of Mulliken charges =  -0.00000   0.00000

 Dipole moment (field-independent basis, Debye):
    X=             -0.0294    Y=              3.8753    Z=             -0.0028  Tot=              3.8754
 Quadrupole moment (field-independent basis, Debye-Ang):
   XX=            -26.1743   YY=            -22.1526   ZZ=            -21.4257
   XY=              0.0403   XZ=              0.0134   YZ=              0.0080

 Normal termination of Gaussian 16 at Thu Oct 12 15:13:19 2023.
