 Gaussian 16, Revision A.03,
 Gaussian 16:  ES64L-G16RevA.03 25-Dec-2016

 ------------------
 # ub3lyp/6-31+g(d)
 ------------------

 -----------------------
 tmpdir/M2_conf_0_61.gjf
 -----------------------
 Symbolic Z-matrix:
 Charge =  0 Multiplicity = 1

                         Standard orientation:
 ---------------------------------------------------------------------
 Center     Atomic      Atomic             Coordinates (Angstroms)
 Number     Number       Type             X           Y           Z
 ---------------------------------------------------------------------
      1          6           0        0.667894   -0.012097   -0.002434
      2          6           0       -0.668788   -0.013562   -0.009185
      3          1           0       -1.267640   -0.917946    0.027510
      4          1           0        1.123707    0.988762    0.014769
      5          1           0        1.277936   -0.908679    0.009201
      6          1           0       -1.128644    0.991821    0.018236
 ---------------------------------------------------------------------

 SCF Done:  E(UB3LYP) =  -78.5898725574     A.U. after    9 cycles

 The electronic state is 1-A.
 Alpha  occ. eigenvalues --  -10.19622 -10.19514  -0.76608  -0.57912  -0.48163
 Alpha  occ. eigenvalues --   -0.41433  -0.36465  -0.27724
 Alpha virt. eigenvalues --   -0.00754   0.02547   0.03434   0.04496   0.06926
 Alpha virt. eigenvalues --    0.08499   0.08763   0.12850   0.15626   0.16637
 Alpha virt. eigenvalues --    0.20201   0.24127   0.33340   0.36306   0.57656

  Beta  occ. eigenvalues --  -10.19622 -10.19514  -0.76608  -0.57912  -0.48163
  Beta  occ. eigenvalues --   -0.41433  -0.36465  -0.27724
  Beta virt. eigenvalues --   -0.00754   0.02547   0.03434   0.04496   0.06926
  Beta virt. eigenvalues --    0.08499   0.08763   0.12850   0.15626   0.16637
  Beta virt. eigenvalues --    0.20201   0.24127   0.33340   0.36306   0.57656

 Mulliken charges and spin densities:
               1          2
     1  C   -0.364021   0.000000
     2  C   -0.362730  -0.000000
     3  H    0.185898  -0.000000
     4  H    0.177240   0.000000
     5  H    0.186334   0.000000
     6  H    0.177279  -0.000000
 Sum of Mulliken charges =  -0.00000   0.00000

 Dipole moment (field-independent basis, Debye):
    X=              0.0074    Y=              0.0032    Z=              0.0761  Tot=              0.0765
 Quadrupole moment (field-independent basis, Debye-Ang):
   XX=            -12.7801   YY=            -12.1897   ZZ=            -16.1017
   XY=             -0.0089   XZ=             -0.0313   YZ=              0.0013

 Normal termination of Gaussian 16 at Thu Oct 12 15:14:39 2023.
