 Gaussian 16, Revision A.03,
 Gaussian 16:  ES64L-G16RevA.03 25-Dec-2016

 ------------------
 # ub3lyp/6-31+g(d)
 ------------------

 -----------------------
 tmpdir/M2_conf_0_16.gjf
 -----------------------
 Symbolic Z-matrix:
 Charge =  0 Multiplicity = 1

                         Standard orientation:
 ---------------------------------------------------------------------
 Center     Atomic      Atomic             Coordinates (Angstroms)
 Number     Number       Type             X           Y           Z
 ---------------------------------------------------------------------
      1          6           0       -0.686655    0.489333   -0.001542
      2          6           0        0.701043    0.491227   -0.000857
      3          6           0       -1.389740   -0.724436   -0.000080
      4          1           0       -1.338827    1.372611    0.008857
      5          6           0        1.390781   -0.723512    0.001088
      6          1           0        1.246260    1.431713   -0.000510
 ---------------------------------------------------------------------

 SCF Done:  E(UB3LYP) =  -153.310883320     A.U. after   14 cycles

 The electronic state is 1-A.
 Alpha  occ. eigenvalues --  -10.29317 -10.29157 -10.24565 -10.24492  -0.86357
 Alpha  occ. eigenvalues --   -0.73518  -0.61759  -0.51628  -0.49903  -0.37390
 Alpha  occ. eigenvalues --   -0.33410  -0.31173  -0.25405
 Alpha virt. eigenvalues --   -0.14884  -0.11429  -0.08372   0.00214   0.02696
 Alpha virt. eigenvalues --    0.04091   0.04517   0.05750   0.06636   0.08023
 Alpha virt. eigenvalues --    0.09060   0.09113   0.10618   0.11972   0.12801

  Beta  occ. eigenvalues --  -10.29317 -10.29157 -10.24565 -10.24492  -0.86357
  Beta  occ. eigenvalues --   -0.73518  -0.61759  -0.51628  -0.49903  -0.37390
  Beta  occ. eigenvalues --   -0.33410  -0.31173  -0.25405
  Beta virt. eigenvalues --   -0.14884  -0.11429  -0.08372   0.00214   0.02696
  Beta virt. eigenvalues --    0.04091   0.04517   0.05750   0.06636   0.08023
  Beta virt. eigenvalues --    0.09060   0.09113   0.10618   0.11972   0.12801

 Mulliken charges and spin densities:
               1          2
     1  C    0.131470  -0.000000
     2  C    0.119797   0.000000
     3  C   -0.377278  -0.000000
     4  H    0.251265  -0.000000
     5  C   -0.374590  -0.000000
     6  H    0.249336  -0.000000
 Sum of Mulliken charges =  -0.00000  -0.00000

 Dipole moment (field-independent basis, Debye):
    X=              0.0044    Y=              3.6783    Z=              0.0094  Tot=              3.6783
 Quadrupole moment (field-independent basis, Debye-Ang):
   XX=            -25.6534   YY=            -24.5000   ZZ=            -26.8758
   XY=             -0.1118   XZ=             -0.0307   YZ=              0.0207

 Normal termination of Gaussian 16 at Thu Oct 12 15:13:31 2023.
