 Gaussian 16, Revision A.03,
 Gaussian 16:  ES64L-G16RevA.03 25-Dec-2016

 ------------------
 # ub3lyp/6-31+g(d)
 ------------------

 -----------------------
 tmpdir/M2_conf_0_34.gjf
 -----------------------
 Symbolic Z-matrix:
 Charge =  0 Multiplicity = 1

                         Standard orientation:
 ---------------------------------------------------------------------
 Center     Atomic      Atomic             Coordinates (Angstroms)
 Number     Number       Type             X           Y           Z
 ---------------------------------------------------------------------
      1          6           0       -0.236624    0.500190   -0.014839
      2          6           0        1.144722   -0.145370   -0.002502
      3          1           0        1.946441    0.596041   -0.028388
      4          1           0       -0.438758    1.483911    0.010899
      5          8           0       -1.155560   -0.327302    0.000446
      6          1           0        1.101907   -0.717224    0.944039
      7          1           0        1.186300   -0.873230   -0.826074
 ---------------------------------------------------------------------

 SCF Done:  E(UB3LYP) =  -153.822718560     A.U. after   11 cycles

 The electronic state is 1-A.
 Alpha  occ. eigenvalues --  -19.15967 -10.28533 -10.20477  -1.04654  -0.75220
 Alpha  occ. eigenvalues --   -0.61802  -0.48627  -0.45114  -0.43225  -0.41365
 Alpha  occ. eigenvalues --   -0.36004  -0.26503
 Alpha virt. eigenvalues --   -0.05139   0.01060   0.02624   0.04780   0.04937
 Alpha virt. eigenvalues --    0.07233   0.07769   0.09372   0.14110   0.16947
 Alpha virt. eigenvalues --    0.17227   0.20226   0.23444   0.25215   0.26039

  Beta  occ. eigenvalues --  -19.15967 -10.28533 -10.20477  -1.04654  -0.75220
  Beta  occ. eigenvalues --   -0.61802  -0.48627  -0.45114  -0.43225  -0.41365
  Beta  occ. eigenvalues --   -0.36004  -0.26503
  Beta virt. eigenvalues --   -0.05139   0.01060   0.02624   0.04780   0.04937
  Beta virt. eigenvalues --    0.07233   0.07769   0.09372   0.14110   0.16947
  Beta virt. eigenvalues --    0.17227   0.20226   0.23444   0.25215   0.26039

 Mulliken charges and spin densities:
               1          2
     1  C    0.229081   0.000000
     2  C   -0.703435  -0.000000
     3  H    0.196811   0.000000
     4  H    0.177693  -0.000000
     5  O   -0.378102  -0.000000
     6  H    0.236984   0.000000
     7  H    0.240969  -0.000000
 Sum of Mulliken charges =  -0.00000   0.00000

 Dipole moment (field-independent basis, Debye):
    X=              2.3590    Y=              1.5614    Z=              0.0171  Tot=              2.8290
 Quadrupole moment (field-independent basis, Debye-Ang):
   XX=            -21.9003   YY=            -17.6175   ZZ=            -17.9836
   XY=             -1.4846   XZ=             -0.0756   YZ=              0.0445

 Normal termination of Gaussian 16 at Thu Oct 12 15:14:20 2023.
