 Gaussian 16, Revision A.03,
 Gaussian 16:  ES64L-G16RevA.03 25-Dec-2016

 ------------------
 # ub3lyp/6-31+g(d)
 ------------------

 -----------------------
 tmpdir/M2_conf_0_45.gjf
 -----------------------
 Symbolic Z-matrix:
 Charge =  0 Multiplicity = 2

                         Standard orientation:
 ---------------------------------------------------------------------
 Center     Atomic      Atomic             Coordinates (Angstroms)
 Number     Number       Type             X           Y           Z
 ---------------------------------------------------------------------
      1          6           0       -0.812120   -0.006128   -0.113652
      2          6           0        0.712356   -0.012611    0.003700
      3          1           0        1.203266   -0.892477   -0.417635
      4          1           0       -1.208422    0.952788    0.178389
      5          1           0       -1.312656   -0.915777    0.222095
      6          1           0        1.094638    0.922802   -0.425805
      7          1           0        0.821758    0.045098    1.102665
 ---------------------------------------------------------------------

 SCF Done:  E(UB3LYP) =  -79.1542173901     A.U. after   12 cycles

 The electronic state is 2-A.
 Alpha  occ. eigenvalues --  -10.19999 -10.18891  -0.75988  -0.60768  -0.45907
 Alpha  occ. eigenvalues --   -0.42323  -0.37292  -0.36764  -0.21501
 Alpha virt. eigenvalues --    0.01842   0.03280   0.05034   0.05797   0.08167
 Alpha virt. eigenvalues --    0.08864   0.09742   0.14813   0.17244   0.19576
 Alpha virt. eigenvalues --    0.22924   0.23245   0.25023   0.30145   0.62066

  Beta  occ. eigenvalues --  -10.18925 -10.18607  -0.74400  -0.58550  -0.45283
  Beta  occ. eigenvalues --   -0.40884  -0.36459  -0.36229
  Beta virt. eigenvalues --   -0.05949   0.02011   0.03468   0.05050   0.06230
  Beta virt. eigenvalues --    0.08148   0.08857   0.11111   0.15132   0.17854
  Beta virt. eigenvalues --    0.19690   0.24083   0.24356   0.26029   0.30671

 Mulliken charges and spin densities:
               1          2
     1  C   -0.277665   1.104467
     2  C   -0.698828  -0.087977
     3  H    0.206374   0.008236
     4  H    0.178647  -0.042757
     5  H    0.179893  -0.041040
     6  H    0.205301   0.008388
     7  H    0.206280   0.050684
 Sum of Mulliken charges =  -0.00000   1.00000

 Dipole moment (field-independent basis, Debye):
    X=              0.3810    Y=              0.0380    Z=              0.6266  Tot=              0.7343
 Quadrupole moment (field-independent basis, Debye-Ang):
   XX=            -15.4497   YY=            -13.6690   ZZ=            -15.5123
   XY=             -0.0292   XZ=             -0.9629   YZ=              0.0180

 Normal termination of Gaussian 16 at Thu Oct 12 15:14:01 2023.
