 Gaussian 16, Revision A.03,
 Gaussian 16:  ES64L-G16RevA.03 25-Dec-2016

 ------------------
 # ub3lyp/6-31+g(d)
 ------------------

 -----------------------
 tmpdir/M2_conf_0_26.gjf
 -----------------------
 Symbolic Z-matrix:
 Charge =  0 Multiplicity = 1

                         Standard orientation:
 ---------------------------------------------------------------------
 Center     Atomic      Atomic             Coordinates (Angstroms)
 Number     Number       Type             X           Y           Z
 ---------------------------------------------------------------------
      1          6           0        0.550131   -0.014039   -0.000262
      2          1           0        1.105319    0.919321    0.000530
      3          1           0        1.043420   -0.892174    0.000574
      4          8           0       -0.681190    0.007136    0.000059
 ---------------------------------------------------------------------

 SCF Done:  E(UB3LYP) =  -114.500995343     A.U. after    9 cycles

 The electronic state is 1-A.
 Alpha  occ. eigenvalues --  -19.18222 -10.28990  -1.05975  -0.66521  -0.52031
 Alpha  occ. eigenvalues --   -0.45568  -0.40204  -0.28162
 Alpha virt. eigenvalues --   -0.06788   0.01190   0.04036   0.04496   0.06674
 Alpha virt. eigenvalues --    0.17119   0.19806   0.21939   0.22511   0.26547
 Alpha virt. eigenvalues --    0.26580   0.35386   0.62506   0.65308   0.73024

  Beta  occ. eigenvalues --  -19.18222 -10.28990  -1.05975  -0.66521  -0.52031
  Beta  occ. eigenvalues --   -0.45568  -0.40204  -0.28162
  Beta virt. eigenvalues --   -0.06788   0.01190   0.04036   0.04496   0.06674
  Beta virt. eigenvalues --    0.17119   0.19806   0.21939   0.22511   0.26547
  Beta virt. eigenvalues --    0.26580   0.35386   0.62506   0.65308   0.73024

 Mulliken charges and spin densities:
               1          2
     1  C   -0.004210   0.000000
     2  H    0.162585   0.000000
     3  H    0.175175   0.000000
     4  O   -0.333551   0.000000
 Sum of Mulliken charges =   0.00000   0.00000

 Dipole moment (field-independent basis, Debye):
    X=              2.6759    Y=             -0.0999    Z=              0.0002  Tot=              2.6777
 Quadrupole moment (field-independent basis, Debye-Ang):
   XX=            -12.3237   YY=            -11.5978   ZZ=            -11.7338
   XY=             -0.0624   XZ=              0.0005   YZ=              0.0000

 Normal termination of Gaussian 16 at Thu Oct 12 15:13:48 2023.
