 Gaussian 16, Revision A.03,
 Gaussian 16:  ES64L-G16RevA.03 25-Dec-2016

 ------------------
 # ub3lyp/6-31+g(d)
 ------------------

 ----------------------
 tmpdir/M2_conf_0_4.gjf
 ----------------------
 Symbolic Z-matrix:
 Charge =  0 Multiplicity = 1

                         Standard orientation:
 ---------------------------------------------------------------------
 Center     Atomic      Atomic             Coordinates (Angstroms)
 Number     Number       Type             X           Y           Z
 ---------------------------------------------------------------------
      1          6           0       -0.698302   -0.009245   -0.000954
      2          6           0        0.697697   -0.007603   -0.000059
      3          1           0        1.236846    0.935222    0.004648
      4          1           0       -1.190287   -0.885099    0.006440
      5          1           0       -1.249514    0.927750   -0.001717
      6          1           0        1.206582   -0.876788   -0.003298
 ---------------------------------------------------------------------

 SCF Done:  E(UB3LYP) =  -78.5794100605     A.U. after    9 cycles

 The electronic state is 1-A.
 Alpha  occ. eigenvalues --  -10.19487 -10.19430  -0.75909  -0.60172  -0.48371
 Alpha  occ. eigenvalues --   -0.41494  -0.38192  -0.26800
 Alpha virt. eigenvalues --   -0.01873   0.02505   0.03390   0.04908   0.07086
 Alpha virt. eigenvalues --    0.08724   0.08784   0.12466   0.15921   0.18114
 Alpha virt. eigenvalues --    0.21968   0.25539   0.32637   0.35116   0.58846

  Beta  occ. eigenvalues --  -10.19487 -10.19430  -0.75909  -0.60172  -0.48371
  Beta  occ. eigenvalues --   -0.41494  -0.38192  -0.26800
  Beta virt. eigenvalues --   -0.01873   0.02505   0.03390   0.04908   0.07086
  Beta virt. eigenvalues --    0.08724   0.08784   0.12466   0.15921   0.18114
  Beta virt. eigenvalues --    0.21968   0.25539   0.32637   0.35116   0.58846

 Mulliken charges and spin densities:
               1          2
     1  C   -0.371624  -0.000000
     2  C   -0.371848   0.000000
     3  H    0.184159  -0.000000
     4  H    0.186731   0.000000
     5  H    0.185088   0.000000
     6  H    0.187493  -0.000000
 Sum of Mulliken charges =   0.00000  -0.00000

 Dipole moment (field-independent basis, Debye):
    X=              0.0003    Y=             -0.0432    Z=              0.0067  Tot=              0.0437
 Quadrupole moment (field-independent basis, Debye-Ang):
   XX=            -12.3804   YY=            -12.2780   ZZ=            -16.1349
   XY=             -0.0273   XZ=             -0.0044   YZ=             -0.0003

 Normal termination of Gaussian 16 at Thu Oct 12 15:13:25 2023.
