 Gaussian 16, Revision A.03,
 Gaussian 16:  ES64L-G16RevA.03 25-Dec-2016

 ------------------
 # ub3lyp/6-31+g(d)
 ------------------

 -----------------------
 tmpdir/M2_conf_0_25.gjf
 -----------------------
 Symbolic Z-matrix:
 Charge =  0 Multiplicity = 1

                         Standard orientation:
 ---------------------------------------------------------------------
 Center     Atomic      Atomic             Coordinates (Angstroms)
 Number     Number       Type             X           Y           Z
 ---------------------------------------------------------------------
      1          6           0        0.698130   -0.007733   -0.000162
      2          6           0       -0.698769   -0.009664   -0.000229
      3          1           0       -1.247886    0.928548    0.004115
      4          1           0        1.207491   -0.876629    0.004165
      5          1           0        1.235887    0.935774   -0.002986
      6          1           0       -1.191661   -0.883313   -0.002947
 ---------------------------------------------------------------------

 SCF Done:  E(UB3LYP) =  -78.5791096461     A.U. after    9 cycles

 The electronic state is 1-A.
 Alpha  occ. eigenvalues --  -10.19493 -10.19432  -0.75899  -0.60193  -0.48382
 Alpha  occ. eigenvalues --   -0.41478  -0.38215  -0.26787
 Alpha virt. eigenvalues --   -0.01889   0.02503   0.03391   0.04910   0.07088
 Alpha virt. eigenvalues --    0.08723   0.08785   0.12461   0.15921   0.18114
 Alpha virt. eigenvalues --    0.21998   0.25544   0.32595   0.35123   0.58861

  Beta  occ. eigenvalues --  -10.19493 -10.19432  -0.75899  -0.60193  -0.48382
  Beta  occ. eigenvalues --   -0.41478  -0.38215  -0.26787
  Beta virt. eigenvalues --   -0.01889   0.02503   0.03391   0.04910   0.07088
  Beta virt. eigenvalues --    0.08723   0.08785   0.12461   0.15921   0.18114
  Beta virt. eigenvalues --    0.21998   0.25544   0.32595   0.35123   0.58861

 Mulliken charges and spin densities:
               1          2
     1  C   -0.371746   0.000000
     2  C   -0.371833  -0.000000
     3  H    0.184995   0.000000
     4  H    0.187545  -0.000000
     5  H    0.184181  -0.000000
     6  H    0.186857   0.000000
 Sum of Mulliken charges =  -0.00000   0.00000

 Dipole moment (field-independent basis, Debye):
    X=              0.0001    Y=             -0.0428    Z=              0.0026  Tot=              0.0429
 Quadrupole moment (field-independent basis, Debye-Ang):
   XX=            -12.3801   YY=            -12.2766   ZZ=            -16.1369
   XY=             -0.0243   XZ=             -0.0001   YZ=             -0.0001

 Normal termination of Gaussian 16 at Thu Oct 12 15:13:44 2023.
