 Gaussian 16, Revision A.03,
 Gaussian 16:  ES64L-G16RevA.03 25-Dec-2016

 ------------------
 # ub3lyp/6-31+g(d)
 ------------------

 ----------------------
 tmpdir/M2_conf_0_8.gjf
 ----------------------
 Symbolic Z-matrix:
 Charge =  0 Multiplicity = 1

                         Standard orientation:
 ---------------------------------------------------------------------
 Center     Atomic      Atomic             Coordinates (Angstroms)
 Number     Number       Type             X           Y           Z
 ---------------------------------------------------------------------
      1          6           0       -1.416840   -0.473372    0.000719
      2          6           0       -0.588447    0.650274    0.001750
      3          6           0        0.789639    0.486734   -0.009439
      4          1           0       -1.018111   -1.398289    0.003141
      5          1           0       -2.495717   -0.348372   -0.003211
      6          1           0       -1.016723    1.649460    0.003387
      7          8           0        1.284529   -0.646566    0.001882
      8          1           0        1.548201    1.287912    0.023450
 ---------------------------------------------------------------------

 SCF Done:  E(UB3LYP) =  -191.902930860     A.U. after   12 cycles

 The electronic state is 1-A.
 Alpha  occ. eigenvalues --  -19.14960 -10.27768 -10.22947 -10.22080  -1.04191
 Alpha  occ. eigenvalues --   -0.80607  -0.68268  -0.55971  -0.53093  -0.45831
 Alpha  occ. eigenvalues --   -0.43200  -0.40562  -0.39994  -0.28761  -0.26418
 Alpha virt. eigenvalues --   -0.09838   0.00585   0.02259   0.03806   0.04127
 Alpha virt. eigenvalues --    0.06114   0.06222   0.07037   0.09317   0.09493
 Alpha virt. eigenvalues --    0.11618   0.12092   0.14096   0.16193   0.18627

  Beta  occ. eigenvalues --  -19.14960 -10.27768 -10.22947 -10.22080  -1.04191
  Beta  occ. eigenvalues --   -0.80607  -0.68268  -0.55971  -0.53093  -0.45831
  Beta  occ. eigenvalues --   -0.43200  -0.40562  -0.39994  -0.28761  -0.26418
  Beta virt. eigenvalues --   -0.09838   0.00585   0.02259   0.03806   0.04127
  Beta virt. eigenvalues --    0.06114   0.06222   0.07037   0.09317   0.09493
  Beta virt. eigenvalues --    0.11618   0.12092   0.14096   0.16193   0.18627

 Mulliken charges and spin densities:
               1          2
     1  C   -0.436626   0.000000
     2  C    0.082098  -0.000000
     3  C   -0.020755  -0.000000
     4  H    0.237159   0.000000
     5  H    0.201344   0.000000
     6  H    0.190958   0.000000
     7  O   -0.420250   0.000000
     8  H    0.166072   0.000000
 Sum of Mulliken charges =  -0.00000  -0.00000

 Dipole moment (field-independent basis, Debye):
    X=             -2.3875    Y=              1.8382    Z=             -0.0024  Tot=              3.0132
 Quadrupole moment (field-independent basis, Debye-Ang):
   XX=            -23.9778   YY=            -22.8275   ZZ=            -25.2495
   XY=              3.5056   XZ=              0.0115   YZ=              0.0080

 Normal termination of Gaussian 16 at Thu Oct 12 15:13:39 2023.
