 Gaussian 16, Revision A.03,
 Gaussian 16:  ES64L-G16RevA.03 25-Dec-2016

 ------------------
 # ub3lyp/6-31+g(d)
 ------------------

 ----------------------
 tmpdir/M2_conf_0_6.gjf
 ----------------------
 Symbolic Z-matrix:
 Charge =  0 Multiplicity = 1

                         Standard orientation:
 ---------------------------------------------------------------------
 Center     Atomic      Atomic             Coordinates (Angstroms)
 Number     Number       Type             X           Y           Z
 ---------------------------------------------------------------------
      1          6           0       -0.703176    0.491026    0.001759
      2          6           0        0.685276    0.488655   -0.009607
      3          6           0       -1.390375   -0.724113    0.000466
      4          1           0       -1.248574    1.431408    0.003697
      5          6           0        1.392094   -0.722886    0.002863
      6          1           0        1.345658    1.372505    0.023413
 ---------------------------------------------------------------------

 SCF Done:  E(UB3LYP) =  -153.310991041     A.U. after   14 cycles

 The electronic state is 1-A.
 Alpha  occ. eigenvalues --  -10.29320 -10.29143 -10.24615 -10.24509  -0.86338
 Alpha  occ. eigenvalues --   -0.73537  -0.61714  -0.51610  -0.49840  -0.37387
 Alpha  occ. eigenvalues --   -0.33405  -0.31173  -0.25422
 Alpha virt. eigenvalues --   -0.14872  -0.11434  -0.08357   0.00209   0.02676
 Alpha virt. eigenvalues --    0.04073   0.04521   0.05746   0.06634   0.08001
 Alpha virt. eigenvalues --    0.09062   0.09108   0.10618   0.11968   0.12797

  Beta  occ. eigenvalues --  -10.29320 -10.29143 -10.24615 -10.24509  -0.86338
  Beta  occ. eigenvalues --   -0.73537  -0.61714  -0.51610  -0.49840  -0.37387
  Beta  occ. eigenvalues --   -0.33405  -0.31173  -0.25422
  Beta virt. eigenvalues --   -0.14872  -0.11434  -0.08357   0.00209   0.02676
  Beta virt. eigenvalues --    0.04073   0.04521   0.05746   0.06634   0.08001
  Beta virt. eigenvalues --    0.09062   0.09108   0.10618   0.11968   0.12797

 Mulliken charges and spin densities:
               1          2
     1  C    0.119363   0.000000
     2  C    0.134784  -0.000000
     3  C   -0.374928   0.000000
     4  H    0.249404  -0.000000
     5  C   -0.380159   0.000000
     6  H    0.251535  -0.000000
 Sum of Mulliken charges =  -0.00000   0.00000

 Dipole moment (field-independent basis, Debye):
    X=             -0.0182    Y=              3.6765    Z=              0.0311  Tot=              3.6767
 Quadrupole moment (field-independent basis, Debye-Ang):
   XX=            -25.6637   YY=            -24.4985   ZZ=            -26.8821
   XY=              0.1252   XZ=              0.0520   YZ=              0.0678

 Normal termination of Gaussian 16 at Thu Oct 12 15:13:15 2023.
