 Gaussian 16, Revision A.03,
 Gaussian 16:  ES64L-G16RevA.03 25-Dec-2016

 ------------------
 # ub3lyp/6-31+g(d)
 ------------------

 -----------------------
 tmpdir/M2_conf_0_48.gjf
 -----------------------
 Symbolic Z-matrix:
 Charge =  0 Multiplicity = 3

                         Standard orientation:
 ---------------------------------------------------------------------
 Center     Atomic      Atomic             Coordinates (Angstroms)
 Number     Number       Type             X           Y           Z
 ---------------------------------------------------------------------
      1          6           0        0.733648   -0.053958   -0.098496
      2          6           0       -0.733011   -0.051058    0.095993
      3          1           0        1.098888    0.970718   -0.302579
      4          1           0        1.359626   -0.651588    0.566113
      5          1           0       -1.099557    0.972372    0.303432
      6          1           0       -1.362779   -0.661402   -0.551951
 ---------------------------------------------------------------------

 SCF Done:  E(UB3LYP) =  -78.4733250420     A.U. after   12 cycles

 The electronic state is 3-A.
 Alpha  occ. eigenvalues --  -10.21276 -10.21233  -0.76761  -0.60651  -0.46139
 Alpha  occ. eigenvalues --   -0.41313  -0.40396  -0.27616  -0.19079
 Alpha virt. eigenvalues --    0.02045   0.03111   0.05099   0.06008   0.08471
 Alpha virt. eigenvalues --    0.09171   0.10045   0.15092   0.17324   0.19480
 Alpha virt. eigenvalues --    0.24722   0.26314   0.28412   0.61312   0.64881

  Beta  occ. eigenvalues --  -10.19911 -10.19869  -0.72560  -0.57049  -0.44128
  Beta  occ. eigenvalues --   -0.38944  -0.38592
  Beta virt. eigenvalues --   -0.11663  -0.03321   0.02535   0.03412   0.05382
  Beta virt. eigenvalues --    0.06760   0.08519   0.09999   0.12038   0.15696
  Beta virt. eigenvalues --    0.18906   0.21402   0.26086   0.28079   0.31053

 Mulliken charges and spin densities:
               1          2
     1  C   -0.384171   1.017839
     2  C   -0.381492   1.021102
     3  H    0.185128  -0.009467
     4  H    0.197321  -0.008950
     5  H    0.185577  -0.009776
     6  H    0.197636  -0.010748
 Sum of Mulliken charges =   0.00000   2.00000

 Dipole moment (field-independent basis, Debye):
    X=             -0.0051    Y=              0.5577    Z=              0.0104  Tot=              0.5578
 Quadrupole moment (field-independent basis, Debye-Ang):
   XX=            -14.2147   YY=            -13.2075   ZZ=            -15.4645
   XY=              0.0152   XZ=              1.4006   YZ=              0.0033

 Normal termination of Gaussian 16 at Thu Oct 12 15:14:07 2023.
