 Gaussian 16, Revision A.03,
 Gaussian 16:  ES64L-G16RevA.03 25-Dec-2016

 ------------------
 # ub3lyp/6-31+g(d)
 ------------------

 -----------------------
 tmpdir/M2_conf_0_65.gjf
 -----------------------
 Symbolic Z-matrix:
 Charge =  0 Multiplicity = 1

                         Standard orientation:
 ---------------------------------------------------------------------
 Center     Atomic      Atomic             Coordinates (Angstroms)
 Number     Number       Type             X           Y           Z
 ---------------------------------------------------------------------
      1          6           0       -0.667631   -0.013721   -0.009144
      2          6           0        0.669052   -0.012440   -0.002439
      3          1           0        1.272693   -0.913340    0.009371
      4          1           0       -1.127347    0.991734    0.018082
      5          1           0       -1.278873   -0.909784    0.027325
      6          1           0        1.125003    0.988359    0.014724
 ---------------------------------------------------------------------

 SCF Done:  E(UB3LYP) =  -78.5899175209     A.U. after    9 cycles

 The electronic state is 1-A.
 Alpha  occ. eigenvalues --  -10.19623 -10.19526  -0.76603  -0.57932  -0.48137
 Alpha  occ. eigenvalues --   -0.41473  -0.36443  -0.27726
 Alpha virt. eigenvalues --   -0.00758   0.02543   0.03427   0.04502   0.06926
 Alpha virt. eigenvalues --    0.08504   0.08764   0.12848   0.15633   0.16670
 Alpha virt. eigenvalues --    0.20162   0.24146   0.33302   0.36331   0.57667

  Beta  occ. eigenvalues --  -10.19623 -10.19526  -0.76603  -0.57932  -0.48137
  Beta  occ. eigenvalues --   -0.41473  -0.36443  -0.27726
  Beta virt. eigenvalues --   -0.00758   0.02543   0.03427   0.04502   0.06926
  Beta virt. eigenvalues --    0.08504   0.08764   0.12848   0.15633   0.16670
  Beta virt. eigenvalues --    0.20162   0.24146   0.33302   0.36331   0.57667

 Mulliken charges and spin densities:
               1          2
     1  C   -0.362546  -0.000000
     2  C   -0.364181   0.000000
     3  H    0.186158   0.000000
     4  H    0.176493  -0.000000
     5  H    0.186260  -0.000000
     6  H    0.177816   0.000000
 Sum of Mulliken charges =  -0.00000   0.00000

 Dipole moment (field-independent basis, Debye):
    X=              0.0020    Y=              0.0038    Z=              0.0757  Tot=              0.0758
 Quadrupole moment (field-independent basis, Debye-Ang):
   XX=            -12.7646   YY=            -12.2009   ZZ=            -16.1009
   XY=              0.0113   XZ=             -0.0308   YZ=              0.0015

 Normal termination of Gaussian 16 at Thu Oct 12 15:14:57 2023.
