 Gaussian 16, Revision A.03,
 Gaussian 16:  ES64L-G16RevA.03 25-Dec-2016

 ------------------
 # ub3lyp/6-31+g(d)
 ------------------

 --------------------
 tmpdir/M2_ref_20.gjf
 --------------------
 Symbolic Z-matrix:
 Charge =  0 Multiplicity = 1

                         Standard orientation:
 ---------------------------------------------------------------------
 Center     Atomic      Atomic             Coordinates (Angstroms)
 Number     Number       Type             X           Y           Z
 ---------------------------------------------------------------------
      1          6           0       -0.855157   -0.641924   -0.002340
      2          6           0        0.337254    0.063967   -0.005713
      3          6           0        1.733382   -0.528974    0.002668
      4          8           0       -1.923170   -0.028748    0.004267
      5          1           0       -0.846773   -1.728977   -0.004071
      6          8           0        0.327201    1.300598   -0.001970
      7          1           0        2.273266   -0.132919    0.883975
      8          1           0        1.735344   -1.619424   -0.056552
      9          1           0        2.313046   -0.051890   -0.809416
 ---------------------------------------------------------------------

 SCF Done:  E(UB3LYP) =  -267.131355624     A.U. after   12 cycles

 The electronic state is 1-A.
 Alpha  occ. eigenvalues --  -19.19864 -19.17914 -10.30632 -10.30320 -10.21882
 Alpha  occ. eigenvalues --   -1.09483  -1.05353  -0.79115  -0.71802  -0.57313
 Alpha  occ. eigenvalues --   -0.51577  -0.48718  -0.47786  -0.44115  -0.43382
 Alpha  occ. eigenvalues --   -0.41810  -0.36366  -0.30656  -0.28179
 Alpha virt. eigenvalues --   -0.14037  -0.00542   0.01854   0.02015   0.03630
 Alpha virt. eigenvalues --    0.05196   0.05620   0.06222   0.07602   0.08993
 Alpha virt. eigenvalues --    0.10025   0.12098   0.12963   0.14459   0.17137

  Beta  occ. eigenvalues --  -19.19864 -19.17914 -10.30632 -10.30320 -10.21882
  Beta  occ. eigenvalues --   -1.09483  -1.05353  -0.79115  -0.71802  -0.57313
  Beta  occ. eigenvalues --   -0.51577  -0.48718  -0.47786  -0.44115  -0.43382
  Beta  occ. eigenvalues --   -0.41810  -0.36366  -0.30656  -0.28179
  Beta virt. eigenvalues --   -0.14037  -0.00542   0.01854   0.02015   0.03630
  Beta virt. eigenvalues --    0.05196   0.05620   0.06222   0.07602   0.08993
  Beta virt. eigenvalues --    0.10025   0.12098   0.12963   0.14459   0.17137

 Mulliken charges and spin densities:
               1          2
     1  C    0.048997  -0.000000
     2  C    0.526948   0.000000
     3  C   -0.793900   0.000000
     4  O   -0.300500  -0.000000
     5  H    0.182667   0.000000
     6  O   -0.365108   0.000000
     7  H    0.250139  -0.000000
     8  H    0.199986   0.000000
     9  H    0.250772  -0.000000
 Sum of Mulliken charges =  -0.00000   0.00000

 Dipole moment (field-independent basis, Debye):
    X=              2.6303    Y=             -3.4616    Z=             -0.0032  Tot=              4.3475
 Quadrupole moment (field-independent basis, Debye-Ang):
   XX=            -32.2335   YY=            -31.1568   ZZ=            -27.8205
   XY=              0.5802   XZ=              0.0593   YZ=              0.0344

 Normal termination of Gaussian 16 at Thu Oct 12 15:12:05 2023.
