 Gaussian 16, Revision A.03,
 Gaussian 16:  ES64L-G16RevA.03 25-Dec-2016

 ------------------
 # ub3lyp/6-31+g(d)
 ------------------

 --------------------
 tmpdir/M2_ref_14.gjf
 --------------------
 Symbolic Z-matrix:
 Charge =  0 Multiplicity = 1

                         Standard orientation:
 ---------------------------------------------------------------------
 Center     Atomic      Atomic             Coordinates (Angstroms)
 Number     Number       Type             X           Y           Z
 ---------------------------------------------------------------------
      1          6           0        0.857024   -0.641934   -0.006333
      2          6           0       -0.338758    0.062205   -0.023348
      3          6           0       -1.743655   -0.529786    0.003188
      4          8           0        1.921423   -0.024230    0.008424
      5          1           0        0.851858   -1.729035   -0.013903
      6          8           0       -0.336155    1.298686   -0.001470
      7          1           0       -2.127388   -0.119655    0.956762
      8          1           0       -1.732577   -1.621600   -0.028642
      9          1           0       -2.321703   -0.068268   -0.810888
 ---------------------------------------------------------------------

 SCF Done:  E(UB3LYP) =  -267.131094196     A.U. after   12 cycles

 The electronic state is 1-A.
 Alpha  occ. eigenvalues --  -19.19884 -19.17893 -10.30650 -10.30277 -10.21883
 Alpha  occ. eigenvalues --   -1.09504  -1.05390  -0.79055  -0.71727  -0.57318
 Alpha  occ. eigenvalues --   -0.51198  -0.48614  -0.48285  -0.43510  -0.43330
 Alpha  occ. eigenvalues --   -0.42350  -0.36548  -0.30682  -0.28084
 Alpha virt. eigenvalues --   -0.13992  -0.00570   0.01909   0.02140   0.03596
 Alpha virt. eigenvalues --    0.05210   0.05591   0.06342   0.07571   0.08809
 Alpha virt. eigenvalues --    0.09954   0.12021   0.12847   0.14509   0.17510

  Beta  occ. eigenvalues --  -19.19884 -19.17893 -10.30650 -10.30277 -10.21883
  Beta  occ. eigenvalues --   -1.09504  -1.05390  -0.79055  -0.71727  -0.57318
  Beta  occ. eigenvalues --   -0.51198  -0.48614  -0.48285  -0.43510  -0.43330
  Beta  occ. eigenvalues --   -0.42350  -0.36548  -0.30682  -0.28084
  Beta virt. eigenvalues --   -0.13992  -0.00570   0.01909   0.02140   0.03596
  Beta virt. eigenvalues --    0.05210   0.05591   0.06342   0.07571   0.08809
  Beta virt. eigenvalues --    0.09954   0.12021   0.12847   0.14509   0.17510

 Mulliken charges and spin densities:
               1          2
     1  C    0.058971  -0.000000
     2  C    0.478652   0.000000
     3  C   -0.752493  -0.000000
     4  O   -0.299525   0.000000
     5  H    0.182532  -0.000000
     6  O   -0.359854  -0.000000
     7  H    0.244837  -0.000000
     8  H    0.198721   0.000000
     9  H    0.248159   0.000000
 Sum of Mulliken charges =  -0.00000   0.00000

 Dipole moment (field-independent basis, Debye):
    X=             -2.5131    Y=             -3.4900    Z=             -0.0194  Tot=              4.3007
 Quadrupole moment (field-independent basis, Debye-Ang):
   XX=            -32.7752   YY=            -31.1647   ZZ=            -27.5789
   XY=             -0.5486   XZ=              0.0148   YZ=              0.0527

 Normal termination of Gaussian 16 at Thu Oct 12 15:12:02 2023.
