 Gaussian 16, Revision A.03,
 Gaussian 16:  ES64L-G16RevA.03 25-Dec-2016

 ------------------
 # ub3lyp/6-31+g(d)
 ------------------

 --------------------
 tmpdir/M2_ref_23.gjf
 --------------------
 Symbolic Z-matrix:
 Charge =  0 Multiplicity = 1

                         Standard orientation:
 ---------------------------------------------------------------------
 Center     Atomic      Atomic             Coordinates (Angstroms)
 Number     Number       Type             X           Y           Z
 ---------------------------------------------------------------------
      1          6           0       -0.789837    0.487561   -0.001301
      2          6           0        0.586096    0.651717   -0.000560
      3          6           0        1.413427   -0.473836    0.000624
      4          8           0       -1.280088   -0.647791   -0.000779
      5          1           0       -1.541005    1.288363    0.009641
      6          1           0        1.017466    1.649553    0.000539
      7          1           0        1.013787   -1.398351    0.007977
      8          1           0        2.492341   -0.349893   -0.004511
 ---------------------------------------------------------------------

 SCF Done:  E(UB3LYP) =  -191.902765378     A.U. after   12 cycles

 The electronic state is 1-A.
 Alpha  occ. eigenvalues --  -19.14931 -10.27692 -10.22936 -10.22035  -1.04185
 Alpha  occ. eigenvalues --   -0.80592  -0.68309  -0.56032  -0.53119  -0.45817
 Alpha  occ. eigenvalues --   -0.43175  -0.40567  -0.39995  -0.28719  -0.26432
 Alpha virt. eigenvalues --   -0.09846   0.00592   0.02262   0.03817   0.04160
 Alpha virt. eigenvalues --    0.06147   0.06202   0.07042   0.09315   0.09503
 Alpha virt. eigenvalues --    0.11631   0.12102   0.14109   0.16195   0.18728

  Beta  occ. eigenvalues --  -19.14931 -10.27692 -10.22936 -10.22035  -1.04185
  Beta  occ. eigenvalues --   -0.80592  -0.68309  -0.56032  -0.53119  -0.45817
  Beta  occ. eigenvalues --   -0.43175  -0.40567  -0.39995  -0.28719  -0.26432
  Beta virt. eigenvalues --   -0.09846   0.00592   0.02262   0.03817   0.04160
  Beta virt. eigenvalues --    0.06147   0.06202   0.07042   0.09315   0.09503
  Beta virt. eigenvalues --    0.11631   0.12102   0.14109   0.16195   0.18728

 Mulliken charges and spin densities:
               1          2
     1  C   -0.019975  -0.000000
     2  C    0.081842   0.000000
     3  C   -0.435542  -0.000000
     4  O   -0.422010   0.000000
     5  H    0.166395   0.000000
     6  H    0.190835   0.000000
     7  H    0.237350   0.000000
     8  H    0.201104   0.000000
 Sum of Mulliken charges =  -0.00000   0.00000

 Dipole moment (field-independent basis, Debye):
    X=              2.3774    Y=              1.8466    Z=              0.0069  Tot=              3.0104
 Quadrupole moment (field-independent basis, Debye-Ang):
   XX=            -23.9802   YY=            -22.8038   ZZ=            -25.2399
   XY=             -3.5158   XZ=             -0.0118   YZ=             -0.0071

 Normal termination of Gaussian 16 at Thu Oct 12 15:11:31 2023.
