 Gaussian 16, Revision A.03,
 Gaussian 16:  ES64L-G16RevA.03 25-Dec-2016

 ------------------
 # ub3lyp/6-31+g(d)
 ------------------

 --------------------
 tmpdir/M2_ref_21.gjf
 --------------------
 Symbolic Z-matrix:
 Charge =  0 Multiplicity = 1

                         Standard orientation:
 ---------------------------------------------------------------------
 Center     Atomic      Atomic             Coordinates (Angstroms)
 Number     Number       Type             X           Y           Z
 ---------------------------------------------------------------------
      1          6           0       -0.698734   -0.009652   -0.000224
      2          6           0        0.698172   -0.007699   -0.000175
      3          1           0       -1.191668   -0.883254   -0.002947
      4          1           0       -1.248564    0.928125    0.004104
      5          1           0        1.207627   -0.876568    0.004186
      6          1           0        1.235980    0.935803   -0.002953
 ---------------------------------------------------------------------

 SCF Done:  E(UB3LYP) =  -78.5791140128     A.U. after    9 cycles

 The electronic state is 1-A.
 Alpha  occ. eigenvalues --  -10.19495 -10.19432  -0.75898  -0.60196  -0.48377
 Alpha  occ. eigenvalues --   -0.41484  -0.38212  -0.26787
 Alpha virt. eigenvalues --   -0.01890   0.02503   0.03390   0.04911   0.07088
 Alpha virt. eigenvalues --    0.08724   0.08785   0.12460   0.15922   0.18118
 Alpha virt. eigenvalues --    0.21993   0.25546   0.32594   0.35122   0.58863

  Beta  occ. eigenvalues --  -10.19495 -10.19432  -0.75898  -0.60196  -0.48377
  Beta  occ. eigenvalues --   -0.41484  -0.38212  -0.26787
  Beta virt. eigenvalues --   -0.01890   0.02503   0.03390   0.04911   0.07088
  Beta virt. eigenvalues --    0.08724   0.08785   0.12460   0.15922   0.18118
  Beta virt. eigenvalues --    0.21993   0.25546   0.32594   0.35122   0.58863

 Mulliken charges and spin densities:
               1          2
     1  C   -0.371866  -0.000000
     2  C   -0.371737   0.000000
     3  H    0.186855  -0.000000
     4  H    0.185009  -0.000000
     5  H    0.187557   0.000000
     6  H    0.184182   0.000000
 Sum of Mulliken charges =  -0.00000  -0.00000

 Dipole moment (field-independent basis, Debye):
    X=             -0.0001    Y=             -0.0429    Z=              0.0027  Tot=              0.0430
 Quadrupole moment (field-independent basis, Debye-Ang):
   XX=            -12.3779   YY=            -12.2781   ZZ=            -16.1369
   XY=             -0.0250   XZ=             -0.0001   YZ=             -0.0001

 Normal termination of Gaussian 16 at Thu Oct 12 15:11:08 2023.
