 Gaussian 16, Revision A.03,
 Gaussian 16:  ES64L-G16RevA.03 25-Dec-2016

 ------------------
 # ub3lyp/6-31+g(d)
 ------------------

 --------------------
 tmpdir/M2_ref_26.gjf
 --------------------
 Symbolic Z-matrix:
 Charge =  0 Multiplicity = 1

                         Standard orientation:
 ---------------------------------------------------------------------
 Center     Atomic      Atomic             Coordinates (Angstroms)
 Number     Number       Type             X           Y           Z
 ---------------------------------------------------------------------
      1          6           0        0.550147   -0.014038   -0.000253
      2          1           0        1.105410    0.919302    0.000511
      3          1           0        1.043354   -0.892242    0.000554
      4          8           0       -0.681206    0.007146    0.000056
 ---------------------------------------------------------------------

 SCF Done:  E(UB3LYP) =  -114.500997190     A.U. after    9 cycles

 The electronic state is 1-A.
 Alpha  occ. eigenvalues --  -19.18222 -10.28991  -1.05973  -0.66520  -0.52030
 Alpha  occ. eigenvalues --   -0.45568  -0.40203  -0.28162
 Alpha virt. eigenvalues --   -0.06789   0.01190   0.04036   0.04496   0.06674
 Alpha virt. eigenvalues --    0.17118   0.19806   0.21939   0.22511   0.26547
 Alpha virt. eigenvalues --    0.26579   0.35384   0.62506   0.65306   0.73024

  Beta  occ. eigenvalues --  -19.18222 -10.28991  -1.05973  -0.66520  -0.52030
  Beta  occ. eigenvalues --   -0.45568  -0.40203  -0.28162
  Beta virt. eigenvalues --   -0.06789   0.01190   0.04036   0.04496   0.06674
  Beta virt. eigenvalues --    0.17118   0.19806   0.21939   0.22511   0.26547
  Beta virt. eigenvalues --    0.26579   0.35384   0.62506   0.65306   0.73024

 Mulliken charges and spin densities:
               1          2
     1  C   -0.004218   0.000000
     2  H    0.162596  -0.000000
     3  H    0.175178  -0.000000
     4  O   -0.333556  -0.000000
 Sum of Mulliken charges =   0.00000  -0.00000

 Dipole moment (field-independent basis, Debye):
    X=              2.6760    Y=             -0.0999    Z=              0.0002  Tot=              2.6778
 Quadrupole moment (field-independent basis, Debye-Ang):
   XX=            -12.3237   YY=            -11.5977   ZZ=            -11.7339
   XY=             -0.0623   XZ=              0.0004   YZ=              0.0000

 Normal termination of Gaussian 16 at Thu Oct 12 15:11:50 2023.
