 Gaussian 16, Revision A.03,
 Gaussian 16:  ES64L-G16RevA.03 25-Dec-2016

 ------------------
 # ub3lyp/6-31+g(d)
 ------------------

 --------------------
 tmpdir/M2_ref_31.gjf
 --------------------
 Symbolic Z-matrix:
 Charge =  0 Multiplicity = 1

                         Standard orientation:
 ---------------------------------------------------------------------
 Center     Atomic      Atomic             Coordinates (Angstroms)
 Number     Number       Type             X           Y           Z
 ---------------------------------------------------------------------
      1          6           0        0.022772    0.005871   -0.001827
      2          1           0        1.087054   -0.231610   -0.065855
      3          1           0       -0.462782   -0.482549    0.860700
      4          1           0       -0.572532   -0.404893   -0.839471
      5          1           0       -0.188369    1.083823    0.055586
 ---------------------------------------------------------------------

 SCF Done:  E(UB3LYP) =  -40.5181651631     A.U. after    8 cycles

 The electronic state is 1-A.
 Alpha  occ. eigenvalues --  -10.17546  -0.69465  -0.40728  -0.39442  -0.37824
 Alpha virt. eigenvalues --    0.01638   0.05970   0.06131   0.06317   0.16858
 Alpha virt. eigenvalues --    0.17908   0.18709   0.27374   0.64602   0.64796
 Alpha virt. eigenvalues --    0.64957   0.90296   0.92715   0.94564   1.06541

  Beta  occ. eigenvalues --  -10.17546  -0.69465  -0.40728  -0.39442  -0.37824
  Beta virt. eigenvalues --    0.01638   0.05970   0.06131   0.06317   0.16858
  Beta virt. eigenvalues --    0.17908   0.18709   0.27374   0.64602   0.64796
  Beta virt. eigenvalues --    0.64957   0.90296   0.92715   0.94564   1.06541

 Mulliken charges and spin densities:
               1          2
     1  C   -0.798137  -0.000000
     2  H    0.203134   0.000000
     3  H    0.197584   0.000000
     4  H    0.197068  -0.000000
     5  H    0.200352  -0.000000
 Sum of Mulliken charges =  -0.00000  -0.00000

 Dipole moment (field-independent basis, Debye):
    X=             -0.0739    Y=             -0.0255    Z=              0.0094  Tot=              0.0787
 Quadrupole moment (field-independent basis, Debye-Ang):
   XX=             -8.2583   YY=             -8.5246   ZZ=             -8.8610
   XY=             -0.0231   XZ=             -0.0095   YZ=              0.0014

 Normal termination of Gaussian 16 at Thu Oct 12 15:11:43 2023.
