 Gaussian 16, Revision A.03,
 Gaussian 16:  ES64L-G16RevA.03 25-Dec-2016

 ------------------
 # ub3lyp/6-31+g(d)
 ------------------

 --------------------
 tmpdir/M2_ref_10.gjf
 --------------------
 Symbolic Z-matrix:
 Charge =  0 Multiplicity = 1

                         Standard orientation:
 ---------------------------------------------------------------------
 Center     Atomic      Atomic             Coordinates (Angstroms)
 Number     Number       Type             X           Y           Z
 ---------------------------------------------------------------------
      1          6           0        0.685575    0.508317   -0.009476
      2          6           0       -0.702182    0.511137    0.001452
      3          1           0       -1.247303    1.451729    0.002886
      4          8           0        1.308368   -0.560030    0.002192
      5          1           0        1.346260    1.391881    0.023365
      6          8           0       -1.308283   -0.560013    0.000545
 ---------------------------------------------------------------------

 SCF Done:  E(UB3LYP) =  -227.807286577     A.U. after   11 cycles

 The electronic state is 1-A.
 Alpha  occ. eigenvalues --  -19.20508 -19.20070 -10.31305 -10.31001  -1.10327
 Alpha  occ. eigenvalues --   -1.06327  -0.76607  -0.58765  -0.56931  -0.48504
 Alpha  occ. eigenvalues --   -0.46576  -0.45488  -0.38906  -0.31606  -0.29497
 Alpha virt. eigenvalues --   -0.15038  -0.00159   0.01537   0.02671   0.03189
 Alpha virt. eigenvalues --    0.04638   0.07182   0.07526   0.09478   0.14745
 Alpha virt. eigenvalues --    0.17004   0.18177   0.20451   0.21231   0.23538

  Beta  occ. eigenvalues --  -19.20508 -19.20070 -10.31305 -10.31001  -1.10327
  Beta  occ. eigenvalues --   -1.06327  -0.76607  -0.58765  -0.56931  -0.48504
  Beta  occ. eigenvalues --   -0.46576  -0.45488  -0.38906  -0.31606  -0.29497
  Beta virt. eigenvalues --   -0.15038  -0.00159   0.01537   0.02671   0.03189
  Beta virt. eigenvalues --    0.04638   0.07182   0.07526   0.09478   0.14745
  Beta virt. eigenvalues --    0.17004   0.18177   0.20451   0.21231   0.23538

 Mulliken charges and spin densities:
               1          2
     1  C    0.110240  -0.000000
     2  C    0.131336   0.000000
     3  H    0.182999   0.000000
     4  O   -0.304897  -0.000000
     5  H    0.185709  -0.000000
     6  O   -0.305388   0.000000
 Sum of Mulliken charges =  -0.00000  -0.00000

 Dipole moment (field-independent basis, Debye):
    X=             -0.0304    Y=              3.8756    Z=             -0.0028  Tot=              3.8757
 Quadrupole moment (field-independent basis, Debye-Ang):
   XX=            -26.1675   YY=            -22.1558   ZZ=            -21.4260
   XY=              0.0372   XZ=              0.0134   YZ=              0.0080

 Normal termination of Gaussian 16 at Thu Oct 12 15:11:21 2023.
