 Gaussian 16, Revision A.03,
 Gaussian 16:  ES64L-G16RevA.03 25-Dec-2016

 ------------------
 # ub3lyp/6-31+g(d)
 ------------------

 --------------------
 tmpdir/M2_ref_15.gjf
 --------------------
 Symbolic Z-matrix:
 Charge =  0 Multiplicity = 1

                         Standard orientation:
 ---------------------------------------------------------------------
 Center     Atomic      Atomic             Coordinates (Angstroms)
 Number     Number       Type             X           Y           Z
 ---------------------------------------------------------------------
      1          6           0       -1.240194   -0.264237   -0.002023
      2          6           0       -0.120360    0.580408   -0.017009
      3          6           0        1.199766   -0.182415   -0.000906
      4          1           0       -2.164507    0.124714    0.021151
      5          1           0       -0.983003   -1.331707   -0.006015
      6          1           0       -0.236609    1.577960    0.007880
      7          1           0        1.105123   -0.747831    0.945725
      8          1           0        2.063436    0.485933   -0.024944
      9          1           0        1.180293   -0.911607   -0.824165
 ---------------------------------------------------------------------

 SCF Done:  E(UB3LYP) =  -117.884031020     A.U. after   11 cycles

 The electronic state is 1-A.
 Alpha  occ. eigenvalues --  -10.19579 -10.18833 -10.17888  -0.78761  -0.67759
 Alpha  occ. eigenvalues --   -0.57327  -0.48150  -0.41748  -0.41149  -0.37658
 Alpha  occ. eigenvalues --   -0.36052  -0.24362
 Alpha virt. eigenvalues --   -0.01606   0.01686   0.03259   0.03550   0.05989
 Alpha virt. eigenvalues --    0.06623   0.07733   0.09326   0.09567   0.11695
 Alpha virt. eigenvalues --    0.12576   0.12855   0.16455   0.20026   0.21369

  Beta  occ. eigenvalues --  -10.19579 -10.18833 -10.17888  -0.78761  -0.67759
  Beta  occ. eigenvalues --   -0.57327  -0.48150  -0.41748  -0.41149  -0.37658
  Beta  occ. eigenvalues --   -0.36052  -0.24362
  Beta virt. eigenvalues --   -0.01606   0.01686   0.03259   0.03550   0.05989
  Beta virt. eigenvalues --    0.06623   0.07733   0.09326   0.09567   0.11695
  Beta virt. eigenvalues --    0.12576   0.12855   0.16455   0.20026   0.21369

 Mulliken charges and spin densities:
               1          2
     1  C   -0.467640  -0.000000
     2  C    0.115804   0.000000
     3  C   -0.825698  -0.000000
     4  H    0.182777   0.000000
     5  H    0.175087  -0.000000
     6  H    0.180644  -0.000000
     7  H    0.220714  -0.000000
     8  H    0.198862  -0.000000
     9  H    0.219451   0.000000
 Sum of Mulliken charges =  -0.00000  -0.00000

 Dipole moment (field-independent basis, Debye):
    X=              0.3820    Y=              0.0755    Z=              0.0762  Tot=              0.3968
 Quadrupole moment (field-independent basis, Debye-Ang):
   XX=            -20.2273   YY=            -18.9346   ZZ=            -22.3722
   XY=              0.0604   XZ=             -0.1722   YZ=              0.1042

 Normal termination of Gaussian 16 at Thu Oct 12 15:11:16 2023.
