 Gaussian 16, Revision A.03,
 Gaussian 16:  ES64L-G16RevA.03 25-Dec-2016

 ------------------
 # ub3lyp/6-31+g(d)
 ------------------

 -------------------
 tmpdir/M2_ref_6.gjf
 -------------------
 Symbolic Z-matrix:
 Charge =  0 Multiplicity = 1

                         Standard orientation:
 ---------------------------------------------------------------------
 Center     Atomic      Atomic             Coordinates (Angstroms)
 Number     Number       Type             X           Y           Z
 ---------------------------------------------------------------------
      1          6           0       -0.702858    0.491040    0.001764
      2          6           0        0.684896    0.488695   -0.009621
      3          6           0       -1.389936   -0.724177    0.000455
      4          1           0       -1.248298    1.431446    0.003769
      5          6           0        1.391733   -0.722876    0.002878
      6          1           0        1.345291    1.372469    0.023372
 ---------------------------------------------------------------------

 SCF Done:  E(UB3LYP) =  -153.310887740     A.U. after   14 cycles

 The electronic state is 1-A.
 Alpha  occ. eigenvalues --  -10.29319 -10.29141 -10.24608 -10.24503  -0.86352
 Alpha  occ. eigenvalues --   -0.73532  -0.61723  -0.51618  -0.49834  -0.37396
 Alpha  occ. eigenvalues --   -0.33407  -0.31169  -0.25416
 Alpha virt. eigenvalues --   -0.14876  -0.11427  -0.08362   0.00208   0.02677
 Alpha virt. eigenvalues --    0.04081   0.04521   0.05746   0.06635   0.08002
 Alpha virt. eigenvalues --    0.09061   0.09109   0.10617   0.11968   0.12798

  Beta  occ. eigenvalues --  -10.29319 -10.29141 -10.24608 -10.24503  -0.86352
  Beta  occ. eigenvalues --   -0.73532  -0.61723  -0.51618  -0.49834  -0.37396
  Beta  occ. eigenvalues --   -0.33407  -0.31169  -0.25416
  Beta virt. eigenvalues --   -0.14876  -0.11427  -0.08362   0.00208   0.02677
  Beta virt. eigenvalues --    0.04081   0.04521   0.05746   0.06635   0.08002
  Beta virt. eigenvalues --    0.09061   0.09109   0.10617   0.11968   0.12798

 Mulliken charges and spin densities:
               1          2
     1  C    0.119417   0.000000
     2  C    0.134762   0.000000
     3  C   -0.374972  -0.000000
     4  H    0.249390   0.000000
     5  C   -0.380125  -0.000000
     6  H    0.251528  -0.000000
 Sum of Mulliken charges =  -0.00000   0.00000

 Dipole moment (field-independent basis, Debye):
    X=             -0.0185    Y=              3.6768    Z=              0.0311  Tot=              3.6769
 Quadrupole moment (field-independent basis, Debye-Ang):
   XX=            -25.6625   YY=            -24.4990   ZZ=            -26.8805
   XY=              0.1253   XZ=              0.0516   YZ=              0.0679

 Normal termination of Gaussian 16 at Thu Oct 12 15:11:17 2023.
