 Gaussian 16, Revision A.03,
 Gaussian 16:  ES64L-G16RevA.03 25-Dec-2016

 ------------------
 # ub3lyp/6-31+g(d)
 ------------------

 --------------------
 tmpdir/M2_ref_63.gjf
 --------------------
 Symbolic Z-matrix:
 Charge =  0 Multiplicity = 1

                         Standard orientation:
 ---------------------------------------------------------------------
 Center     Atomic      Atomic             Coordinates (Angstroms)
 Number     Number       Type             X           Y           Z
 ---------------------------------------------------------------------
      1          6           0       -1.191119   -0.158548    0.002870
      2          6           0        0.150633    0.554529   -0.004813
      3          6           0        1.211667   -0.258441   -0.010230
      4          1           0       -1.196240   -0.883305   -0.829579
      5          1           0       -1.200292   -0.839352    0.875329
      6          1           0       -2.048947    0.516808   -0.032058
      7          1           0        0.212806    1.637027    0.016381
      8          1           0        0.963719   -1.336101    0.006252
      9          1           0        2.241869    0.079684    0.036713
 ---------------------------------------------------------------------

 SCF Done:  E(UB3LYP) =  -117.901798725     A.U. after   11 cycles

 The electronic state is 1-A.
 Alpha  occ. eigenvalues --  -10.19689 -10.18669 -10.18207  -0.79262  -0.67748
 Alpha  occ. eigenvalues --   -0.55986  -0.47509  -0.41591  -0.40624  -0.38138
 Alpha  occ. eigenvalues --   -0.35245  -0.25346
 Alpha virt. eigenvalues --   -0.00742   0.01666   0.03155   0.03299   0.06127
 Alpha virt. eigenvalues --    0.06508   0.07666   0.09505   0.09547   0.11564
 Alpha virt. eigenvalues --    0.12713   0.12973   0.16589   0.19872   0.20641

  Beta  occ. eigenvalues --  -10.19689 -10.18669 -10.18207  -0.79262  -0.67748
  Beta  occ. eigenvalues --   -0.55986  -0.47509  -0.41591  -0.40624  -0.38138
  Beta  occ. eigenvalues --   -0.35245  -0.25346
  Beta virt. eigenvalues --   -0.00742   0.01666   0.03155   0.03299   0.06127
  Beta virt. eigenvalues --    0.06508   0.07666   0.09505   0.09547   0.11564
  Beta virt. eigenvalues --    0.12713   0.12973   0.16589   0.19872   0.20641

 Mulliken charges and spin densities:
               1          2
     1  C   -0.857755  -0.000000
     2  C    0.173205   0.000000
     3  C   -0.488523  -0.000000
     4  H    0.218067  -0.000000
     5  H    0.217991   0.000000
     6  H    0.198862   0.000000
     7  H    0.183043  -0.000000
     8  H    0.171606   0.000000
     9  H    0.183503  -0.000000
 Sum of Mulliken charges =  -0.00000  -0.00000

 Dipole moment (field-independent basis, Debye):
    X=             -0.3494    Y=              0.0003    Z=              0.0743  Tot=              0.3572
 Quadrupole moment (field-independent basis, Debye-Ang):
   XX=            -20.0461   YY=            -18.9106   ZZ=            -22.5026
   XY=             -0.0972   XZ=              0.1633   YZ=             -0.0034

 Normal termination of Gaussian 16 at Thu Oct 12 15:12:43 2023.
