 Gaussian 16, Revision A.03,
 Gaussian 16:  ES64L-G16RevA.03 25-Dec-2016

 ------------------
 # ub3lyp/6-31+g(d)
 ------------------

 --------------------
 tmpdir/M2_ref_34.gjf
 --------------------
 Symbolic Z-matrix:
 Charge =  0 Multiplicity = 1

                         Standard orientation:
 ---------------------------------------------------------------------
 Center     Atomic      Atomic             Coordinates (Angstroms)
 Number     Number       Type             X           Y           Z
 ---------------------------------------------------------------------
      1          6           0       -0.236663    0.500171   -0.014854
      2          6           0        1.144692   -0.145272   -0.002493
      3          1           0        1.947070    0.595481   -0.028350
      4          1           0       -0.438939    1.483871    0.010865
      5          8           0       -1.155577   -0.327317    0.000448
      6          1           0        1.101875   -0.717067    0.944069
      7          1           0        1.186436   -0.873144   -0.826093
 ---------------------------------------------------------------------

 SCF Done:  E(UB3LYP) =  -153.822737753     A.U. after   11 cycles

 The electronic state is 1-A.
 Alpha  occ. eigenvalues --  -19.15967 -10.28534 -10.20477  -1.04656  -0.75220
 Alpha  occ. eigenvalues --   -0.61802  -0.48631  -0.45115  -0.43223  -0.41361
 Alpha  occ. eigenvalues --   -0.36005  -0.26505
 Alpha virt. eigenvalues --   -0.05139   0.01060   0.02624   0.04780   0.04937
 Alpha virt. eigenvalues --    0.07233   0.07768   0.09372   0.14112   0.16949
 Alpha virt. eigenvalues --    0.17227   0.20227   0.23440   0.25215   0.26039

  Beta  occ. eigenvalues --  -19.15967 -10.28534 -10.20477  -1.04656  -0.75220
  Beta  occ. eigenvalues --   -0.61802  -0.48631  -0.45115  -0.43223  -0.41361
  Beta  occ. eigenvalues --   -0.36005  -0.26505
  Beta virt. eigenvalues --   -0.05139   0.01060   0.02624   0.04780   0.04937
  Beta virt. eigenvalues --    0.07233   0.07768   0.09372   0.14112   0.16949
  Beta virt. eigenvalues --    0.17227   0.20227   0.23440   0.25215   0.26039

 Mulliken charges and spin densities:
               1          2
     1  C    0.229072  -0.000000
     2  C   -0.703463   0.000000
     3  H    0.196852  -0.000000
     4  H    0.177683  -0.000000
     5  O   -0.378079  -0.000000
     6  H    0.236979   0.000000
     7  H    0.240957   0.000000
 Sum of Mulliken charges =  -0.00000   0.00000

 Dipole moment (field-independent basis, Debye):
    X=              2.3593    Y=              1.5613    Z=              0.0171  Tot=              2.8292
 Quadrupole moment (field-independent basis, Debye-Ang):
   XX=            -21.8974   YY=            -17.6193   ZZ=            -17.9835
   XY=             -1.4852   XZ=             -0.0757   YZ=              0.0445

 Normal termination of Gaussian 16 at Thu Oct 12 15:12:20 2023.
