 Gaussian 16, Revision A.03,
 Gaussian 16:  ES64L-G16RevA.03 25-Dec-2016

 ------------------
 # ub3lyp/6-31+g(d)
 ------------------

 --------------------
 tmpdir/M2_ref_39.gjf
 --------------------
 Symbolic Z-matrix:
 Charge =  0 Multiplicity = 2

                         Standard orientation:
 ---------------------------------------------------------------------
 Center     Atomic      Atomic             Coordinates (Angstroms)
 Number     Number       Type             X           Y           Z
 ---------------------------------------------------------------------
      1          6           0        0.713745   -0.012748    0.004067
      2          6           0       -0.810732   -0.005457   -0.113086
      3          1           0        1.096889    0.919635   -0.431271
      4          1           0        1.179657   -0.905352   -0.418750
      5          1           0        0.823359    0.051750    1.102669
      6          1           0       -1.205950    0.955699    0.173094
      7          1           0       -1.312030   -0.912502    0.228366
 ---------------------------------------------------------------------

 SCF Done:  E(UB3LYP) =  -79.1540543511     A.U. after   12 cycles

 The electronic state is 2-A.
 Alpha  occ. eigenvalues --  -10.19966 -10.18889  -0.76006  -0.60704  -0.45980
 Alpha  occ. eigenvalues --   -0.42356  -0.37125  -0.36854  -0.21498
 Alpha virt. eigenvalues --    0.01846   0.03300   0.05014   0.05792   0.08147
 Alpha virt. eigenvalues --    0.08864   0.09745   0.14807   0.17213   0.19624
 Alpha virt. eigenvalues --    0.22916   0.23267   0.24868   0.30217   0.62025

  Beta  occ. eigenvalues --  -10.18923 -10.18575  -0.74419  -0.58483  -0.45361
  Beta  occ. eigenvalues --   -0.40915  -0.36384  -0.36227
  Beta virt. eigenvalues --   -0.05942   0.02017   0.03484   0.05030   0.06227
  Beta virt. eigenvalues --    0.08128   0.08857   0.11110   0.15128   0.17828
  Beta virt. eigenvalues --    0.19738   0.24040   0.24396   0.25854   0.30771

 Mulliken charges and spin densities:
               1          2
     1  C   -0.699100  -0.088529
     2  C   -0.277332   1.104911
     3  H    0.205499   0.008564
     4  H    0.206212   0.008160
     5  H    0.206461   0.050505
     6  H    0.178348  -0.042672
     7  H    0.179911  -0.040938
 Sum of Mulliken charges =   0.00000   1.00000

 Dipole moment (field-independent basis, Debye):
    X=              0.3754    Y=              0.0398    Z=              0.6239  Tot=              0.7292
 Quadrupole moment (field-independent basis, Debye-Ang):
   XX=            -15.5103   YY=            -13.6430   ZZ=            -15.5009
   XY=             -0.0049   XZ=             -0.9547   YZ=              0.0228

 Normal termination of Gaussian 16 at Thu Oct 12 15:11:52 2023.
