 Gaussian 16, Revision A.03,
 Gaussian 16:  ES64L-G16RevA.03 25-Dec-2016

 ------------------
 # ub3lyp/6-31+g(d)
 ------------------

 -------------------
 tmpdir/M2_ref_3.gjf
 -------------------
 Symbolic Z-matrix:
 Charge =  0 Multiplicity = 1

                         Standard orientation:
 ---------------------------------------------------------------------
 Center     Atomic      Atomic             Coordinates (Angstroms)
 Number     Number       Type             X           Y           Z
 ---------------------------------------------------------------------
      1          6           0       -1.422586   -0.472750   -0.000611
      2          6           0       -0.583831    0.643189    0.000151
      3          6           0        0.798216    0.482055    0.000752
      4          1           0       -1.019076   -1.392695    0.010523
      5          1           0       -2.502671   -0.349187   -0.005291
      6          1           0       -1.013168    1.640832    0.000835
      7          8           0        1.292334   -0.646007   -0.001096
      8          1           0        1.445453    1.354137    0.000949
 ---------------------------------------------------------------------

 SCF Done:  E(UB3LYP) =  -191.905435994     A.U. after   12 cycles

 The electronic state is 1-A.
 Alpha  occ. eigenvalues --  -19.15265 -10.27721 -10.22798 -10.21784  -1.04526
 Alpha  occ. eigenvalues --   -0.80512  -0.68541  -0.56113  -0.52941  -0.45814
 Alpha  occ. eigenvalues --   -0.43197  -0.40710  -0.40160  -0.28743  -0.26763
 Alpha virt. eigenvalues --   -0.09784   0.00584   0.02237   0.03909   0.04177
 Alpha virt. eigenvalues --    0.06098   0.06220   0.07106   0.09413   0.09513
 Alpha virt. eigenvalues --    0.11698   0.12123   0.14035   0.16153   0.19233

  Beta  occ. eigenvalues --  -19.15265 -10.27721 -10.22798 -10.21784  -1.04526
  Beta  occ. eigenvalues --   -0.80512  -0.68541  -0.56113  -0.52941  -0.45814
  Beta  occ. eigenvalues --   -0.43197  -0.40710  -0.40160  -0.28743  -0.26763
  Beta virt. eigenvalues --   -0.09784   0.00584   0.02237   0.03909   0.04177
  Beta virt. eigenvalues --    0.06098   0.06220   0.07106   0.09413   0.09513
  Beta virt. eigenvalues --    0.11698   0.12123   0.14035   0.16153   0.19233

 Mulliken charges and spin densities:
               1          2
     1  C   -0.445997   0.000000
     2  C    0.090212   0.000000
     3  C   -0.006017  -0.000000
     4  H    0.234419   0.000000
     5  H    0.201470  -0.000000
     6  H    0.187959   0.000000
     7  O   -0.425952  -0.000000
     8  H    0.163905   0.000000
 Sum of Mulliken charges =  -0.00000   0.00000

 Dipole moment (field-independent basis, Debye):
    X=             -2.3739    Y=              1.8493    Z=              0.0079  Tot=              3.0092
 Quadrupole moment (field-independent basis, Debye-Ang):
   XX=            -24.1789   YY=            -22.6898   ZZ=            -25.2150
   XY=              3.4919   XZ=              0.0075   YZ=             -0.0121

 Normal termination of Gaussian 16 at Thu Oct 12 15:11:20 2023.
