 Gaussian 16, Revision A.03,
 Gaussian 16:  ES64L-G16RevA.03 25-Dec-2016

 ------------------
 # ub3lyp/6-31+g(d)
 ------------------

 --------------------
 tmpdir/M2_ref_35.gjf
 --------------------
 Symbolic Z-matrix:
 Charge =  0 Multiplicity = 1

                         Standard orientation:
 ---------------------------------------------------------------------
 Center     Atomic      Atomic             Coordinates (Angstroms)
 Number     Number       Type             X           Y           Z
 ---------------------------------------------------------------------
      1          6           0       -1.225208    0.313922   -0.234113
      2          6           0        0.018491    1.038934    0.268343
      3          6           0        1.236364    0.262478   -0.203611
      4          1           0       -2.000338    0.723109   -0.725013
      5          8           0       -1.243262   -0.883318    0.075181
      6          1           0       -0.072598    0.882182    1.360082
      7          1           0        0.028165    2.092069   -0.021495
      8          8           0        1.220265   -0.884693    0.065608
      9          1           0        2.050867    0.754728   -0.723602
 ---------------------------------------------------------------------

 SCF Done:  E(UB3LYP) =  -267.120619387     A.U. after   13 cycles

 The electronic state is 1-A.
 Alpha  occ. eigenvalues --  -19.16751 -19.16333 -10.29432 -10.29097 -10.22179
 Alpha  occ. eigenvalues --   -1.08941  -1.04849  -0.78588  -0.64613  -0.60197
 Alpha  occ. eigenvalues --   -0.51251  -0.48519  -0.48088  -0.44478  -0.42423
 Alpha  occ. eigenvalues --   -0.38863  -0.37171  -0.29163  -0.25034
 Alpha virt. eigenvalues --   -0.06924  -0.03733   0.00397   0.02396   0.02738
 Alpha virt. eigenvalues --    0.04340   0.06554   0.06945   0.07704   0.08146
 Alpha virt. eigenvalues --    0.09190   0.11776   0.13104   0.15350   0.17715

  Beta  occ. eigenvalues --  -19.16751 -19.16333 -10.29432 -10.29097 -10.22179
  Beta  occ. eigenvalues --   -1.08941  -1.04849  -0.78588  -0.64613  -0.60197
  Beta  occ. eigenvalues --   -0.51251  -0.48519  -0.48088  -0.44478  -0.42423
  Beta  occ. eigenvalues --   -0.38863  -0.37171  -0.29163  -0.25034
  Beta virt. eigenvalues --   -0.06924  -0.03733   0.00397   0.02396   0.02738
  Beta virt. eigenvalues --    0.04340   0.06554   0.06945   0.07704   0.08146
  Beta virt. eigenvalues --    0.09190   0.11776   0.13104   0.15350   0.17715

 Mulliken charges and spin densities:
               1          2
     1  C    0.122960   0.000000
     2  C   -0.481678  -0.000000
     3  C    0.130449   0.000000
     4  H    0.183062  -0.000000
     5  O   -0.313365  -0.000000
     6  H    0.266144   0.000000
     7  H    0.193843   0.000000
     8  O   -0.271637  -0.000000
     9  H    0.170221  -0.000000
 Sum of Mulliken charges =  -0.00000  -0.00000

 Dipole moment (field-independent basis, Debye):
    X=              0.0718    Y=              4.6121    Z=             -0.7592  Tot=              4.6747
 Quadrupole moment (field-independent basis, Debye-Ang):
   XX=            -28.6130   YY=            -31.9044   ZZ=            -27.2332
   XY=             -0.4728   XZ=              0.1258   YZ=             -0.0022

 Normal termination of Gaussian 16 at Thu Oct 12 15:12:51 2023.
