 Gaussian 16, Revision A.03,
 Gaussian 16:  ES64L-G16RevA.03 25-Dec-2016

 ------------------
 # ub3lyp/6-31+g(d)
 ------------------

 --------------------
 tmpdir/M2_ref_13.gjf
 --------------------
 Symbolic Z-matrix:
 Charge =  0 Multiplicity = 1

                         Standard orientation:
 ---------------------------------------------------------------------
 Center     Atomic      Atomic             Coordinates (Angstroms)
 Number     Number       Type             X           Y           Z
 ---------------------------------------------------------------------
      1          6           0       -0.800313    0.493089    0.002339
      2          6           0        0.580097    0.635557   -0.010580
      3          6           0        1.409496   -0.495669   -0.000327
      4          8           0       -1.290971   -0.635616    0.000555
      5          1           0       -1.440887    1.371453    0.006083
      6          1           0        1.144723    1.583372    0.022755
      7          1           0        1.008012   -1.414889    0.003884
      8          1           0        2.480240   -0.252870    0.014252
 ---------------------------------------------------------------------

 SCF Done:  E(UB3LYP) =  -191.900092337     A.U. after   12 cycles

 The electronic state is 1-A.
 Alpha  occ. eigenvalues --  -19.15358 -10.27879 -10.22819 -10.21801  -1.04705
 Alpha  occ. eigenvalues --   -0.80404  -0.68291  -0.55974  -0.53402  -0.45686
 Alpha  occ. eigenvalues --   -0.42529  -0.40827  -0.39982  -0.28625  -0.26905
 Alpha virt. eigenvalues --   -0.09822   0.00437   0.02412   0.03733   0.04178
 Alpha virt. eigenvalues --    0.06161   0.06213   0.06967   0.09200   0.09521
 Alpha virt. eigenvalues --    0.11794   0.12112   0.13827   0.16139   0.19126

  Beta  occ. eigenvalues --  -19.15358 -10.27879 -10.22819 -10.21801  -1.04705
  Beta  occ. eigenvalues --   -0.80404  -0.68291  -0.55974  -0.53402  -0.45686
  Beta  occ. eigenvalues --   -0.42529  -0.40827  -0.39982  -0.28625  -0.26905
  Beta virt. eigenvalues --   -0.09822   0.00437   0.02412   0.03733   0.04178
  Beta virt. eigenvalues --    0.06161   0.06213   0.06967   0.09200   0.09521
  Beta virt. eigenvalues --    0.11794   0.12112   0.13827   0.16139   0.19126

 Mulliken charges and spin densities:
               1          2
     1  C   -0.010918   0.000000
     2  C    0.076256  -0.000000
     3  C   -0.424125   0.000000
     4  O   -0.424969  -0.000000
     5  H    0.164128   0.000000
     6  H    0.190426   0.000000
     7  H    0.233009   0.000000
     8  H    0.196192  -0.000000
 Sum of Mulliken charges =  -0.00000  -0.00000

 Dipole moment (field-independent basis, Debye):
    X=              2.3594    Y=              1.8478    Z=              0.0437  Tot=              2.9972
 Quadrupole moment (field-independent basis, Debye-Ang):
   XX=            -24.1918   YY=            -22.7881   ZZ=            -25.2712
   XY=             -3.1212   XZ=              0.0757   YZ=              0.0381

 Normal termination of Gaussian 16 at Thu Oct 12 15:11:31 2023.
