 Gaussian 16, Revision A.03,
 Gaussian 16:  ES64L-G16RevA.03 25-Dec-2016

 ------------------
 # ub3lyp/6-31+g(d)
 ------------------

 -------------------
 tmpdir/M2_ref_2.gjf
 -------------------
 Symbolic Z-matrix:
 Charge =  0 Multiplicity = 1

                         Standard orientation:
 ---------------------------------------------------------------------
 Center     Atomic      Atomic             Coordinates (Angstroms)
 Number     Number       Type             X           Y           Z
 ---------------------------------------------------------------------
      1          6           0        0.549747   -0.014049   -0.000074
      2          1           0        1.105490    0.919103    0.000150
      3          8           0       -0.680809    0.007212    0.000017
      4          1           0        1.042497   -0.892509    0.000163
 ---------------------------------------------------------------------

 SCF Done:  E(UB3LYP) =  -114.501033071     A.U. after    9 cycles

 The electronic state is 1-A.
 Alpha  occ. eigenvalues --  -19.18217 -10.28980  -1.06014  -0.66507  -0.52038
 Alpha  occ. eigenvalues --   -0.45577  -0.40226  -0.28158
 Alpha virt. eigenvalues --   -0.06768   0.01192   0.04038   0.04496   0.06675
 Alpha virt. eigenvalues --    0.17120   0.19805   0.21942   0.22512   0.26561
 Alpha virt. eigenvalues --    0.26583   0.35411   0.62506   0.65367   0.73044

  Beta  occ. eigenvalues --  -19.18217 -10.28980  -1.06014  -0.66507  -0.52038
  Beta  occ. eigenvalues --   -0.45577  -0.40226  -0.28158
  Beta virt. eigenvalues --   -0.06768   0.01192   0.04038   0.04496   0.06675
  Beta virt. eigenvalues --    0.17120   0.19805   0.21942   0.22512   0.26561
  Beta virt. eigenvalues --    0.26583   0.35411   0.62506   0.65367   0.73044

 Mulliken charges and spin densities:
               1          2
     1  C   -0.004076  -0.000000
     2  H    0.162405  -0.000000
     3  O   -0.333308   0.000000
     4  H    0.174979  -0.000000
 Sum of Mulliken charges =  -0.00000  -0.00000

 Dipole moment (field-independent basis, Debye):
    X=              2.6727    Y=             -0.1003    Z=              0.0001  Tot=              2.6746
 Quadrupole moment (field-independent basis, Debye-Ang):
   XX=            -12.3258   YY=            -11.5975   ZZ=            -11.7316
   XY=             -0.0616   XZ=              0.0001   YZ=              0.0000

 Normal termination of Gaussian 16 at Thu Oct 12 15:11:27 2023.
