 Gaussian 16, Revision A.03,
 Gaussian 16:  ES64L-G16RevA.03 25-Dec-2016

 ------------------
 # ub3lyp/6-31+g(d)
 ------------------

 --------------------
 tmpdir/M2_ref_18.gjf
 --------------------
 Symbolic Z-matrix:
 Charge =  0 Multiplicity = 1

                         Standard orientation:
 ---------------------------------------------------------------------
 Center     Atomic      Atomic             Coordinates (Angstroms)
 Number     Number       Type             X           Y           Z
 ---------------------------------------------------------------------
      1          6           0       -1.406668   -0.497688   -0.006215
      2          6           0       -0.580796    0.636158   -0.003494
      3          6           0        0.797523    0.493463    0.000352
      4          1           0       -1.004873   -1.418353    0.007140
      5          1           0       -2.481137   -0.247450    0.027934
      6          1           0       -1.137326    1.582633    0.007253
      7          8           0        1.290633   -0.635041    0.001224
      8          1           0        1.437919    1.371892    0.004019
 ---------------------------------------------------------------------

 SCF Done:  E(UB3LYP) =  -191.900018723     A.U. after   12 cycles

 The electronic state is 1-A.
 Alpha  occ. eigenvalues --  -19.15324 -10.27828 -10.22905 -10.21746  -1.04639
 Alpha  occ. eigenvalues --   -0.80450  -0.68289  -0.55971  -0.53410  -0.45722
 Alpha  occ. eigenvalues --   -0.42379  -0.40798  -0.40084  -0.28626  -0.26878
 Alpha virt. eigenvalues --   -0.09843   0.00424   0.02409   0.03745   0.04199
 Alpha virt. eigenvalues --    0.06188   0.06195   0.06955   0.09200   0.09522
 Alpha virt. eigenvalues --    0.11782   0.12115   0.13788   0.16151   0.19149

  Beta  occ. eigenvalues --  -19.15324 -10.27828 -10.22905 -10.21746  -1.04639
  Beta  occ. eigenvalues --   -0.80450  -0.68289  -0.55971  -0.53410  -0.45722
  Beta  occ. eigenvalues --   -0.42379  -0.40798  -0.40084  -0.28626  -0.26878
  Beta virt. eigenvalues --   -0.09843   0.00424   0.02409   0.03745   0.04199
  Beta virt. eigenvalues --    0.06188   0.06195   0.06955   0.09200   0.09522
  Beta virt. eigenvalues --    0.11782   0.12115   0.13788   0.16151   0.19149

 Mulliken charges and spin densities:
               1          2
     1  C   -0.421676   0.000000
     2  C    0.075629  -0.000000
     3  C   -0.011361   0.000000
     4  H    0.233465  -0.000000
     5  H    0.195621  -0.000000
     6  H    0.190886  -0.000000
     7  O   -0.426402   0.000000
     8  H    0.163838  -0.000000
 Sum of Mulliken charges =  -0.00000   0.00000

 Dipole moment (field-independent basis, Debye):
    X=             -2.3699    Y=              1.8537    Z=              0.0379  Tot=              3.0090
 Quadrupole moment (field-independent basis, Debye-Ang):
   XX=            -24.2476   YY=            -22.7544   ZZ=            -25.2689
   XY=              3.0985   XZ=             -0.0884   YZ=              0.0030

 Normal termination of Gaussian 16 at Thu Oct 12 15:11:20 2023.
