 Gaussian 16, Revision A.03,
 Gaussian 16:  ES64L-G16RevA.03 25-Dec-2016

 ------------------
 # ub3lyp/6-31+g(d)
 ------------------

 --------------------
 tmpdir/M2_ref_54.gjf
 --------------------
 Symbolic Z-matrix:
 Charge =  0 Multiplicity = 3

                         Standard orientation:
 ---------------------------------------------------------------------
 Center     Atomic      Atomic             Coordinates (Angstroms)
 Number     Number       Type             X           Y           Z
 ---------------------------------------------------------------------
      1          6           0       -1.179980   -0.242139   -0.040206
      2          6           0        0.072574    0.633570   -0.079253
      3          6           0        1.300680   -0.193872    0.077101
      4          1           0       -1.184944   -0.555108    1.018234
      5          1           0       -2.092642    0.289913   -0.317988
      6          1           0       -0.980224   -1.131389   -0.655989
      7          1           0        0.000889    1.592340    0.435203
      8          1           0        1.046752   -1.188782    0.490274
      9          1           0        2.050524   -0.192325   -0.715586
 ---------------------------------------------------------------------

 SCF Done:  E(UB3LYP) =  -117.791266678     A.U. after   13 cycles

 The electronic state is 3-A.
 Alpha  occ. eigenvalues --  -10.20816 -10.20686 -10.19520  -0.79618  -0.68387
 Alpha  occ. eigenvalues --   -0.57683  -0.46308  -0.44007  -0.40808  -0.38184
 Alpha  occ. eigenvalues --   -0.37226  -0.25921  -0.17844
 Alpha virt. eigenvalues --    0.01610   0.03159   0.03588   0.05043   0.06623
 Alpha virt. eigenvalues --    0.07906   0.08499   0.09280   0.09636   0.11860
 Alpha virt. eigenvalues --    0.13340   0.15661   0.17991   0.21251   0.22683

  Beta  occ. eigenvalues --  -10.19481 -10.19468 -10.19336  -0.76931  -0.65966
  Beta  occ. eigenvalues --   -0.54877  -0.45042  -0.42115  -0.39598  -0.36659
  Beta  occ. eigenvalues --   -0.35986
  Beta virt. eigenvalues --   -0.10402  -0.02777   0.01871   0.03403   0.03915
  Beta virt. eigenvalues --    0.05354   0.06926   0.07921   0.08902   0.09835
  Beta virt. eigenvalues --    0.11091   0.12274   0.14103   0.16079   0.18649

 Mulliken charges and spin densities:
               1          2
     1  C   -0.811299  -0.029270
     2  C    0.043417   0.963978
     3  C   -0.428911   1.035141
     4  H    0.215631   0.053793
     5  H    0.208636   0.010829
     6  H    0.210118   0.008341
     7  H    0.184878  -0.015082
     8  H    0.181565  -0.009750
     9  H    0.195965  -0.017980
 Sum of Mulliken charges =  -0.00000   2.00000

 Dipole moment (field-independent basis, Debye):
    X=             -0.5811    Y=             -0.4322    Z=              0.0969  Tot=              0.7306
 Quadrupole moment (field-independent basis, Debye-Ang):
   XX=            -21.4459   YY=            -20.6136   ZZ=            -21.6711
   XY=             -0.6125   XZ=             -1.1490   YZ=              0.5813

 Normal termination of Gaussian 16 at Thu Oct 12 15:12:24 2023.
