 Gaussian 16, Revision A.03,
 Gaussian 16:  ES64L-G16RevA.03 25-Dec-2016

 ------------------
 # ub3lyp/6-31+g(d)
 ------------------

 --------------------
 tmpdir/M2_ref_42.gjf
 --------------------
 Symbolic Z-matrix:
 Charge =  0 Multiplicity = 2

                         Standard orientation:
 ---------------------------------------------------------------------
 Center     Atomic      Atomic             Coordinates (Angstroms)
 Number     Number       Type             X           Y           Z
 ---------------------------------------------------------------------
      1          6           0       -0.839846    0.456451   -0.239658
      2          6           0        0.589960    0.665170    0.221768
      3          6           0        1.423063   -0.529421   -0.243744
      4          8           0       -1.334600   -0.606153    0.154631
      5          1           0       -1.375360    1.078229   -0.816537
      6          1           0        1.001438    1.629610   -0.083407
      7          1           0        0.622994    0.508986    1.316124
      8          1           0        0.897625   -1.451515   -0.055131
      9          1           0        2.491044   -0.469283   -0.028292
 ---------------------------------------------------------------------

 SCF Done:  E(UB3LYP) =  -192.460104104     A.U. after   15 cycles

 The electronic state is 2-A.
 Alpha  occ. eigenvalues --  -19.16404 -10.28704 -10.21515 -10.21349  -1.05149
 Alpha  occ. eigenvalues --   -0.79355  -0.66832  -0.59635  -0.50889  -0.46182
 Alpha  occ. eigenvalues --   -0.44171  -0.42214  -0.38726  -0.36331  -0.27303
 Alpha  occ. eigenvalues --   -0.22939
 Alpha virt. eigenvalues --   -0.05756   0.01012   0.02513   0.03534   0.04407
 Alpha virt. eigenvalues --    0.06927   0.07460   0.08254   0.09081   0.09161
 Alpha virt. eigenvalues --    0.11580   0.12785   0.16096   0.19251   0.21046

  Beta  occ. eigenvalues --  -19.16412 -10.28678 -10.21544 -10.19953  -1.05150
  Beta  occ. eigenvalues --   -0.78208  -0.65373  -0.58369  -0.50636  -0.45426
  Beta  occ. eigenvalues --   -0.43632  -0.41665  -0.38118  -0.35831  -0.27074
  Beta virt. eigenvalues --   -0.07497  -0.05558   0.01108   0.02616   0.03709
  Beta virt. eigenvalues --    0.04459   0.06977   0.07693   0.08319   0.09240
  Beta virt. eigenvalues --    0.10420   0.11720   0.12868   0.16395   0.19467

 Mulliken charges and spin densities:
               1          2
     1  C    0.194007   0.008394
     2  C   -0.490547  -0.072389
     3  C   -0.351422   1.094638
     4  O   -0.386303  -0.005402
     5  H    0.179512   0.001608
     6  H    0.198966   0.007132
     7  H    0.246469   0.048992
     8  H    0.221809  -0.041756
     9  H    0.187509  -0.041217
 Sum of Mulliken charges =  -0.00000   1.00000

 Dipole moment (field-independent basis, Debye):
    X=              1.3814    Y=              2.2935    Z=             -0.0387  Tot=              2.6777
 Quadrupole moment (field-independent basis, Debye-Ang):
   XX=            -26.7237   YY=            -24.5696   ZZ=            -25.0916
   XY=             -2.7258   XZ=              2.2411   YZ=             -0.5724

 Normal termination of Gaussian 16 at Thu Oct 12 15:12:18 2023.
