 Gaussian 16, Revision A.03,
 Gaussian 16:  ES64L-G16RevA.03 25-Dec-2016

 ------------------
 # ub3lyp/6-31+g(d)
 ------------------

 --------------------
 tmpdir/M2_ref_19.gjf
 --------------------
 Symbolic Z-matrix:
 Charge =  0 Multiplicity = 1

                         Standard orientation:
 ---------------------------------------------------------------------
 Center     Atomic      Atomic             Coordinates (Angstroms)
 Number     Number       Type             X           Y           Z
 ---------------------------------------------------------------------
      1          6           0        1.244074   -0.268041   -0.007482
      2          6           0        0.126639    0.579875   -0.000016
      3          6           0       -1.195729   -0.163202    0.000145
      4          1           0        2.172370    0.115395    0.014577
      5          1           0        0.972664   -1.337707    0.012994
      6          1           0        0.249463    1.575297    0.014901
      7          1           0       -1.211244   -0.843669    0.872933
      8          1           0       -2.060256    0.502140   -0.049901
      9          1           0       -1.172902   -0.903252   -0.821382
 ---------------------------------------------------------------------

 SCF Done:  E(UB3LYP) =  -117.885210479     A.U. after   11 cycles

 The electronic state is 1-A.
 Alpha  occ. eigenvalues --  -10.19610 -10.18838 -10.18061  -0.78710  -0.67846
 Alpha  occ. eigenvalues --   -0.57517  -0.48219  -0.41672  -0.40411  -0.37889
 Alpha  occ. eigenvalues --   -0.36419  -0.24384
 Alpha virt. eigenvalues --   -0.01738   0.01619   0.03176   0.03539   0.06162
 Alpha virt. eigenvalues --    0.06545   0.07679   0.09584   0.09675   0.11634
 Alpha virt. eigenvalues --    0.12599   0.12861   0.16557   0.19632   0.21329

  Beta  occ. eigenvalues --  -10.19610 -10.18838 -10.18061  -0.78710  -0.67846
  Beta  occ. eigenvalues --   -0.57517  -0.48219  -0.41672  -0.40411  -0.37889
  Beta  occ. eigenvalues --   -0.36419  -0.24384
  Beta virt. eigenvalues --   -0.01738   0.01619   0.03176   0.03539   0.06162
  Beta virt. eigenvalues --    0.06545   0.07679   0.09584   0.09675   0.11634
  Beta virt. eigenvalues --    0.12599   0.12861   0.16557   0.19632   0.21329

 Mulliken charges and spin densities:
               1          2
     1  C   -0.478550   0.000000
     2  C    0.140903   0.000000
     3  C   -0.838711  -0.000000
     4  H    0.182748  -0.000000
     5  H    0.174201  -0.000000
     6  H    0.180687   0.000000
     7  H    0.220224   0.000000
     8  H    0.199161  -0.000000
     9  H    0.219336   0.000000
 Sum of Mulliken charges =  -0.00000  -0.00000

 Dipole moment (field-independent basis, Debye):
    X=             -0.3748    Y=              0.0274    Z=              0.0542  Tot=              0.3797
 Quadrupole moment (field-independent basis, Debye-Ang):
   XX=            -20.0625   YY=            -18.7345   ZZ=            -22.6226
   XY=              0.1251   XZ=              0.0911   YZ=             -0.0224

 Normal termination of Gaussian 16 at Thu Oct 12 15:11:36 2023.
