 Gaussian 16, Revision A.03,
 Gaussian 16:  ES64L-G16RevA.03 25-Dec-2016

 ------------------
 # ub3lyp/6-31+g(d)
 ------------------

 --------------------
 tmpdir/M2_ref_44.gjf
 --------------------
 Symbolic Z-matrix:
 Charge =  0 Multiplicity = 1

                         Standard orientation:
 ---------------------------------------------------------------------
 Center     Atomic      Atomic             Coordinates (Angstroms)
 Number     Number       Type             X           Y           Z
 ---------------------------------------------------------------------
      1          6           0        1.235897    0.318721   -0.210654
      2          6           0       -0.009974    1.042212    0.263886
      3          6           0       -1.227138    0.256615   -0.221361
      4          8           0        1.242522   -0.885967    0.068731
      5          1           0        2.012420    0.727660   -0.696406
      6          1           0       -0.104658    0.890205    1.356115
      7          1           0       -0.034409    2.092491   -0.034289
      8          8           0       -1.219846   -0.885120    0.070405
      9          1           0       -2.047477    0.753055   -0.729729
 ---------------------------------------------------------------------

 SCF Done:  E(UB3LYP) =  -267.120648588     A.U. after   13 cycles

 The electronic state is 1-A.
 Alpha  occ. eigenvalues --  -19.16864 -19.16228 -10.29546 -10.28975 -10.22199
 Alpha  occ. eigenvalues --   -1.09027  -1.04748  -0.78620  -0.64700  -0.60065
 Alpha  occ. eigenvalues --   -0.51237  -0.48970  -0.47673  -0.44592  -0.42340
 Alpha  occ. eigenvalues --   -0.38979  -0.37128  -0.29168  -0.24997
 Alpha virt. eigenvalues --   -0.06883  -0.03743   0.00389   0.02419   0.02709
 Alpha virt. eigenvalues --    0.04332   0.06555   0.06929   0.07704   0.08173
 Alpha virt. eigenvalues --    0.09174   0.11772   0.13121   0.15364   0.17671

  Beta  occ. eigenvalues --  -19.16864 -19.16228 -10.29546 -10.28975 -10.22199
  Beta  occ. eigenvalues --   -1.09027  -1.04748  -0.78620  -0.64700  -0.60065
  Beta  occ. eigenvalues --   -0.51237  -0.48970  -0.47673  -0.44592  -0.42340
  Beta  occ. eigenvalues --   -0.38979  -0.37128  -0.29168  -0.24997
  Beta virt. eigenvalues --   -0.06883  -0.03743   0.00389   0.02419   0.02709
  Beta virt. eigenvalues --    0.04332   0.06555   0.06929   0.07704   0.08173
  Beta virt. eigenvalues --    0.09174   0.11772   0.13121   0.15364   0.17671

 Mulliken charges and spin densities:
               1          2
     1  C    0.132770   0.000000
     2  C   -0.475650   0.000000
     3  C    0.114513  -0.000000
     4  O   -0.318449   0.000000
     5  H    0.182090   0.000000
     6  H    0.265368  -0.000000
     7  H    0.194194   0.000000
     8  O   -0.265605   0.000000
     9  H    0.170769  -0.000000
 Sum of Mulliken charges =  -0.00000   0.00000

 Dipole moment (field-independent basis, Debye):
    X=             -0.1930    Y=              4.6178    Z=             -0.7445  Tot=              4.6814
 Quadrupole moment (field-independent basis, Debye-Ang):
   XX=            -28.5988   YY=            -31.8997   ZZ=            -27.2539
   XY=              0.3741   XZ=             -0.2871   YZ=             -0.0015

 Normal termination of Gaussian 16 at Thu Oct 12 15:12:59 2023.
