 Gaussian 16, Revision A.03,
 Gaussian 16:  ES64L-G16RevA.03 25-Dec-2016

 ------------------
 # ub3lyp/6-31+g(d)
 ------------------

 --------------------
 tmpdir/M2_ref_59.gjf
 --------------------
 Symbolic Z-matrix:
 Charge =  0 Multiplicity = 1

                         Standard orientation:
 ---------------------------------------------------------------------
 Center     Atomic      Atomic             Coordinates (Angstroms)
 Number     Number       Type             X           Y           Z
 ---------------------------------------------------------------------
      1          6           0        1.198236   -0.176281   -0.000370
      2          6           0       -0.144985    0.551367   -0.020396
      3          6           0       -1.211801   -0.253859   -0.004439
      4          1           0        1.201390   -0.907089   -0.819861
      5          1           0        1.105553   -0.726953    0.955249
      6          1           0        2.051765    0.504270   -0.030867
      7          1           0       -0.195375    1.634721    0.020267
      8          1           0       -0.973803   -1.327683    0.006348
      9          1           0       -2.238227    0.095376    0.020101
 ---------------------------------------------------------------------

 SCF Done:  E(UB3LYP) =  -117.900249649     A.U. after   11 cycles

 The electronic state is 1-A.
 Alpha  occ. eigenvalues --  -10.19650 -10.18678 -10.18053  -0.79301  -0.67700
 Alpha  occ. eigenvalues --   -0.55763  -0.47486  -0.41959  -0.41009  -0.38057
 Alpha  occ. eigenvalues --   -0.34805  -0.25330
 Alpha virt. eigenvalues --   -0.00589   0.01728   0.03260   0.03317   0.05954
 Alpha virt. eigenvalues --    0.06541   0.07715   0.09213   0.09500   0.11623
 Alpha virt. eigenvalues --    0.12658   0.12998   0.16485   0.20055   0.20833

  Beta  occ. eigenvalues --  -10.19650 -10.18678 -10.18053  -0.79301  -0.67700
  Beta  occ. eigenvalues --   -0.55763  -0.47486  -0.41959  -0.41009  -0.38057
  Beta  occ. eigenvalues --   -0.34805  -0.25330
  Beta virt. eigenvalues --   -0.00589   0.01728   0.03260   0.03317   0.05954
  Beta virt. eigenvalues --    0.06541   0.07715   0.09213   0.09500   0.11623
  Beta virt. eigenvalues --    0.12658   0.12998   0.16485   0.20055   0.20833

 Mulliken charges and spin densities:
               1          2
     1  C   -0.843101  -0.000000
     2  C    0.144421  -0.000000
     3  C   -0.474499   0.000000
     4  H    0.217822   0.000000
     5  H    0.218008  -0.000000
     6  H    0.198831   0.000000
     7  H    0.182285   0.000000
     8  H    0.172379  -0.000000
     9  H    0.183854   0.000000
 Sum of Mulliken charges =  -0.00000   0.00000

 Dipole moment (field-independent basis, Debye):
    X=              0.3586    Y=              0.0496    Z=              0.0930  Tot=              0.3738
 Quadrupole moment (field-independent basis, Debye-Ang):
   XX=            -20.1838   YY=            -19.1281   ZZ=            -22.2679
   XY=              0.2691   XZ=             -0.2158   YZ=              0.1099

 Normal termination of Gaussian 16 at Thu Oct 12 15:12:32 2023.
