 Gaussian 16, Revision A.03,
 Gaussian 16:  ES64L-G16RevA.03 25-Dec-2016

 ------------------
 # ub3lyp/6-31+g(d)
 ------------------

 --------------------
 tmpdir/M2_ref_33.gjf
 --------------------
 Symbolic Z-matrix:
 Charge =  0 Multiplicity = 2

                         Standard orientation:
 ---------------------------------------------------------------------
 Center     Atomic      Atomic             Coordinates (Angstroms)
 Number     Number       Type             X           Y           Z
 ---------------------------------------------------------------------
      1          6           0       -0.753586    0.452118    0.295440
      2          6           0        0.638685    0.695742   -0.276502
      3          6           0        1.348727   -0.597517    0.124254
      4          1           0       -1.209882    0.989056    1.011495
      5          8           0       -1.297795   -0.554744   -0.173002
      6          1           0        1.103445    1.594047    0.136101
      7          1           0        0.558510    0.701867   -1.373494
      8          1           0        0.964408   -1.434226   -0.436222
      9          1           0        1.562922   -0.714851    1.186985
 ---------------------------------------------------------------------

 SCF Done:  E(UB3LYP) =  -192.458683585     A.U. after   16 cycles

 The electronic state is 2-A.
 Alpha  occ. eigenvalues --  -19.16299 -10.28858 -10.21611 -10.21358  -1.05320
 Alpha  occ. eigenvalues --   -0.79468  -0.66410  -0.60121  -0.50221  -0.47189
 Alpha  occ. eigenvalues --   -0.43943  -0.42164  -0.38466  -0.36531  -0.27443
 Alpha  occ. eigenvalues --   -0.22972
 Alpha virt. eigenvalues --   -0.05487   0.01174   0.02975   0.03190   0.04381
 Alpha virt. eigenvalues --    0.07194   0.07470   0.08090   0.08552   0.08639
 Alpha virt. eigenvalues --    0.11858   0.13228   0.15323   0.19633   0.20543

  Beta  occ. eigenvalues --  -19.16134 -10.28781 -10.21409 -10.20227  -1.05008
  Beta  occ. eigenvalues --   -0.78272  -0.64763  -0.59096  -0.49714  -0.46533
  Beta  occ. eigenvalues --   -0.43449  -0.41432  -0.37895  -0.35749  -0.26880
  Beta virt. eigenvalues --   -0.08425  -0.04432   0.01232   0.03050   0.03610
  Beta virt. eigenvalues --    0.04560   0.07248   0.07909   0.08096   0.08581
  Beta virt. eigenvalues --    0.09357   0.12098   0.13429   0.15643   0.19906

 Mulliken charges and spin densities:
               1          2
     1  C    0.197415   0.014764
     2  C   -0.500003  -0.110272
     3  C   -0.358183   1.096780
     4  H    0.178763   0.005568
     5  O   -0.373139   0.054699
     6  H    0.200444   0.010143
     7  H    0.238320   0.009953
     8  H    0.224561  -0.041162
     9  H    0.191823  -0.040472
 Sum of Mulliken charges =  -0.00000   1.00000

 Dipole moment (field-independent basis, Debye):
    X=              1.0258    Y=              2.0690    Z=              0.9767  Tot=              2.5074
 Quadrupole moment (field-independent basis, Debye-Ang):
   XX=            -29.5532   YY=            -24.3962   ZZ=            -23.2066
   XY=             -2.3925   XZ=             -0.6077   YZ=              0.2945

 Normal termination of Gaussian 16 at Thu Oct 12 15:12:09 2023.
