 Gaussian 16, Revision A.03,
 Gaussian 16:  ES64L-G16RevA.03 25-Dec-2016

 ------------------
 # ub3lyp/6-31+g(d)
 ------------------

 -------------------
 tmpdir/M2_ref_4.gjf
 -------------------
 Symbolic Z-matrix:
 Charge =  0 Multiplicity = 1

                         Standard orientation:
 ---------------------------------------------------------------------
 Center     Atomic      Atomic             Coordinates (Angstroms)
 Number     Number       Type             X           Y           Z
 ---------------------------------------------------------------------
      1          6           0       -0.698259   -0.009287   -0.000952
      2          6           0        0.697745   -0.007603   -0.000067
      3          1           0        1.236144    0.935650    0.004657
      4          1           0       -1.190148   -0.885205    0.006432
      5          1           0       -1.249560    0.927697   -0.001710
      6          1           0        1.206647   -0.876800   -0.003270
 ---------------------------------------------------------------------

 SCF Done:  E(UB3LYP) =  -78.5794083016     A.U. after    9 cycles

 The electronic state is 1-A.
 Alpha  occ. eigenvalues --  -10.19487 -10.19429  -0.75910  -0.60169  -0.48375
 Alpha  occ. eigenvalues --   -0.41489  -0.38194  -0.26800
 Alpha virt. eigenvalues --   -0.01873   0.02505   0.03391   0.04907   0.07086
 Alpha virt. eigenvalues --    0.08724   0.08784   0.12466   0.15921   0.18110
 Alpha virt. eigenvalues --    0.21972   0.25537   0.32637   0.35116   0.58845

  Beta  occ. eigenvalues --  -10.19487 -10.19429  -0.75910  -0.60169  -0.48375
  Beta  occ. eigenvalues --   -0.41489  -0.38194  -0.26800
  Beta virt. eigenvalues --   -0.01873   0.02505   0.03391   0.04907   0.07086
  Beta virt. eigenvalues --    0.08724   0.08784   0.12466   0.15921   0.18110
  Beta virt. eigenvalues --    0.21972   0.25537   0.32637   0.35116   0.58845

 Mulliken charges and spin densities:
               1          2
     1  C   -0.371622   0.000000
     2  C   -0.371831  -0.000000
     3  H    0.184146  -0.000000
     4  H    0.186719   0.000000
     5  H    0.185087   0.000000
     6  H    0.187502  -0.000000
 Sum of Mulliken charges =  -0.00000   0.00000

 Dipole moment (field-independent basis, Debye):
    X=              0.0001    Y=             -0.0431    Z=              0.0068  Tot=              0.0437
 Quadrupole moment (field-independent basis, Debye-Ang):
   XX=            -12.3823   YY=            -12.2768   ZZ=            -16.1351
   XY=             -0.0281   XZ=             -0.0044   YZ=             -0.0003

 Normal termination of Gaussian 16 at Thu Oct 12 15:11:26 2023.
