 Gaussian 16, Revision A.03,
 Gaussian 16:  ES64L-G16RevA.03 25-Dec-2016

 ------------------
 # ub3lyp/6-31+g(d)
 ------------------

 -------------------
 tmpdir/M2_ref_5.gjf
 -------------------
 Symbolic Z-matrix:
 Charge =  0 Multiplicity = 1

                         Standard orientation:
 ---------------------------------------------------------------------
 Center     Atomic      Atomic             Coordinates (Angstroms)
 Number     Number       Type             X           Y           Z
 ---------------------------------------------------------------------
      1          6           0       -0.695300    0.504453   -0.000491
      2          6           0        0.696109    0.503973    0.000240
      3          1           0        1.238415    1.444997    0.000571
      4          8           0       -1.317095   -0.558585    0.000209
      5          1           0       -1.236865    1.445808    0.000227
      6          8           0        1.316294   -0.559085   -0.000121
 ---------------------------------------------------------------------

 SCF Done:  E(UB3LYP) =  -227.810870026     A.U. after   11 cycles

 The electronic state is 1-A.
 Alpha  occ. eigenvalues --  -19.20382 -19.20380 -10.31033 -10.30977  -1.10347
 Alpha  occ. eigenvalues --   -1.06511  -0.76886  -0.58831  -0.56786  -0.48552
 Alpha  occ. eigenvalues --   -0.46578  -0.45819  -0.39049  -0.31903  -0.29484
 Alpha virt. eigenvalues --   -0.14996  -0.00192   0.01606   0.02850   0.03105
 Alpha virt. eigenvalues --    0.04638   0.07474   0.07511   0.09498   0.14746
 Alpha virt. eigenvalues --    0.16850   0.19227   0.20438   0.21396   0.23851

  Beta  occ. eigenvalues --  -19.20382 -19.20380 -10.31033 -10.30977  -1.10347
  Beta  occ. eigenvalues --   -1.06511  -0.76886  -0.58831  -0.56786  -0.48552
  Beta  occ. eigenvalues --   -0.46578  -0.45819  -0.39049  -0.31903  -0.29484
  Beta virt. eigenvalues --   -0.14996  -0.00192   0.01606   0.02850   0.03105
  Beta virt. eigenvalues --    0.04638   0.07474   0.07511   0.09498   0.14746
  Beta virt. eigenvalues --    0.16850   0.19227   0.20438   0.21396   0.23851

 Mulliken charges and spin densities:
               1          2
     1  C    0.130236   0.000000
     2  C    0.130500  -0.000000
     3  H    0.181156  -0.000000
     4  O   -0.311682  -0.000000
     5  H    0.181232   0.000000
     6  O   -0.311441   0.000000
 Sum of Mulliken charges =   0.00000  -0.00000

 Dipole moment (field-independent basis, Debye):
    X=              0.0040    Y=              3.8656    Z=             -0.0002  Tot=              3.8656
 Quadrupole moment (field-independent basis, Debye-Ang):
   XX=            -26.4557   YY=            -22.0199   ZZ=            -21.3830
   XY=              0.0007   XZ=              0.0010   YZ=              0.0002

 Normal termination of Gaussian 16 at Thu Oct 12 15:11:40 2023.
