 Gaussian 16, Revision A.03,
 Gaussian 16:  ES64L-G16RevA.03 25-Dec-2016

 ------------------
 # ub3lyp/6-31+g(d)
 ------------------

 --------------------
 tmpdir/M2_ref_27.gjf
 --------------------
 Symbolic Z-matrix:
 Charge =  0 Multiplicity = 1

                         Standard orientation:
 ---------------------------------------------------------------------
 Center     Atomic      Atomic             Coordinates (Angstroms)
 Number     Number       Type             X           Y           Z
 ---------------------------------------------------------------------
      1          6           0        0.799101    0.481423    0.000302
      2          6           0       -0.582844    0.643426   -0.001023
      3          6           0       -1.423344   -0.472329   -0.000226
      4          8           0        1.291684   -0.646444    0.000476
      5          1           0        1.446982    1.353130    0.000628
      6          1           0       -1.011468    1.641286   -0.000775
      7          1           0       -1.023461   -1.392240   -0.005754
      8          1           0       -2.503006   -0.345748    0.007773
 ---------------------------------------------------------------------

 SCF Done:  E(UB3LYP) =  -191.905149453     A.U. after   12 cycles

 The electronic state is 1-A.
 Alpha  occ. eigenvalues --  -19.15263 -10.27713 -10.22794 -10.21789  -1.04568
 Alpha  occ. eigenvalues --   -0.80495  -0.68548  -0.56125  -0.52939  -0.45827
 Alpha  occ. eigenvalues --   -0.43190  -0.40727  -0.40181  -0.28733  -0.26761
 Alpha virt. eigenvalues --   -0.09784   0.00586   0.02239   0.03908   0.04180
 Alpha virt. eigenvalues --    0.06100   0.06222   0.07105   0.09414   0.09513
 Alpha virt. eigenvalues --    0.11701   0.12121   0.14038   0.16151   0.19239

  Beta  occ. eigenvalues --  -19.15263 -10.27713 -10.22794 -10.21789  -1.04568
  Beta  occ. eigenvalues --   -0.80495  -0.68548  -0.56125  -0.52939  -0.45827
  Beta  occ. eigenvalues --   -0.43190  -0.40727  -0.40181  -0.28733  -0.26761
  Beta virt. eigenvalues --   -0.09784   0.00586   0.02239   0.03908   0.04180
  Beta virt. eigenvalues --    0.06100   0.06222   0.07105   0.09414   0.09513
  Beta virt. eigenvalues --    0.11701   0.12121   0.14038   0.16151   0.19239

 Mulliken charges and spin densities:
               1          2
     1  C   -0.005531  -0.000000
     2  C    0.089583   0.000000
     3  C   -0.445653  -0.000000
     4  O   -0.425657  -0.000000
     5  H    0.163745  -0.000000
     6  H    0.187891  -0.000000
     7  H    0.234240  -0.000000
     8  H    0.201382   0.000000
 Sum of Mulliken charges =   0.00000  -0.00000

 Dipole moment (field-independent basis, Debye):
    X=             -2.3698    Y=              1.8482    Z=              0.0013  Tot=              3.0053
 Quadrupole moment (field-independent basis, Debye-Ang):
   XX=            -24.1709   YY=            -22.6928   ZZ=            -25.2147
   XY=              3.4926   XZ=             -0.0152   YZ=              0.0055

 Normal termination of Gaussian 16 at Thu Oct 12 15:11:46 2023.
