 Gaussian 16, Revision A.03,
 Gaussian 16:  ES64L-G16RevA.03 25-Dec-2016

 ------------------
 # ub3lyp/6-31+g(d)
 ------------------

 --------------------
 tmpdir/M2_ref_17.gjf
 --------------------
 Symbolic Z-matrix:
 Charge =  0 Multiplicity = 1

                         Standard orientation:
 ---------------------------------------------------------------------
 Center     Atomic      Atomic             Coordinates (Angstroms)
 Number     Number       Type             X           Y           Z
 ---------------------------------------------------------------------
      1          6           0        0.242214    0.498718    0.000046
      2          6           0       -1.139551   -0.127018   -0.000156
      3          8           0        1.158914   -0.331360   -0.001560
      4          1           0        0.450776    1.479810    0.011645
      5          1           0       -1.215686   -0.800260    0.875049
      6          1           0       -1.943091    0.610512   -0.054602
      7          1           0       -1.179288   -0.869384   -0.818945
 ---------------------------------------------------------------------

 SCF Done:  E(UB3LYP) =  -153.823169339     A.U. after   11 cycles

 The electronic state is 1-A.
 Alpha  occ. eigenvalues --  -19.15985 -10.28563 -10.20466  -1.04641  -0.75218
 Alpha  occ. eigenvalues --   -0.62019  -0.48747  -0.44229  -0.44012  -0.41480
 Alpha  occ. eigenvalues --   -0.35701  -0.26587
 Alpha virt. eigenvalues --   -0.05280   0.01050   0.02528   0.04784   0.05080
 Alpha virt. eigenvalues --    0.07438   0.07645   0.09410   0.14111   0.17003
 Alpha virt. eigenvalues --    0.17236   0.20461   0.23989   0.24916   0.26197

  Beta  occ. eigenvalues --  -19.15985 -10.28563 -10.20466  -1.04641  -0.75218
  Beta  occ. eigenvalues --   -0.62019  -0.48747  -0.44229  -0.44012  -0.41480
  Beta  occ. eigenvalues --   -0.35701  -0.26587
  Beta virt. eigenvalues --   -0.05280   0.01050   0.02528   0.04784   0.05080
  Beta virt. eigenvalues --    0.07438   0.07645   0.09410   0.14111   0.17003
  Beta virt. eigenvalues --    0.17236   0.20461   0.23989   0.24916   0.26197

 Mulliken charges and spin densities:
               1          2
     1  C    0.247023   0.000000
     2  C   -0.726366   0.000000
     3  O   -0.381098   0.000000
     4  H    0.178334  -0.000000
     5  H    0.241790  -0.000000
     6  H    0.197414  -0.000000
     7  H    0.242903  -0.000000
 Sum of Mulliken charges =  -0.00000   0.00000

 Dipole moment (field-independent basis, Debye):
    X=             -2.4004    Y=              1.4947    Z=              0.0160  Tot=              2.8278
 Quadrupole moment (field-independent basis, Debye-Ang):
   XX=            -21.7101   YY=            -17.4176   ZZ=            -18.2337
   XY=              1.7071   XZ=              0.0059   YZ=             -0.0293

 Normal termination of Gaussian 16 at Thu Oct 12 15:11:43 2023.
