 Gaussian 16, Revision A.03,
 Gaussian 16:  ES64L-G16RevA.03 25-Dec-2016

 ------------------
 # ub3lyp/6-31+g(d)
 ------------------

 --------------------
 tmpdir/M2_ref_40.gjf
 --------------------
 Symbolic Z-matrix:
 Charge =  0 Multiplicity = 1

                         Standard orientation:
 ---------------------------------------------------------------------
 Center     Atomic      Atomic             Coordinates (Angstroms)
 Number     Number       Type             X           Y           Z
 ---------------------------------------------------------------------
      1          6           0        0.023775    0.002190   -0.001450
      2          1           0        1.033205   -0.414225   -0.016927
      3          1           0        0.011422    1.100145   -0.001870
      4          1           0       -0.613718   -0.352290   -0.833906
      5          1           0       -0.573559   -0.346773    0.861404
 ---------------------------------------------------------------------

 SCF Done:  E(UB3LYP) =  -40.5178692422     A.U. after    8 cycles

 The electronic state is 1-A.
 Alpha  occ. eigenvalues --  -10.17550  -0.69471  -0.40801  -0.39544  -0.37646
 Alpha virt. eigenvalues --    0.01637   0.05963   0.06117   0.06335   0.16726
 Alpha virt. eigenvalues --    0.17980   0.18771   0.27322   0.64560   0.64811
 Alpha virt. eigenvalues --    0.64999   0.90019   0.92943   0.94608   1.06465

  Beta  occ. eigenvalues --  -10.17550  -0.69471  -0.40801  -0.39544  -0.37646
  Beta virt. eigenvalues --    0.01637   0.05963   0.06117   0.06335   0.16726
  Beta virt. eigenvalues --    0.17980   0.18771   0.27322   0.64560   0.64811
  Beta virt. eigenvalues --    0.64999   0.90019   0.92943   0.94608   1.06465

 Mulliken charges and spin densities:
               1          2
     1  C   -0.797747  -0.000000
     2  H    0.203173  -0.000000
     3  H    0.200754  -0.000000
     4  H    0.196902  -0.000000
     5  H    0.196918  -0.000000
 Sum of Mulliken charges =  -0.00000  -0.00000

 Dipole moment (field-independent basis, Debye):
    X=             -0.0778    Y=             -0.0116    Z=              0.0068  Tot=              0.0790
 Quadrupole moment (field-independent basis, Debye-Ang):
   XX=             -8.2450   YY=             -8.5075   ZZ=             -8.8943
   XY=             -0.0308   XZ=             -0.0020   YZ=              0.0005

 Normal termination of Gaussian 16 at Thu Oct 12 15:11:55 2023.
