 Gaussian 16, Revision A.03,
 Gaussian 16:  ES64L-G16RevA.03 25-Dec-2016

 ------------------
 # ub3lyp/6-31+g(d)
 ------------------

 --------------------
 tmpdir/M2_ref_16.gjf
 --------------------
 Symbolic Z-matrix:
 Charge =  0 Multiplicity = 1

                         Standard orientation:
 ---------------------------------------------------------------------
 Center     Atomic      Atomic             Coordinates (Angstroms)
 Number     Number       Type             X           Y           Z
 ---------------------------------------------------------------------
      1          6           0       -0.685669    0.489347   -0.001536
      2          6           0        0.700021    0.491222   -0.000877
      3          6           0       -1.388753   -0.724469   -0.000078
      4          1           0       -1.337874    1.372623    0.008844
      5          6           0        1.389832   -0.723482    0.001092
      6          1           0        1.245290    1.431668   -0.000449
 ---------------------------------------------------------------------

 SCF Done:  E(UB3LYP) =  -153.310600744     A.U. after   14 cycles

 The electronic state is 1-A.
 Alpha  occ. eigenvalues --  -10.29313 -10.29154 -10.24548 -10.24473  -0.86397
 Alpha  occ. eigenvalues --   -0.73506  -0.61787  -0.51652  -0.49887  -0.37416
 Alpha  occ. eigenvalues --   -0.33415  -0.31164  -0.25390
 Alpha virt. eigenvalues --   -0.14894  -0.11412  -0.08384   0.00211   0.02700
 Alpha virt. eigenvalues --    0.04115   0.04518   0.05748   0.06638   0.08025
 Alpha virt. eigenvalues --    0.09057   0.09115   0.10616   0.11973   0.12804

  Beta  occ. eigenvalues --  -10.29313 -10.29154 -10.24548 -10.24473  -0.86397
  Beta  occ. eigenvalues --   -0.73506  -0.61787  -0.51652  -0.49887  -0.37416
  Beta  occ. eigenvalues --   -0.33415  -0.31164  -0.25390
  Beta virt. eigenvalues --   -0.14894  -0.11412  -0.08384   0.00211   0.02700
  Beta virt. eigenvalues --    0.04115   0.04518   0.05748   0.06638   0.08025
  Beta virt. eigenvalues --    0.09057   0.09115   0.10616   0.11973   0.12804

 Mulliken charges and spin densities:
               1          2
     1  C    0.131723  -0.000000
     2  C    0.119895   0.000000
     3  C   -0.377397  -0.000000
     4  H    0.251242   0.000000
     5  C   -0.374761  -0.000000
     6  H    0.249298   0.000000
 Sum of Mulliken charges =  -0.00000   0.00000

 Dipole moment (field-independent basis, Debye):
    X=              0.0042    Y=              3.6788    Z=              0.0095  Tot=              3.6788
 Quadrupole moment (field-independent basis, Debye-Ang):
   XX=            -25.6529   YY=            -24.5004   ZZ=            -26.8711
   XY=             -0.1119   XZ=             -0.0305   YZ=              0.0208

 Normal termination of Gaussian 16 at Thu Oct 12 15:11:32 2023.
