 Gaussian 16, Revision A.03,
 Gaussian 16:  ES64L-G16RevA.03 25-Dec-2016

 ------------------
 # ub3lyp/6-31+g(d)
 ------------------

 -------------------
 tmpdir/M2_ref_1.gjf
 -------------------
 Symbolic Z-matrix:
 Charge =  0 Multiplicity = 1

                         Standard orientation:
 ---------------------------------------------------------------------
 Center     Atomic      Atomic             Coordinates (Angstroms)
 Number     Number       Type             X           Y           Z
 ---------------------------------------------------------------------
      1          6           0        0.696141    0.483819    0.000253
      2          6           0       -0.695268    0.484424   -0.000499
      3          6           0        1.399496   -0.722051   -0.000161
      4          1           0        1.238532    1.424794    0.000605
      5          6           0       -1.400667   -0.721296    0.000269
      6          1           0       -1.236748    1.425828    0.000223
 ---------------------------------------------------------------------

 SCF Done:  E(UB3LYP) =  -153.312875901     A.U. after   13 cycles

 The electronic state is 1-A.
 Alpha  occ. eigenvalues --  -10.29235 -10.29222 -10.24454 -10.24398  -0.86369
 Alpha  occ. eigenvalues --   -0.73495  -0.62233  -0.51191  -0.50175  -0.37378
 Alpha  occ. eigenvalues --   -0.33381  -0.31295  -0.25489
 Alpha virt. eigenvalues --   -0.14805  -0.11687  -0.08300   0.00159   0.02829
 Alpha virt. eigenvalues --    0.04141   0.04506   0.05740   0.06642   0.08250
 Alpha virt. eigenvalues --    0.09104   0.09136   0.10610   0.11955   0.12793

  Beta  occ. eigenvalues --  -10.29235 -10.29222 -10.24454 -10.24398  -0.86369
  Beta  occ. eigenvalues --   -0.73495  -0.62233  -0.51191  -0.50175  -0.37378
  Beta  occ. eigenvalues --   -0.33381  -0.31295  -0.25489
  Beta virt. eigenvalues --   -0.14805  -0.11687  -0.08300   0.00159   0.02829
  Beta virt. eigenvalues --    0.04141   0.04506   0.05740   0.06642   0.08250
  Beta virt. eigenvalues --    0.09104   0.09136   0.10610   0.11955   0.12793

 Mulliken charges and spin densities:
               1          2
     1  C    0.133367   0.000000
     2  C    0.131572  -0.000000
     3  C   -0.381597  -0.000000
     4  H    0.248414  -0.000000
     5  C   -0.380119  -0.000000
     6  H    0.248364  -0.000000
 Sum of Mulliken charges =  -0.00000   0.00000

 Dipole moment (field-independent basis, Debye):
    X=              0.0031    Y=              3.7213    Z=              0.0009  Tot=              3.7213
 Quadrupole moment (field-independent basis, Debye-Ang):
   XX=            -25.8921   YY=            -24.3295   ZZ=            -26.8438
   XY=              0.0018   XZ=              0.0022   YZ=              0.0021

 Normal termination of Gaussian 16 at Thu Oct 12 15:11:23 2023.
