 Gaussian 16, Revision A.03,
 Gaussian 16:  ES64L-G16RevA.03 25-Dec-2016

 ------------------
 # ub3lyp/6-31+g(d)
 ------------------

 -------------------
 tmpdir/M2_ref_8.gjf
 -------------------
 Symbolic Z-matrix:
 Charge =  0 Multiplicity = 1

                         Standard orientation:
 ---------------------------------------------------------------------
 Center     Atomic      Atomic             Coordinates (Angstroms)
 Number     Number       Type             X           Y           Z
 ---------------------------------------------------------------------
      1          6           0       -1.413634   -0.474769    0.000713
      2          6           0       -0.589217    0.651803    0.001768
      3          6           0        0.788750    0.487253   -0.009467
      4          1           0       -1.011612   -1.398278    0.003049
      5          1           0       -2.492941   -0.353513   -0.003205
      6          1           0       -1.020991    1.649521    0.003460
      7          8           0        1.282778   -0.646404    0.001907
      8          1           0        1.547923    1.287783    0.023358
 ---------------------------------------------------------------------

 SCF Done:  E(UB3LYP) =  -191.902859549     A.U. after   12 cycles

 The electronic state is 1-A.
 Alpha  occ. eigenvalues --  -19.14950 -10.27766 -10.22935 -10.22076  -1.04191
 Alpha  occ. eigenvalues --   -0.80610  -0.68247  -0.55968  -0.53107  -0.45827
 Alpha  occ. eigenvalues --   -0.43165  -0.40562  -0.40008  -0.28754  -0.26416
 Alpha virt. eigenvalues --   -0.09831   0.00589   0.02261   0.03804   0.04126
 Alpha virt. eigenvalues --    0.06117   0.06219   0.07036   0.09310   0.09497
 Alpha virt. eigenvalues --    0.11618   0.12088   0.14105   0.16198   0.18642

  Beta  occ. eigenvalues --  -19.14950 -10.27766 -10.22935 -10.22076  -1.04191
  Beta  occ. eigenvalues --   -0.80610  -0.68247  -0.55968  -0.53107  -0.45827
  Beta  occ. eigenvalues --   -0.43165  -0.40562  -0.40008  -0.28754  -0.26416
  Beta virt. eigenvalues --   -0.09831   0.00589   0.02261   0.03804   0.04126
  Beta virt. eigenvalues --    0.06117   0.06219   0.07036   0.09310   0.09497
  Beta virt. eigenvalues --    0.11618   0.12088   0.14105   0.16198   0.18642

 Mulliken charges and spin densities:
               1          2
     1  C   -0.436217   0.000000
     2  C    0.081384  -0.000000
     3  C   -0.020726   0.000000
     4  H    0.237454  -0.000000
     5  H    0.201200  -0.000000
     6  H    0.191285  -0.000000
     7  O   -0.420345   0.000000
     8  H    0.165966  -0.000000
 Sum of Mulliken charges =   0.00000  -0.00000

 Dipole moment (field-independent basis, Debye):
    X=             -2.3857    Y=              1.8371    Z=             -0.0025  Tot=              3.0111
 Quadrupole moment (field-independent basis, Debye-Ang):
   XX=            -23.9836   YY=            -22.8204   ZZ=            -25.2483
   XY=              3.4954   XZ=              0.0114   YZ=              0.0083

 Normal termination of Gaussian 16 at Thu Oct 12 15:11:40 2023.
