 Gaussian 16, Revision A.03,
 Gaussian 16:  ES64L-G16RevA.03 25-Dec-2016

 ------------------
 # ub3lyp/6-31+g(d)
 ------------------

 --------------------
 tmpdir/M2_ref_65.gjf
 --------------------
 Symbolic Z-matrix:
 Charge =  0 Multiplicity = 1

                         Standard orientation:
 ---------------------------------------------------------------------
 Center     Atomic      Atomic             Coordinates (Angstroms)
 Number     Number       Type             X           Y           Z
 ---------------------------------------------------------------------
      1          6           0       -0.668026   -0.014015   -0.009131
      2          6           0        0.668647   -0.012689   -0.002438
      3          1           0        1.278592   -0.909319    0.009380
      4          1           0       -1.127712    0.991494    0.018079
      5          1           0       -1.279241   -0.910083    0.027292
      6          1           0        1.124631    0.988132    0.014663
 ---------------------------------------------------------------------

 SCF Done:  E(UB3LYP) =  -78.5899585287     A.U. after    9 cycles

 The electronic state is 1-A.
 Alpha  occ. eigenvalues --  -10.19632 -10.19531  -0.76599  -0.57954  -0.48109
 Alpha  occ. eigenvalues --   -0.41512  -0.36422  -0.27728
 Alpha virt. eigenvalues --   -0.00762   0.02540   0.03419   0.04509   0.06927
 Alpha virt. eigenvalues --    0.08508   0.08766   0.12846   0.15638   0.16705
 Alpha virt. eigenvalues --    0.20122   0.24168   0.33259   0.36357   0.57679

  Beta  occ. eigenvalues --  -10.19632 -10.19531  -0.76599  -0.57954  -0.48109
  Beta  occ. eigenvalues --   -0.41512  -0.36422  -0.27728
  Beta virt. eigenvalues --   -0.00762   0.02540   0.03419   0.04509   0.06927
  Beta virt. eigenvalues --    0.08508   0.08766   0.12846   0.15638   0.16705
  Beta virt. eigenvalues --    0.20122   0.24168   0.33259   0.36357   0.57679

 Mulliken charges and spin densities:
               1          2
     1  C   -0.362594  -0.000000
     2  C   -0.364118   0.000000
     3  H    0.186340   0.000000
     4  H    0.176618  -0.000000
     5  H    0.186268  -0.000000
     6  H    0.177486  -0.000000
 Sum of Mulliken charges =  -0.00000  -0.00000

 Dipole moment (field-independent basis, Debye):
    X=              0.0038    Y=              0.0046    Z=              0.0755  Tot=              0.0758
 Quadrupole moment (field-independent basis, Debye-Ang):
   XX=            -12.7484   YY=            -12.2125   ZZ=            -16.1000
   XY=              0.0047   XZ=             -0.0308   YZ=              0.0015

 Normal termination of Gaussian 16 at Thu Oct 12 15:12:59 2023.
