 Gaussian 16, Revision A.03,
 Gaussian 16:  ES64L-G16RevA.03 25-Dec-2016

 ------------------
 # ub3lyp/6-31+g(d)
 ------------------

 --------------------
 tmpdir/M2_ref_24.gjf
 --------------------
 Symbolic Z-matrix:
 Charge =  0 Multiplicity = 1

                         Standard orientation:
 ---------------------------------------------------------------------
 Center     Atomic      Atomic             Coordinates (Angstroms)
 Number     Number       Type             X           Y           Z
 ---------------------------------------------------------------------
      1          6           0       -0.686246    0.509094   -0.001526
      2          6           0        0.699443    0.511205   -0.000938
      3          1           0        1.244552    1.451744   -0.000657
      4          8           0       -1.305915   -0.561131   -0.000072
      5          1           0       -1.338602    1.392259    0.008775
      6          8           0        1.307774   -0.559593    0.000905
 ---------------------------------------------------------------------

 SCF Done:  E(UB3LYP) =  -227.807197842     A.U. after   11 cycles

 The electronic state is 1-A.
 Alpha  occ. eigenvalues --  -19.20483 -19.20078 -10.31257 -10.30949  -1.10308
 Alpha  occ. eigenvalues --   -1.06292  -0.76689  -0.58813  -0.56981  -0.48493
 Alpha  occ. eigenvalues --   -0.46574  -0.45497  -0.38875  -0.31584  -0.29527
 Alpha virt. eigenvalues --   -0.15060  -0.00159   0.01576   0.02693   0.03183
 Alpha virt. eigenvalues --    0.04636   0.07210   0.07530   0.09491   0.14748
 Alpha virt. eigenvalues --    0.16999   0.18310   0.20456   0.21294   0.23569

  Beta  occ. eigenvalues --  -19.20483 -19.20078 -10.31257 -10.30949  -1.10308
  Beta  occ. eigenvalues --   -1.06292  -0.76689  -0.58813  -0.56981  -0.48493
  Beta  occ. eigenvalues --   -0.46574  -0.45497  -0.38875  -0.31584  -0.29527
  Beta virt. eigenvalues --   -0.15060  -0.00159   0.01576   0.02693   0.03183
  Beta virt. eigenvalues --    0.04636   0.07210   0.07530   0.09491   0.14748
  Beta virt. eigenvalues --    0.16999   0.18310   0.20456   0.21294   0.23569

 Mulliken charges and spin densities:
               1          2
     1  C    0.112743  -0.000000
     2  C    0.130460   0.000000
     3  H    0.182717  -0.000000
     4  O   -0.305856   0.000000
     5  H    0.186140   0.000000
     6  O   -0.306205  -0.000000
 Sum of Mulliken charges =  -0.00000  -0.00000

 Dipole moment (field-independent basis, Debye):
    X=              0.0140    Y=              3.8835    Z=             -0.0009  Tot=              3.8835
 Quadrupole moment (field-independent basis, Debye-Ang):
   XX=            -26.1772   YY=            -22.1304   ZZ=            -21.4176
   XY=             -0.0536   XZ=             -0.0092   YZ=              0.0020

 Normal termination of Gaussian 16 at Thu Oct 12 15:11:40 2023.
