 Gaussian 16, Revision A.03,
 Gaussian 16:  ES64L-G16RevA.03 25-Dec-2016

 ------------------
 # ub3lyp/6-31+g(d)
 ------------------

 -----------------------
 tmpdir/M3_conf_0_10.gjf
 -----------------------
 Symbolic Z-matrix:
 Charge =  0 Multiplicity = 1

                         Standard orientation:
 ---------------------------------------------------------------------
 Center     Atomic      Atomic             Coordinates (Angstroms)
 Number     Number       Type             X           Y           Z
 ---------------------------------------------------------------------
      1          1           0       -1.931856    0.623632   -0.039515
      2          6           0       -1.132306   -0.119476    0.000868
      3          6           0        0.268335    0.469646   -0.002728
      4          1           0       -1.193480   -0.843997   -0.829619
      5          1           0       -1.200458   -0.794473    0.875230
      6          8           0        1.135230   -0.328548   -0.001356
      7          1           0        0.427783    1.542199    0.015913
 ---------------------------------------------------------------------

 SCF Done:  E(UB3LYP) =  -153.829627802     A.U. after   11 cycles

 The electronic state is 1-A.
 Alpha  occ. eigenvalues --  -19.16268 -10.28711 -10.19939  -1.08060  -0.74856
 Alpha  occ. eigenvalues --   -0.59960  -0.49071  -0.44933  -0.44506  -0.41583
 Alpha  occ. eigenvalues --   -0.36931  -0.26584
 Alpha virt. eigenvalues --   -0.03895   0.01249   0.02391   0.04740   0.05086
 Alpha virt. eigenvalues --    0.07427   0.07674   0.09398   0.14225   0.17017
 Alpha virt. eigenvalues --    0.17493   0.20542   0.23024   0.24893   0.25549

  Beta  occ. eigenvalues --  -19.16268 -10.28711 -10.19939  -1.08060  -0.74856
  Beta  occ. eigenvalues --   -0.59960  -0.49071  -0.44933  -0.44506  -0.41583
  Beta  occ. eigenvalues --   -0.36931  -0.26584
  Beta virt. eigenvalues --   -0.03895   0.01249   0.02391   0.04740   0.05086
  Beta virt. eigenvalues --    0.07427   0.07674   0.09398   0.14225   0.17017
  Beta virt. eigenvalues --    0.17493   0.20542   0.23024   0.24893   0.25549

 Mulliken charges and spin densities:
               1          2
     1  H    0.196735  -0.000000
     2  C   -0.734415   0.000000
     3  C    0.246132  -0.000000
     4  H    0.237546  -0.000000
     5  H    0.236576  -0.000000
     6  O   -0.345310  -0.000000
     7  H    0.162736   0.000000
 Sum of Mulliken charges =  -0.00000  -0.00000

 Dipole moment (field-independent basis, Debye):
    X=             -2.1339    Y=              1.3194    Z=              0.0085  Tot=              2.5089
 Quadrupole moment (field-independent basis, Debye-Ang):
   XX=            -21.5414   YY=            -17.7752   ZZ=            -18.1567
   XY=              1.5084   XZ=              0.0262   YZ=             -0.0285

 Normal termination of Gaussian 16 at Thu Oct 12 15:27:44 2023.
