 Gaussian 16, Revision A.03,
 Gaussian 16:  ES64L-G16RevA.03 25-Dec-2016

 ------------------
 # ub3lyp/6-31+g(d)
 ------------------

 -----------------------
 tmpdir/M3_conf_0_31.gjf
 -----------------------
 Symbolic Z-matrix:
 Charge =  0 Multiplicity = 1

                         Standard orientation:
 ---------------------------------------------------------------------
 Center     Atomic      Atomic             Coordinates (Angstroms)
 Number     Number       Type             X           Y           Z
 ---------------------------------------------------------------------
      1          6           0        1.214086   -0.170520   -0.000458
      2          6           0       -0.142535    0.531876   -0.020192
      3          6           0       -1.228481   -0.247384   -0.004437
      4          1           0        1.230434   -0.901566   -0.819549
      5          1           0        1.132245   -0.722271    0.955508
      6          1           0        2.054708    0.525938   -0.031702
      7          1           0       -0.213190    1.614128    0.019875
      8          1           0       -1.016413   -1.326584    0.006954
      9          1           0       -2.246205    0.126524    0.019438
 ---------------------------------------------------------------------

 SCF Done:  E(UB3LYP) =  -117.902155319     A.U. after   11 cycles

 The electronic state is 1-A.
 Alpha  occ. eigenvalues --  -10.19630 -10.18797 -10.18043  -0.79158  -0.67942
 Alpha  occ. eigenvalues --   -0.55601  -0.47455  -0.41992  -0.41087  -0.38046
 Alpha  occ. eigenvalues --   -0.34839  -0.25375
 Alpha virt. eigenvalues --   -0.00477   0.01707   0.03266   0.03391   0.05959
 Alpha virt. eigenvalues --    0.06467   0.07665   0.09284   0.09506   0.11671
 Alpha virt. eigenvalues --    0.12687   0.13049   0.16432   0.19980   0.20751

  Beta  occ. eigenvalues --  -10.19630 -10.18797 -10.18043  -0.79158  -0.67942
  Beta  occ. eigenvalues --   -0.55601  -0.47455  -0.41992  -0.41087  -0.38046
  Beta  occ. eigenvalues --   -0.34839  -0.25375
  Beta virt. eigenvalues --   -0.00477   0.01707   0.03266   0.03391   0.05959
  Beta virt. eigenvalues --    0.06467   0.07665   0.09284   0.09506   0.11671
  Beta virt. eigenvalues --    0.12687   0.13049   0.16432   0.19980   0.20751

 Mulliken charges and spin densities:
               1          2
     1  C   -0.844485  -0.000000
     2  C    0.141001  -0.000000
     3  C   -0.469065   0.000000
     4  H    0.218002   0.000000
     5  H    0.218219   0.000000
     6  H    0.200496  -0.000000
     7  H    0.180322   0.000000
     8  H    0.170999  -0.000000
     9  H    0.184513  -0.000000
 Sum of Mulliken charges =  -0.00000  -0.00000

 Dipole moment (field-independent basis, Debye):
    X=              0.3759    Y=              0.0422    Z=              0.0929  Tot=              0.3895
 Quadrupole moment (field-independent basis, Debye-Ang):
   XX=            -20.0602   YY=            -19.1995   ZZ=            -22.2774
   XY=              0.2133   XZ=             -0.2147   YZ=              0.1041

 Normal termination of Gaussian 16 at Thu Oct 12 15:29:54 2023.
