 Gaussian 16, Revision A.03,
 Gaussian 16:  ES64L-G16RevA.03 25-Dec-2016

 ------------------
 # ub3lyp/6-31+g(d)
 ------------------

 ----------------------
 tmpdir/M3_conf_0_7.gjf
 ----------------------
 Symbolic Z-matrix:
 Charge =  0 Multiplicity = 1

                         Standard orientation:
 ---------------------------------------------------------------------
 Center     Atomic      Atomic             Coordinates (Angstroms)
 Number     Number       Type             X           Y           Z
 ---------------------------------------------------------------------
      1          6           0        0.107404    0.530038    0.204942
      2          6           0        1.542960    0.965111    0.478634
      3          6           0        2.487210    0.154730   -0.393473
      4          6           0       -0.969418    1.358728   -0.077373
      5          6           0       -0.077622   -0.854704    0.330726
      6          6           0       -2.235203    0.799032   -0.260003
      7          1           0       -0.825356    2.432839   -0.162933
      8          6           0       -1.336268   -1.407564    0.156665
      9          6           0       -2.417823   -0.575501   -0.144631
     10          1           0       -3.080131    1.440229   -0.493594
     11          1           0       -1.480308   -2.480538    0.255512
     12          1           0       -3.405065   -1.004833   -0.287525
     13          1           0        1.676458    0.610031    1.518285
     14          1           0        1.676462    2.043325    0.365722
     15          8           0        2.343555   -1.012415   -0.317533
     16          1           0        3.238884    0.637254   -1.008526
     17          1           0        0.843185   -1.398206    0.580399
 ---------------------------------------------------------------------

 SCF Done:  E(UB3LYP) =  -384.864517466     A.U. after   15 cycles

 The electronic state is 1-A.
 Alpha  occ. eigenvalues --  -19.16958 -10.29364 -10.20985 -10.20352 -10.19520
 Alpha  occ. eigenvalues --  -10.19334 -10.19093 -10.18995 -10.17729  -1.09404
 Alpha  occ. eigenvalues --   -0.86190  -0.79105  -0.74689  -0.71551  -0.62274
 Alpha  occ. eigenvalues --   -0.60520  -0.57928  -0.51196  -0.50532  -0.47952
 Alpha  occ. eigenvalues --   -0.46595  -0.45171  -0.43585  -0.41609  -0.40655
 Alpha  occ. eigenvalues --   -0.38205  -0.36217  -0.34918  -0.33842  -0.27002
 Alpha  occ. eigenvalues --   -0.25083  -0.24436
 Alpha virt. eigenvalues --   -0.05347  -0.00922  -0.00733   0.00568   0.01549
 Alpha virt. eigenvalues --    0.02743   0.02852   0.04385   0.04469   0.05785
 Alpha virt. eigenvalues --    0.06632   0.06752   0.07649   0.07817   0.09778

  Beta  occ. eigenvalues --  -19.16958 -10.29364 -10.20985 -10.20352 -10.19520
  Beta  occ. eigenvalues --  -10.19334 -10.19093 -10.18995 -10.17729  -1.09404
  Beta  occ. eigenvalues --   -0.86190  -0.79105  -0.74689  -0.71551  -0.62274
  Beta  occ. eigenvalues --   -0.60520  -0.57928  -0.51196  -0.50532  -0.47952
  Beta  occ. eigenvalues --   -0.46595  -0.45171  -0.43585  -0.41609  -0.40655
  Beta  occ. eigenvalues --   -0.38205  -0.36217  -0.34918  -0.33842  -0.27002
  Beta  occ. eigenvalues --   -0.25083  -0.24436
  Beta virt. eigenvalues --   -0.05347  -0.00922  -0.00733   0.00568   0.01549
  Beta virt. eigenvalues --    0.02743   0.02852   0.04385   0.04469   0.05785
  Beta virt. eigenvalues --    0.06632   0.06752   0.07649   0.07817   0.09778

 Mulliken charges and spin densities:
               1          2
     1  C    0.478634   0.000000
     2  C   -0.631737  -0.000000
     3  C    0.139598   0.000000
     4  C   -0.455765  -0.000000
     5  C   -0.250028   0.000000
     6  C   -0.190477  -0.000000
     7  H    0.170558   0.000000
     8  C   -0.135405   0.000000
     9  C   -0.208771   0.000000
    10  H    0.176113  -0.000000
    11  H    0.178547  -0.000000
    12  H    0.174106   0.000000
    13  H    0.257968   0.000000
    14  H    0.195119   0.000000
    15  O   -0.305849   0.000000
    16  H    0.170386   0.000000
    17  H    0.237002  -0.000000
 Sum of Mulliken charges =  -0.00000  -0.00000

 Dipole moment (field-independent basis, Debye):
    X=              0.5769    Y=              2.0808    Z=              0.1767  Tot=              2.1665
 Quadrupole moment (field-independent basis, Debye-Ang):
   XX=            -49.0646   YY=            -51.6357   ZZ=            -55.5624
   XY=              5.6892   XZ=              1.3682   YZ=             -1.8098

 Normal termination of Gaussian 16 at Thu Oct 12 15:29:38 2023.
