 Gaussian 16, Revision A.03,
 Gaussian 16:  ES64L-G16RevA.03 25-Dec-2016

 ------------------
 # ub3lyp/6-31+g(d)
 ------------------

 ----------------------
 tmpdir/M3_conf_0_5.gjf
 ----------------------
 Symbolic Z-matrix:
 Charge =  0 Multiplicity = 2

                         Standard orientation:
 ---------------------------------------------------------------------
 Center     Atomic      Atomic             Coordinates (Angstroms)
 Number     Number       Type             X           Y           Z
 ---------------------------------------------------------------------
      1          6           0        0.483470    0.297322   -0.268948
      2          6           0        1.988390    0.436126   -0.471339
      3          6           0        2.633072   -0.334811    0.680737
      4          6           0       -0.417952    1.324801   -0.028744
      5          6           0        0.051432   -1.037156   -0.277636
      6          6           0       -1.764310    1.020257    0.179582
      7          1           0       -0.078430    2.357376   -0.011107
      8          6           0       -1.284080   -1.337969   -0.063025
      9          6           0       -2.195285   -0.302593    0.161829
     10          1           0       -2.477508    1.820232    0.355667
     11          1           0       -1.619014   -2.372179   -0.068242
     12          1           0       -3.243943   -0.533065    0.324893
     13          1           0        2.310204    1.479940   -0.474600
     14          1           0        2.260115   -0.114639   -1.383811
     15          1           0        2.475200   -1.395009    0.567086
     16          1           0        2.543920    0.119443    1.667995
     17          1           0        0.861027   -1.757961   -0.452617
 ---------------------------------------------------------------------

 SCF Done:  E(UB3LYP) =  -310.205447020     A.U. after   17 cycles

 The electronic state is 2-A.
 Alpha  occ. eigenvalues --  -10.20496 -10.20240 -10.19932 -10.19845 -10.19806
 Alpha  occ. eigenvalues --  -10.19625 -10.19586 -10.19501  -0.86785  -0.79806
 Alpha  occ. eigenvalues --   -0.75337  -0.72217  -0.62954  -0.61465  -0.57981
 Alpha  occ. eigenvalues --   -0.52041  -0.48261  -0.46168  -0.44268  -0.42585
 Alpha  occ. eigenvalues --   -0.41813  -0.39735  -0.37954  -0.35855  -0.35078
 Alpha  occ. eigenvalues --   -0.34243  -0.26095  -0.25777  -0.21310
 Alpha virt. eigenvalues --   -0.01815  -0.01001   0.00400   0.01986   0.02104
 Alpha virt. eigenvalues --    0.03339   0.04068   0.04479   0.05726   0.06545
 Alpha virt. eigenvalues --    0.07128   0.07378   0.07702   0.09649   0.10441

  Beta  occ. eigenvalues --  -10.20381 -10.19979 -10.19852 -10.19807 -10.19597
  Beta  occ. eigenvalues --  -10.19562 -10.19473 -10.18861  -0.86636  -0.79157
  Beta  occ. eigenvalues --   -0.75283  -0.71248  -0.61862  -0.60871  -0.57438
  Beta  occ. eigenvalues --   -0.51927  -0.47957  -0.46014  -0.43958  -0.42466
  Beta  occ. eigenvalues --   -0.41304  -0.39208  -0.37614  -0.35566  -0.34612
  Beta  occ. eigenvalues --   -0.34093  -0.25930  -0.24988
  Beta virt. eigenvalues --   -0.06899  -0.01718  -0.00646   0.00449   0.02007
  Beta virt. eigenvalues --    0.02256   0.03466   0.04111   0.04604   0.05901
  Beta virt. eigenvalues --    0.06869   0.07129   0.07393   0.07950   0.09706

 Mulliken charges and spin densities:
               1          2
     1  C    0.303501   0.091776
     2  C   -0.567865  -0.160642
     3  C   -0.375626   1.113888
     4  C   -0.199615  -0.007954
     5  C   -0.199765  -0.019137
     6  C   -0.252299   0.010268
     7  H    0.174782  -0.000302
     8  C   -0.230557   0.022945
     9  C   -0.140592   0.017027
    10  H    0.178496   0.000683
    11  H    0.178849   0.000463
    12  H    0.176547  -0.001041
    13  H    0.201205   0.008891
    14  H    0.220922   0.007828
    15  H    0.175028  -0.044168
    16  H    0.192812  -0.041044
    17  H    0.164176   0.000519
 Sum of Mulliken charges =  -0.00000   1.00000

 Dipole moment (field-independent basis, Debye):
    X=             -0.4792    Y=              0.0634    Z=             -0.0361  Tot=              0.4847
 Quadrupole moment (field-independent basis, Debye-Ang):
   XX=            -49.8917   YY=            -44.7047   ZZ=            -52.2234
   XY=              0.2859   XZ=             -1.7195   YZ=              0.9766

 Normal termination of Gaussian 16 at Thu Oct 12 15:28:57 2023.
