 Gaussian 16, Revision A.03,
 Gaussian 16:  ES64L-G16RevA.03 25-Dec-2016

 ------------------
 # ub3lyp/6-31+g(d)
 ------------------

 -----------------------
 tmpdir/M3_conf_0_23.gjf
 -----------------------
 Symbolic Z-matrix:
 Charge =  0 Multiplicity = 2

                         Standard orientation:
 ---------------------------------------------------------------------
 Center     Atomic      Atomic             Coordinates (Angstroms)
 Number     Number       Type             X           Y           Z
 ---------------------------------------------------------------------
      1          6           0        0.718261   -0.016106    0.004877
      2          6           0       -0.806337   -0.008331   -0.110804
      3          1           0       -1.385658   -0.870161    0.224392
      4          1           0        1.102472    0.907909   -0.446981
      5          1           0        1.182220   -0.916730   -0.402924
      6          1           0        0.829176    0.067360    1.102034
      7          1           0       -1.199751    0.958250    0.159043
 ---------------------------------------------------------------------

 SCF Done:  E(UB3LYP) =  -79.1546809377     A.U. after   12 cycles

 The electronic state is 2-A.
 Alpha  occ. eigenvalues --  -10.19917 -10.19026  -0.75942  -0.60880  -0.45666
 Alpha  occ. eigenvalues --   -0.42363  -0.37637  -0.36633  -0.21354
 Alpha virt. eigenvalues --    0.01851   0.03217   0.05081   0.05803   0.08161
 Alpha virt. eigenvalues --    0.08867   0.09739   0.14885   0.17345   0.19369
 Alpha virt. eigenvalues --    0.22666   0.23423   0.25202   0.30174   0.62214

  Beta  occ. eigenvalues --  -10.19060 -10.18529  -0.74359  -0.58641  -0.45072
  Beta  occ. eigenvalues --   -0.40942  -0.36831  -0.36046
  Beta virt. eigenvalues --   -0.05842   0.02015   0.03406   0.05097   0.06229
  Beta virt. eigenvalues --    0.08142   0.08862   0.11129   0.15198   0.17918
  Beta virt. eigenvalues --    0.19532   0.23748   0.24682   0.26072   0.30709

 Mulliken charges and spin densities:
               1          2
     1  C   -0.700973  -0.088696
     2  C   -0.277361   1.107750
     3  H    0.181651  -0.041683
     4  H    0.206900   0.009012
     5  H    0.206604   0.007714
     6  H    0.206955   0.050163
     7  H    0.176223  -0.044261
 Sum of Mulliken charges =   0.00000   1.00000

 Dipole moment (field-independent basis, Debye):
    X=              0.3660    Y=              0.0507    Z=              0.6131  Tot=              0.7159
 Quadrupole moment (field-independent basis, Debye-Ang):
   XX=            -15.3081   YY=            -13.7455   ZZ=            -15.5148
   XY=              0.0709   XZ=             -0.9649   YZ=              0.0160

 Normal termination of Gaussian 16 at Thu Oct 12 15:29:42 2023.
