 Gaussian 16, Revision A.03,
 Gaussian 16:  ES64L-G16RevA.03 25-Dec-2016

 ------------------
 # ub3lyp/6-31+g(d)
 ------------------

 ----------------------
 tmpdir/M3_conf_0_3.gjf
 ----------------------
 Symbolic Z-matrix:
 Charge =  0 Multiplicity = 1

                         Standard orientation:
 ---------------------------------------------------------------------
 Center     Atomic      Atomic             Coordinates (Angstroms)
 Number     Number       Type             X           Y           Z
 ---------------------------------------------------------------------
      1          6           0        0.022785    0.005888   -0.001839
      2          1           0        1.087041   -0.231541   -0.065916
      3          1           0       -0.462703   -0.482700    0.860692
      4          1           0       -0.572570   -0.404857   -0.839467
      5          1           0       -0.188477    1.083772    0.055726
 ---------------------------------------------------------------------

 SCF Done:  E(UB3LYP) =  -40.5181632372     A.U. after    8 cycles

 The electronic state is 1-A.
 Alpha  occ. eigenvalues --  -10.17545  -0.69466  -0.40729  -0.39442  -0.37822
 Alpha virt. eigenvalues --    0.01638   0.05969   0.06131   0.06317   0.16857
 Alpha virt. eigenvalues --    0.17908   0.18710   0.27374   0.64601   0.64796
 Alpha virt. eigenvalues --    0.64957   0.90294   0.92716   0.94566   1.06542

  Beta  occ. eigenvalues --  -10.17545  -0.69466  -0.40729  -0.39442  -0.37822
  Beta virt. eigenvalues --    0.01638   0.05969   0.06131   0.06317   0.16857
  Beta virt. eigenvalues --    0.17908   0.18710   0.27374   0.64601   0.64796
  Beta virt. eigenvalues --    0.64957   0.90294   0.92716   0.94566   1.06542

 Mulliken charges and spin densities:
               1          2
     1  C   -0.798141  -0.000000
     2  H    0.203142   0.000000
     3  H    0.197571   0.000000
     4  H    0.197067   0.000000
     5  H    0.200361   0.000000
 Sum of Mulliken charges =   0.00000  -0.00000

 Dipole moment (field-independent basis, Debye):
    X=             -0.0739    Y=             -0.0255    Z=              0.0094  Tot=              0.0787
 Quadrupole moment (field-independent basis, Debye-Ang):
   XX=             -8.2583   YY=             -8.5246   ZZ=             -8.8611
   XY=             -0.0232   XZ=             -0.0095   YZ=              0.0014

 Normal termination of Gaussian 16 at Thu Oct 12 15:27:24 2023.
