 Gaussian 16, Revision A.03,
 Gaussian 16:  ES64L-G16RevA.03 25-Dec-2016

 ------------------
 # ub3lyp/6-31+g(d)
 ------------------

 ----------------------
 tmpdir/M3_conf_0_1.gjf
 ----------------------
 Symbolic Z-matrix:
 Charge =  0 Multiplicity = 1

                         Standard orientation:
 ---------------------------------------------------------------------
 Center     Atomic      Atomic             Coordinates (Angstroms)
 Number     Number       Type             X           Y           Z
 ---------------------------------------------------------------------
      1          6           0       -0.892287    0.105886   -0.008431
      2          6           0       -2.394187    0.038003    0.005632
      3          6           0       -0.275923   -1.154129   -0.014933
      4          6           0       -0.121877    1.257651   -0.000791
      5          6           0        1.107860   -1.257956    0.003577
      6          6           0        1.271148    1.153698    0.000281
      7          1           0       -0.599151    2.234355    0.005795
      8          6           0        1.881794   -0.096544    0.003379
      9          1           0        1.582993   -2.235702    0.010291
     10          1           0        1.878870    2.053729    0.000496
     11          1           0        2.965377   -0.170376    0.005194
     12          1           0       -2.706365   -0.558118    0.884384
     13          1           0       -2.867318    1.020978   -0.045290
     14          1           0       -2.714140   -0.637361   -0.809553
     15          1           0       -0.999429   -1.987150    0.016399
 ---------------------------------------------------------------------

 SCF Done:  E(UB3LYP) =  -271.569477307     A.U. after   12 cycles

 The electronic state is 1-A.
 Alpha  occ. eigenvalues --  -10.19877 -10.19520 -10.19411 -10.19148 -10.19142
 Alpha  occ. eigenvalues --  -10.19062 -10.18929  -0.86119  -0.77726  -0.74831
 Alpha  occ. eigenvalues --   -0.68645  -0.61073  -0.58356  -0.51364  -0.46706
 Alpha  occ. eigenvalues --   -0.45583  -0.42494  -0.41666  -0.40770  -0.39894
 Alpha  occ. eigenvalues --   -0.35467  -0.34753  -0.33848  -0.25578  -0.24256
 Alpha virt. eigenvalues --   -0.01532  -0.00656   0.00558   0.01917   0.02489
 Alpha virt. eigenvalues --    0.04251   0.04667   0.05171   0.06551   0.06912
 Alpha virt. eigenvalues --    0.07770   0.08227   0.08926   0.10347   0.12187

  Beta  occ. eigenvalues --  -10.19877 -10.19520 -10.19411 -10.19148 -10.19142
  Beta  occ. eigenvalues --  -10.19062 -10.18929  -0.86119  -0.77726  -0.74831
  Beta  occ. eigenvalues --   -0.68645  -0.61073  -0.58356  -0.51364  -0.46706
  Beta  occ. eigenvalues --   -0.45583  -0.42494  -0.41666  -0.40770  -0.39894
  Beta  occ. eigenvalues --   -0.35467  -0.34753  -0.33848  -0.25578  -0.24256
  Beta virt. eigenvalues --   -0.01532  -0.00656   0.00558   0.01917   0.02489
  Beta virt. eigenvalues --    0.04251   0.04667   0.05171   0.06551   0.06912
  Beta virt. eigenvalues --    0.07770   0.08227   0.08926   0.10347   0.12187

 Mulliken charges and spin densities:
               1          2
     1  C    0.523959  -0.000000
     2  C   -0.995614   0.000000
     3  C    0.100819   0.000000
     4  C   -0.700678   0.000000
     5  C   -0.099062  -0.000000
     6  C   -0.177377  -0.000000
     7  H    0.172448  -0.000000
     8  C   -0.176142   0.000000
     9  H    0.177643   0.000000
    10  H    0.176514   0.000000
    11  H    0.174886  -0.000000
    12  H    0.225308   0.000000
    13  H    0.201345  -0.000000
    14  H    0.222804   0.000000
    15  H    0.173146  -0.000000
 Sum of Mulliken charges =  -0.00000  -0.00000

 Dipole moment (field-independent basis, Debye):
    X=             -0.4092    Y=             -0.0737    Z=              0.0410  Tot=              0.4178
 Quadrupole moment (field-independent basis, Debye-Ang):
   XX=            -39.1141   YY=            -39.1282   ZZ=            -46.8144
   XY=              0.3321   XZ=             -0.0253   YZ=             -0.0896

 Normal termination of Gaussian 16 at Thu Oct 12 15:28:54 2023.
