 Gaussian 16, Revision A.03,
 Gaussian 16:  ES64L-G16RevA.03 25-Dec-2016

 ------------------
 # ub3lyp/6-31+g(d)
 ------------------

 ----------------------
 tmpdir/M3_conf_0_4.gjf
 ----------------------
 Symbolic Z-matrix:
 Charge =  0 Multiplicity = 1

                         Standard orientation:
 ---------------------------------------------------------------------
 Center     Atomic      Atomic             Coordinates (Angstroms)
 Number     Number       Type             X           Y           Z
 ---------------------------------------------------------------------
      1          6           0       -1.128695   -0.120455    0.000873
      2          6           0        0.265842    0.468995   -0.002680
      3          1           0       -1.194327   -0.844402   -0.829765
      4          1           0       -1.201760   -0.795195    0.875042
      5          1           0       -1.923302    0.627935   -0.039643
      6          8           0        1.134138   -0.327676   -0.001351
      7          1           0        0.423400    1.541826    0.016018
 ---------------------------------------------------------------------

 SCF Done:  E(UB3LYP) =  -153.829543038     A.U. after   11 cycles

 The electronic state is 1-A.
 Alpha  occ. eigenvalues --  -19.16229 -10.28660 -10.19918  -1.08045  -0.74960
 Alpha  occ. eigenvalues --   -0.59952  -0.49086  -0.44973  -0.44552  -0.41567
 Alpha  occ. eigenvalues --   -0.36905  -0.26571
 Alpha virt. eigenvalues --   -0.03898   0.01244   0.02392   0.04743   0.05072
 Alpha virt. eigenvalues --    0.07429   0.07680   0.09405   0.14227   0.16986
 Alpha virt. eigenvalues --    0.17539   0.20580   0.23124   0.24891   0.25627

  Beta  occ. eigenvalues --  -19.16229 -10.28660 -10.19918  -1.08045  -0.74960
  Beta  occ. eigenvalues --   -0.59952  -0.49086  -0.44973  -0.44552  -0.41567
  Beta  occ. eigenvalues --   -0.36905  -0.26571
  Beta virt. eigenvalues --   -0.03898   0.01244   0.02392   0.04743   0.05072
  Beta virt. eigenvalues --    0.07429   0.07680   0.09405   0.14227   0.16986
  Beta virt. eigenvalues --    0.17539   0.20580   0.23124   0.24891   0.25627

 Mulliken charges and spin densities:
               1          2
     1  C   -0.734759   0.000000
     2  C    0.247503  -0.000000
     3  H    0.237830  -0.000000
     4  H    0.236880  -0.000000
     5  H    0.196201   0.000000
     6  O   -0.346277   0.000000
     7  H    0.162622  -0.000000
 Sum of Mulliken charges =  -0.00000  -0.00000

 Dipole moment (field-independent basis, Debye):
    X=             -2.1440    Y=              1.3120    Z=              0.0086  Tot=              2.5136
 Quadrupole moment (field-independent basis, Debye-Ang):
   XX=            -21.5561   YY=            -17.7652   ZZ=            -18.1488
   XY=              1.5139   XZ=              0.0254   YZ=             -0.0288

 Normal termination of Gaussian 16 at Thu Oct 12 15:27:31 2023.
