 Gaussian 16, Revision A.03,
 Gaussian 16:  ES64L-G16RevA.03 25-Dec-2016

 ------------------
 # ub3lyp/6-31+g(d)
 ------------------

 -----------------------
 tmpdir/M3_conf_0_15.gjf
 -----------------------
 Symbolic Z-matrix:
 Charge =  0 Multiplicity = 1

                         Standard orientation:
 ---------------------------------------------------------------------
 Center     Atomic      Atomic             Coordinates (Angstroms)
 Number     Number       Type             X           Y           Z
 ---------------------------------------------------------------------
      1          6           0       -0.889374    0.106555   -0.008511
      2          6           0       -2.404587    0.038623    0.005614
      3          1           0       -2.901442    1.009867   -0.044528
      4          6           0       -0.273469   -1.153677   -0.014952
      5          6           0       -0.118547    1.258040   -0.000866
      6          6           0        1.110275   -1.258009    0.003615
      7          6           0        1.274441    1.153573    0.000269
      8          1           0       -0.595466    2.234920    0.005673
      9          6           0        1.884632   -0.096888    0.003423
     10          1           0        1.585053   -2.235930    0.010379
     11          1           0        1.882490    2.053396    0.000488
     12          1           0        2.968188   -0.171114    0.005281
     13          1           0       -2.717019   -0.557359    0.884361
     14          1           0       -2.724750   -0.636646   -0.809570
     15          1           0       -0.997279   -1.986442    0.016367
 ---------------------------------------------------------------------

 SCF Done:  E(UB3LYP) =  -271.569900818     A.U. after   12 cycles

 The electronic state is 1-A.
 Alpha  occ. eigenvalues --  -10.19998 -10.19535 -10.19421 -10.19167 -10.19161
 Alpha  occ. eigenvalues --  -10.19096 -10.19010  -0.86084  -0.77556  -0.74838
 Alpha  occ. eigenvalues --   -0.68644  -0.61044  -0.58407  -0.51398  -0.46586
 Alpha  occ. eigenvalues --   -0.45569  -0.42493  -0.41538  -0.40749  -0.39863
 Alpha  occ. eigenvalues --   -0.35504  -0.34722  -0.33874  -0.25585  -0.24311
 Alpha virt. eigenvalues --   -0.01517  -0.00665   0.00560   0.01897   0.02500
 Alpha virt. eigenvalues --    0.04228   0.04673   0.05174   0.06555   0.06928
 Alpha virt. eigenvalues --    0.07759   0.08225   0.08935   0.10347   0.12194

  Beta  occ. eigenvalues --  -10.19998 -10.19535 -10.19421 -10.19167 -10.19161
  Beta  occ. eigenvalues --  -10.19096 -10.19010  -0.86084  -0.77556  -0.74838
  Beta  occ. eigenvalues --   -0.68644  -0.61044  -0.58407  -0.51398  -0.46586
  Beta  occ. eigenvalues --   -0.45569  -0.42493  -0.41538  -0.40749  -0.39863
  Beta  occ. eigenvalues --   -0.35504  -0.34722  -0.33874  -0.25585  -0.24311
  Beta virt. eigenvalues --   -0.01517  -0.00665   0.00560   0.01897   0.02500
  Beta virt. eigenvalues --    0.04228   0.04673   0.05174   0.06555   0.06928
  Beta virt. eigenvalues --    0.07759   0.08225   0.08935   0.10347   0.12194

 Mulliken charges and spin densities:
               1          2
     1  C    0.520878  -0.000000
     2  C   -0.989601   0.000000
     3  H    0.202840   0.000000
     4  C    0.089786   0.000000
     5  C   -0.699017   0.000000
     6  C   -0.098360  -0.000000
     7  C   -0.173512  -0.000000
     8  H    0.173071  -0.000000
     9  C   -0.176662   0.000000
    10  H    0.177817   0.000000
    11  H    0.176615   0.000000
    12  H    0.174996  -0.000000
    13  H    0.224948  -0.000000
    14  H    0.222561   0.000000
    15  H    0.173639   0.000000
 Sum of Mulliken charges =  -0.00000  -0.00000

 Dipole moment (field-independent basis, Debye):
    X=             -0.4073    Y=             -0.0699    Z=              0.0408  Tot=              0.4153
 Quadrupole moment (field-independent basis, Debye-Ang):
   XX=            -39.0087   YY=            -39.1416   ZZ=            -46.8349
   XY=              0.3015   XZ=             -0.0241   YZ=             -0.0880

 Normal termination of Gaussian 16 at Thu Oct 12 15:29:41 2023.
