 Gaussian 16, Revision A.03,
 Gaussian 16:  ES64L-G16RevA.03 25-Dec-2016

 ------------------
 # ub3lyp/6-31+g(d)
 ------------------

 -----------------------
 tmpdir/M3_conf_0_19.gjf
 -----------------------
 Symbolic Z-matrix:
 Charge =  0 Multiplicity = 1

                         Standard orientation:
 ---------------------------------------------------------------------
 Center     Atomic      Atomic             Coordinates (Angstroms)
 Number     Number       Type             X           Y           Z
 ---------------------------------------------------------------------
      1          1           0        1.946911    0.598496   -0.037234
      2          6           0        1.140500   -0.137100   -0.001435
      3          6           0       -0.261979    0.468623   -0.019584
      4          1           0        1.190126   -0.869747   -0.817747
      5          1           0        1.086963   -0.688313    0.956845
      6          8           0       -1.135885   -0.321626    0.000930
      7          1           0       -0.408045    1.543432    0.016805
 ---------------------------------------------------------------------

 SCF Done:  E(UB3LYP) =  -153.828695559     A.U. after   11 cycles

 The electronic state is 1-A.
 Alpha  occ. eigenvalues --  -19.16288 -10.28703 -10.19974  -1.08090  -0.74917
 Alpha  occ. eigenvalues --   -0.59703  -0.49039  -0.45799  -0.43967  -0.41158
 Alpha  occ. eigenvalues --   -0.37373  -0.26513
 Alpha virt. eigenvalues --   -0.03717   0.01249   0.02494   0.04724   0.04943
 Alpha virt. eigenvalues --    0.07215   0.07799   0.09359   0.14246   0.16872
 Alpha virt. eigenvalues --    0.17460   0.20418   0.22533   0.25136   0.25228

  Beta  occ. eigenvalues --  -19.16288 -10.28703 -10.19974  -1.08090  -0.74917
  Beta  occ. eigenvalues --   -0.59703  -0.49039  -0.45799  -0.43967  -0.41158
  Beta  occ. eigenvalues --   -0.37373  -0.26513
  Beta virt. eigenvalues --   -0.03717   0.01249   0.02494   0.04724   0.04943
  Beta virt. eigenvalues --    0.07215   0.07799   0.09359   0.14246   0.16872
  Beta virt. eigenvalues --    0.17460   0.20418   0.22533   0.25136   0.25228

 Mulliken charges and spin densities:
               1          2
     1  H    0.197180   0.000000
     2  C   -0.707944   0.000000
     3  C    0.224160  -0.000000
     4  H    0.235729  -0.000000
     5  H    0.230762  -0.000000
     6  O   -0.341325  -0.000000
     7  H    0.161438   0.000000
 Sum of Mulliken charges =  -0.00000  -0.00000

 Dipole moment (field-independent basis, Debye):
    X=              2.1075    Y=              1.3775    Z=              0.0068  Tot=              2.5177
 Quadrupole moment (field-independent basis, Debye-Ang):
   XX=            -21.7052   YY=            -18.0037   ZZ=            -17.9207
   XY=             -1.2541   XZ=             -0.0971   YZ=              0.0475

 Normal termination of Gaussian 16 at Thu Oct 12 15:29:21 2023.
