 Gaussian 16, Revision A.03,
 Gaussian 16:  ES64L-G16RevA.03 25-Dec-2016

 ------------------
 # ub3lyp/6-31+g(d)
 ------------------

 -----------------------
 tmpdir/M3_conf_0_28.gjf
 -----------------------
 Symbolic Z-matrix:
 Charge =  0 Multiplicity = 3

                         Standard orientation:
 ---------------------------------------------------------------------
 Center     Atomic      Atomic             Coordinates (Angstroms)
 Number     Number       Type             X           Y           Z
 ---------------------------------------------------------------------
      1          6           0        0.741274   -0.053844   -0.099982
      2          6           0       -0.735322   -0.053307    0.092587
      3          1           0       -1.406565   -0.636464   -0.538544
      4          1           0        1.107260    0.973582   -0.288264
      5          1           0        1.365631   -0.661334    0.557176
      6          1           0       -1.102040    0.967122    0.314001
 ---------------------------------------------------------------------

 SCF Done:  E(UB3LYP) =  -78.4733572189     A.U. after   11 cycles

 The electronic state is 3-A.
 Alpha  occ. eigenvalues --  -10.21442 -10.21319  -0.76527  -0.60840  -0.45905
 Alpha  occ. eigenvalues --   -0.41105  -0.40576  -0.27660  -0.19104
 Alpha virt. eigenvalues --    0.02028   0.03026   0.05145   0.06056   0.08497
 Alpha virt. eigenvalues --    0.09152   0.10032   0.15133   0.17362   0.19549
 Alpha virt. eigenvalues --    0.24560   0.26016   0.28191   0.61756   0.64777

  Beta  occ. eigenvalues --  -10.20075 -10.19953  -0.72310  -0.57244  -0.43923
  Beta  occ. eigenvalues --   -0.38871  -0.38693
  Beta virt. eigenvalues --   -0.11686  -0.03329   0.02513   0.03342   0.05421
  Beta virt. eigenvalues --    0.06818   0.08551   0.09981   0.12043   0.15715
  Beta virt. eigenvalues --    0.18934   0.21579   0.25936   0.27774   0.30736

 Mulliken charges and spin densities:
               1          2
     1  C   -0.384445   1.018490
     2  C   -0.381146   1.026349
     3  H    0.198168  -0.012125
     4  H    0.185596  -0.011438
     5  H    0.197518  -0.010686
     6  H    0.184309  -0.010589
 Sum of Mulliken charges =  -0.00000   2.00000

 Dipole moment (field-independent basis, Debye):
    X=             -0.0158    Y=              0.5574    Z=              0.0281  Tot=              0.5583
 Quadrupole moment (field-independent basis, Debye-Ang):
   XX=            -14.0710   YY=            -13.2694   ZZ=            -15.5065
   XY=              0.0190   XZ=              1.4099   YZ=             -0.0097

 Normal termination of Gaussian 16 at Thu Oct 12 15:29:51 2023.
