 Gaussian 16, Revision A.03,
 Gaussian 16:  ES64L-G16RevA.03 25-Dec-2016

 ------------------
 # ub3lyp/6-31+g(d)
 ------------------

 -----------------------
 tmpdir/M3_conf_0_14.gjf
 -----------------------
 Symbolic Z-matrix:
 Charge =  0 Multiplicity = 2

                         Standard orientation:
 ---------------------------------------------------------------------
 Center     Atomic      Atomic             Coordinates (Angstroms)
 Number     Number       Type             X           Y           Z
 ---------------------------------------------------------------------
      1          6           0        0.448273    0.308081    0.206417
      2          6           0        1.944353    0.474416    0.392851
      3          6           0        2.765670   -0.316075   -0.626169
      4          6           0        0.024974   -1.028555    0.248847
      5          6           0       -0.471126    1.323055   -0.004991
      6          6           0       -1.312992   -1.346633    0.062699
      7          6           0       -1.820573    1.004649   -0.175103
      8          1           0       -0.143280    2.358969   -0.039471
      9          6           0       -2.238331   -0.322151   -0.142309
     10          1           0       -1.636722   -2.384181    0.084403
     11          1           0       -2.545412    1.797310   -0.335357
     12          1           0       -3.288891   -0.562964   -0.276243
     13          1           0        2.259162    1.519943    0.414059
     14          1           0        2.240510   -0.083638    1.300535
     15          1           0        2.368939   -1.311971   -0.738736
     16          1           0        3.846189   -0.174710   -0.569308
     17          1           0        0.858015   -1.739481    0.386667
 ---------------------------------------------------------------------

 SCF Done:  E(UB3LYP) =  -310.204145435     A.U. after   17 cycles

 The electronic state is 2-A.
 Alpha  occ. eigenvalues --  -10.20403 -10.20218 -10.20126 -10.19745 -10.19623
 Alpha  occ. eigenvalues --  -10.19435 -10.19400 -10.19358  -0.86523  -0.79692
 Alpha  occ. eigenvalues --   -0.75105  -0.72592  -0.63095  -0.61360  -0.57656
 Alpha  occ. eigenvalues --   -0.52060  -0.47461  -0.46083  -0.44046  -0.43109
 Alpha  occ. eigenvalues --   -0.42130  -0.40077  -0.38079  -0.36050  -0.34869
 Alpha  occ. eigenvalues --   -0.33735  -0.25769  -0.24893  -0.21891
 Alpha virt. eigenvalues --   -0.01755  -0.01072   0.00531   0.01838   0.02064
 Alpha virt. eigenvalues --    0.03554   0.03964   0.04517   0.06134   0.06530
 Alpha virt. eigenvalues --    0.06985   0.07362   0.07873   0.09655   0.10333

  Beta  occ. eigenvalues --  -10.20247 -10.20100 -10.19743 -10.19620 -10.19438
  Beta  occ. eigenvalues --  -10.19404 -10.19363 -10.19012  -0.86463  -0.79072
  Beta  occ. eigenvalues --   -0.75099  -0.71627  -0.61883  -0.61111  -0.56973
  Beta  occ. eigenvalues --   -0.51980  -0.47103  -0.45900  -0.43583  -0.42771
  Beta  occ. eigenvalues --   -0.41572  -0.39692  -0.37670  -0.35772  -0.34663
  Beta  occ. eigenvalues --   -0.33657  -0.25773  -0.24646
  Beta virt. eigenvalues --   -0.06512  -0.01723  -0.01022   0.00576   0.01902
  Beta virt. eigenvalues --    0.02106   0.03664   0.03988   0.04630   0.06341
  Beta virt. eigenvalues --    0.06636   0.07060   0.07459   0.08116   0.09840

 Mulliken charges and spin densities:
               1          2
     1  C    0.356813   0.097196
     2  C   -0.610141  -0.090474
     3  C   -0.356845   1.086994
     4  C   -0.149205  -0.032415
     5  C   -0.322909  -0.025746
     6  C   -0.194965   0.001475
     7  C   -0.232035  -0.000187
     8  H    0.173968   0.000239
     9  C   -0.147881  -0.008614
    10  H    0.178487  -0.000095
    11  H    0.177887   0.000011
    12  H    0.176001   0.000192
    13  H    0.200104   0.007981
    14  H    0.231623   0.049241
    15  H    0.173367  -0.044231
    16  H    0.183380  -0.041718
    17  H    0.162350   0.000152
 Sum of Mulliken charges =  -0.00000   1.00000

 Dipole moment (field-independent basis, Debye):
    X=              0.2689    Y=             -0.0593    Z=              0.6103  Tot=              0.6696
 Quadrupole moment (field-independent basis, Debye-Ang):
   XX=            -44.7192   YY=            -44.9883   ZZ=            -54.2277
   XY=             -0.0609   XZ=              2.8173   YZ=             -0.4277

 Normal termination of Gaussian 16 at Thu Oct 12 15:29:25 2023.
