 Gaussian 16, Revision A.03,
 Gaussian 16:  ES64L-G16RevA.03 25-Dec-2016

 ------------------
 # ub3lyp/6-31+g(d)
 ------------------

 -----------------------
 tmpdir/M3_conf_0_26.gjf
 -----------------------
 Symbolic Z-matrix:
 Charge =  0 Multiplicity = 3

                         Standard orientation:
 ---------------------------------------------------------------------
 Center     Atomic      Atomic             Coordinates (Angstroms)
 Number     Number       Type             X           Y           Z
 ---------------------------------------------------------------------
      1          6           0       -1.172235   -0.245202   -0.040408
      2          6           0        0.072433    0.641622   -0.080095
      3          6           0        1.293335   -0.196128    0.077997
      4          1           0       -1.174170   -0.557874    1.018185
      5          1           0       -2.089668    0.278549   -0.318121
      6          1           0       -0.964762   -1.132843   -0.655898
      7          1           0       -0.007671    1.599908    0.433963
      8          1           0        1.030489   -1.189065    0.490306
      9          1           0        2.044589   -0.200429   -0.713400
 ---------------------------------------------------------------------

 SCF Done:  E(UB3LYP) =  -117.790623160     A.U. after   13 cycles

 The electronic state is 3-A.
 Alpha  occ. eigenvalues --  -10.20808 -10.20716 -10.19508  -0.79696  -0.68306
 Alpha  occ. eigenvalues --   -0.57737  -0.46349  -0.44045  -0.40753  -0.38114
 Alpha  occ. eigenvalues --   -0.37293  -0.25912  -0.17873
 Alpha virt. eigenvalues --    0.01614   0.03144   0.03572   0.05039   0.06660
 Alpha virt. eigenvalues --    0.07919   0.08500   0.09262   0.09606   0.11848
 Alpha virt. eigenvalues --    0.13321   0.15670   0.17970   0.21225   0.22749

  Beta  occ. eigenvalues --  -10.19468 -10.19460 -10.19364  -0.77011  -0.65886
  Beta  occ. eigenvalues --   -0.54932  -0.45080  -0.42136  -0.39540  -0.36673
  Beta  occ. eigenvalues --   -0.35983
  Beta virt. eigenvalues --   -0.10401  -0.02808   0.01873   0.03387   0.03904
  Beta virt. eigenvalues --    0.05354   0.06959   0.07936   0.08883   0.09830
  Beta virt. eigenvalues --    0.11072   0.12269   0.14083   0.16088   0.18634

 Mulliken charges and spin densities:
               1          2
     1  C   -0.812288  -0.029192
     2  C    0.044624   0.964809
     3  C   -0.429729   1.034365
     4  H    0.215792   0.053746
     5  H    0.208277   0.011021
     6  H    0.210460   0.008496
     7  H    0.185108  -0.014897
     8  H    0.181783  -0.009793
     9  H    0.195973  -0.018554
 Sum of Mulliken charges =   0.00000   2.00000

 Dipole moment (field-independent basis, Debye):
    X=             -0.5822    Y=             -0.4308    Z=              0.0965  Tot=              0.7307
 Quadrupole moment (field-independent basis, Debye-Ang):
   XX=            -21.4704   YY=            -20.6039   ZZ=            -21.6779
   XY=             -0.6175   XZ=             -1.1585   YZ=              0.5967

 Normal termination of Gaussian 16 at Thu Oct 12 15:29:42 2023.
