 Gaussian 16, Revision A.03,
 Gaussian 16:  ES64L-G16RevA.03 25-Dec-2016

 ------------------
 # ub3lyp/6-31+g(d)
 ------------------

 -----------------------
 tmpdir/M3_conf_0_36.gjf
 -----------------------
 Symbolic Z-matrix:
 Charge =  0 Multiplicity = 1

                         Standard orientation:
 ---------------------------------------------------------------------
 Center     Atomic      Atomic             Coordinates (Angstroms)
 Number     Number       Type             X           Y           Z
 ---------------------------------------------------------------------
      1          6           0       -1.133175   -0.117774    0.000875
      2          6           0        0.268444    0.469025   -0.002587
      3          1           0        0.451346    1.537829    0.015845
      4          1           0       -1.201225   -0.841484   -0.829780
      5          1           0       -1.208611   -0.792267    0.875034
      6          1           0       -1.925211    0.633325   -0.039690
      7          8           0        1.134010   -0.330614   -0.001392
 ---------------------------------------------------------------------

 SCF Done:  E(UB3LYP) =  -153.829591646     A.U. after   11 cycles

 The electronic state is 1-A.
 Alpha  occ. eigenvalues --  -19.16201 -10.28673 -10.19995  -1.08028  -0.74846
 Alpha  occ. eigenvalues --   -0.59928  -0.49067  -0.44919  -0.44519  -0.41595
 Alpha  occ. eigenvalues --   -0.36937  -0.26545
 Alpha virt. eigenvalues --   -0.03879   0.01244   0.02375   0.04757   0.05088
 Alpha virt. eigenvalues --    0.07413   0.07683   0.09394   0.14209   0.16957
 Alpha virt. eigenvalues --    0.17519   0.20508   0.23044   0.24884   0.25609

  Beta  occ. eigenvalues --  -19.16201 -10.28673 -10.19995  -1.08028  -0.74846
  Beta  occ. eigenvalues --   -0.59928  -0.49067  -0.44919  -0.44519  -0.41595
  Beta  occ. eigenvalues --   -0.36937  -0.26545
  Beta virt. eigenvalues --   -0.03879   0.01244   0.02375   0.04757   0.05088
  Beta virt. eigenvalues --    0.07413   0.07683   0.09394   0.14209   0.16957
  Beta virt. eigenvalues --    0.17519   0.20508   0.23044   0.24884   0.25609

 Mulliken charges and spin densities:
               1          2
     1  C   -0.734029  -0.000000
     2  C    0.245056   0.000000
     3  H    0.162369  -0.000000
     4  H    0.237772  -0.000000
     5  H    0.236783  -0.000000
     6  H    0.196753  -0.000000
     7  O   -0.344704  -0.000000
 Sum of Mulliken charges =  -0.00000  -0.00000

 Dipole moment (field-independent basis, Debye):
    X=             -2.1347    Y=              1.3199    Z=              0.0086  Tot=              2.5098
 Quadrupole moment (field-independent basis, Debye-Ang):
   XX=            -21.5163   YY=            -17.7809   ZZ=            -18.1570
   XY=              1.5624   XZ=              0.0262   YZ=             -0.0286

 Normal termination of Gaussian 16 at Thu Oct 12 15:30:01 2023.
