 Gaussian 16, Revision A.03,
 Gaussian 16:  ES64L-G16RevA.03 25-Dec-2016

 ------------------
 # ub3lyp/6-31+g(d)
 ------------------

 ----------------------
 tmpdir/M3_conf_0_2.gjf
 ----------------------
 Symbolic Z-matrix:
 Charge =  0 Multiplicity = 2

                         Standard orientation:
 ---------------------------------------------------------------------
 Center     Atomic      Atomic             Coordinates (Angstroms)
 Number     Number       Type             X           Y           Z
 ---------------------------------------------------------------------
      1          6           0        0.711585   -0.012290    0.002571
      2          6           0       -0.807585   -0.005754   -0.107968
      3          1           0        0.843128    0.037714    1.097367
      4          1           0        1.176227   -0.901594   -0.429128
      5          1           0        1.077756    0.931934   -0.426547
      6          1           0       -1.207315    0.955106    0.172799
      7          1           0       -1.313793   -0.914899    0.217894
 ---------------------------------------------------------------------

 SCF Done:  E(UB3LYP) =  -79.1547164345     A.U. after   12 cycles

 The electronic state is 2-A.
 Alpha  occ. eigenvalues --  -10.19897 -10.18841  -0.76079  -0.60668  -0.46080
 Alpha  occ. eigenvalues --   -0.42308  -0.37236  -0.36825  -0.21417
 Alpha virt. eigenvalues --    0.01863   0.03314   0.04990   0.05801   0.08142
 Alpha virt. eigenvalues --    0.08857   0.09758   0.14824   0.17198   0.19669
 Alpha virt. eigenvalues --    0.22893   0.23391   0.25056   0.30354   0.61880

  Beta  occ. eigenvalues --  -10.18879 -10.18508  -0.74486  -0.58439  -0.45463
  Beta  occ. eigenvalues --   -0.40850  -0.36431  -0.36283
  Beta virt. eigenvalues --   -0.05903   0.02031   0.03498   0.05006   0.06234
  Beta virt. eigenvalues --    0.08122   0.08850   0.11116   0.15140   0.17841
  Beta virt. eigenvalues --    0.19785   0.24124   0.24397   0.26012   0.30940

 Mulliken charges and spin densities:
               1          2
     1  C   -0.703197  -0.093474
     2  C   -0.273039   1.108026
     3  H    0.207308   0.052319
     4  H    0.206197   0.009068
     5  H    0.204700   0.008861
     6  H    0.178234  -0.043301
     7  H    0.179796  -0.041499
 Sum of Mulliken charges =  -0.00000   1.00000

 Dipole moment (field-independent basis, Debye):
    X=              0.3694    Y=              0.0336    Z=              0.6118  Tot=              0.7154
 Quadrupole moment (field-independent basis, Debye-Ang):
   XX=            -15.5084   YY=            -13.6135   ZZ=            -15.5087
   XY=             -0.0172   XZ=             -0.8988   YZ=              0.0199

 Normal termination of Gaussian 16 at Thu Oct 12 15:28:59 2023.
