 Gaussian 16, Revision A.03,
 Gaussian 16:  ES64L-G16RevA.03 25-Dec-2016

 ------------------
 # ub3lyp/6-31+g(d)
 ------------------

 ----------------------
 tmpdir/M3_conf_0_6.gjf
 ----------------------
 Symbolic Z-matrix:
 Charge =  0 Multiplicity = 1

                         Standard orientation:
 ---------------------------------------------------------------------
 Center     Atomic      Atomic             Coordinates (Angstroms)
 Number     Number       Type             X           Y           Z
 ---------------------------------------------------------------------
      1          6           0        0.890006    0.106724   -0.026227
      2          6           0        2.412438    0.029197    0.008483
      3          1           0        2.876138    1.017922   -0.014312
      4          6           0        0.118991    1.260463   -0.006092
      5          6           0        0.277862   -1.155288   -0.013131
      6          6           0       -1.272939    1.154198    0.002068
      7          1           0        0.596113    2.237255   -0.004642
      8          6           0       -1.103873   -1.258719    0.002717
      9          6           0       -1.881015   -0.097288    0.005626
     10          1           0       -1.882709    2.052963    0.005151
     11          1           0       -1.578615   -2.236610    0.014353
     12          1           0       -2.964325   -0.173335    0.012303
     13          1           0        2.574446   -0.513169    0.959473
     14          1           0        2.737052   -0.632388   -0.808042
     15          1           0        0.993079   -1.988361   -0.004943
 ---------------------------------------------------------------------

 SCF Done:  E(UB3LYP) =  -271.568521761     A.U. after   12 cycles

 The electronic state is 1-A.
 Alpha  occ. eigenvalues --  -10.19940 -10.19486 -10.19389 -10.19127 -10.19110
 Alpha  occ. eigenvalues --  -10.19027 -10.18964  -0.86048  -0.77569  -0.74842
 Alpha  occ. eigenvalues --   -0.68559  -0.61005  -0.58264  -0.51283  -0.46498
 Alpha  occ. eigenvalues --   -0.45508  -0.42678  -0.42490  -0.40322  -0.39664
 Alpha  occ. eigenvalues --   -0.35672  -0.34544  -0.33655  -0.25581  -0.24259
 Alpha virt. eigenvalues --   -0.01460  -0.00597   0.00598   0.01991   0.02504
 Alpha virt. eigenvalues --    0.04275   0.04706   0.05091   0.06432   0.06907
 Alpha virt. eigenvalues --    0.07845   0.08208   0.08918   0.10255   0.12359

  Beta  occ. eigenvalues --  -10.19940 -10.19486 -10.19389 -10.19127 -10.19110
  Beta  occ. eigenvalues --  -10.19027 -10.18964  -0.86048  -0.77569  -0.74842
  Beta  occ. eigenvalues --   -0.68559  -0.61005  -0.58264  -0.51283  -0.46498
  Beta  occ. eigenvalues --   -0.45508  -0.42678  -0.42490  -0.40322  -0.39664
  Beta  occ. eigenvalues --   -0.35672  -0.34544  -0.33655  -0.25581  -0.24259
  Beta virt. eigenvalues --   -0.01460  -0.00597   0.00598   0.01991   0.02504
  Beta virt. eigenvalues --    0.04275   0.04706   0.05091   0.06432   0.06907
  Beta virt. eigenvalues --    0.07845   0.08208   0.08918   0.10255   0.12359

 Mulliken charges and spin densities:
               1          2
     1  C    0.415881   0.000000
     2  C   -0.929185  -0.000000
     3  H    0.201144   0.000000
     4  C   -0.649447  -0.000000
     5  C    0.095093  -0.000000
     6  C   -0.174733   0.000000
     7  H    0.172419   0.000000
     8  C   -0.101496   0.000000
     9  C   -0.177704  -0.000000
    10  H    0.176323  -0.000000
    11  H    0.177183  -0.000000
    12  H    0.174659   0.000000
    13  H    0.221882   0.000000
    14  H    0.223371   0.000000
    15  H    0.174608   0.000000
 Sum of Mulliken charges =  -0.00000  -0.00000

 Dipole moment (field-independent basis, Debye):
    X=              0.3958    Y=             -0.0442    Z=              0.0489  Tot=              0.4013
 Quadrupole moment (field-independent basis, Debye-Ang):
   XX=            -39.4668   YY=            -39.2012   ZZ=            -46.6005
   XY=             -0.1646   XZ=             -0.1048   YZ=             -0.0223

 Normal termination of Gaussian 16 at Thu Oct 12 15:28:07 2023.
