 Gaussian 16, Revision A.03,
 Gaussian 16:  ES64L-G16RevA.03 25-Dec-2016

 ------------------
 # ub3lyp/6-31+g(d)
 ------------------

 -----------------------
 tmpdir/M3_conf_0_21.gjf
 -----------------------
 Symbolic Z-matrix:
 Charge =  0 Multiplicity = 2

                         Standard orientation:
 ---------------------------------------------------------------------
 Center     Atomic      Atomic             Coordinates (Angstroms)
 Number     Number       Type             X           Y           Z
 ---------------------------------------------------------------------
      1          6           0        0.010018   -0.008846   -0.081439
      2          1           0        1.062512   -0.063886    0.172531
      3          1           0       -0.486341    0.952608    0.151461
      4          1           0       -0.636280   -0.835644    0.164643
 ---------------------------------------------------------------------

 SCF Done:  E(UB3LYP) =  -39.8379449371     A.U. after   10 cycles

 The electronic state is 2-A.
 Alpha  occ. eigenvalues --  -10.20819  -0.69311  -0.42861  -0.40988  -0.24995
 Alpha virt. eigenvalues --    0.01866   0.05867   0.06080   0.07331   0.17560
 Alpha virt. eigenvalues --    0.19268   0.20987   0.63731   0.64038   0.64699
 Alpha virt. eigenvalues --    0.85332   0.91934   0.95527   1.00033   1.63201

  Beta  occ. eigenvalues --  -10.19398  -0.65618  -0.41834  -0.39951
  Beta virt. eigenvalues --   -0.08415   0.02335   0.05871   0.06085   0.09764
  Beta virt. eigenvalues --    0.18392   0.20165   0.22391   0.64739   0.65105
  Beta virt. eigenvalues --    0.71398   0.87791   0.92577   0.96345   1.02011

 Mulliken charges and spin densities:
               1          2
     1  C   -0.579364   1.125136
     2  H    0.196527  -0.040646
     3  H    0.187572  -0.042784
     4  H    0.195264  -0.041706
 Sum of Mulliken charges =  -0.00000   1.00000

 Dipole moment (field-independent basis, Debye):
    X=             -0.0260    Y=              0.0076    Z=              0.5482  Tot=              0.5488
 Quadrupole moment (field-independent basis, Debye-Ang):
   XX=             -7.3106   YY=             -7.6412   ZZ=             -9.1258
   XY=              0.0388   XZ=              0.0050   YZ=             -0.0070

 Normal termination of Gaussian 16 at Thu Oct 12 15:29:27 2023.
