 Gaussian 16, Revision A.03,
 Gaussian 16:  ES64L-G16RevA.03 25-Dec-2016

 ------------------
 # ub3lyp/6-31+g(d)
 ------------------

 -----------------------
 tmpdir/M3_conf_0_16.gjf
 -----------------------
 Symbolic Z-matrix:
 Charge =  0 Multiplicity = 1

                         Standard orientation:
 ---------------------------------------------------------------------
 Center     Atomic      Atomic             Coordinates (Angstroms)
 Number     Number       Type             X           Y           Z
 ---------------------------------------------------------------------
      1          6           0       -0.087423    0.522364    0.215224
      2          6           0       -1.520576    0.954331    0.460499
      3          6           0       -2.519875    0.170789   -0.388993
      4          6           0        0.102468   -0.864156    0.310482
      5          6           0        0.984862    1.354220   -0.064734
      6          6           0        1.366443   -1.412003    0.142524
      7          6           0        2.254174    0.801539   -0.251062
      8          1           0        0.838428    2.428979   -0.137130
      9          6           0        2.443499   -0.572996   -0.147072
     10          1           0        1.513046   -2.485740    0.228396
     11          1           0        3.096340    1.449158   -0.476289
     12          1           0        3.433174   -0.996208   -0.292131
     13          1           0       -1.829864    0.581509    1.455661
     14          1           0       -1.671968    2.028029    0.330327
     15          8           0       -2.426655   -1.000343   -0.297321
     16          1           0       -3.285860    0.680379   -0.964719
     17          1           0       -0.821483   -1.407890    0.573251
 ---------------------------------------------------------------------

 SCF Done:  E(UB3LYP) =  -384.869729507     A.U. after   15 cycles

 The electronic state is 1-A.
 Alpha  occ. eigenvalues --  -19.16936 -10.29288 -10.21008 -10.20434 -10.19628
 Alpha  occ. eigenvalues --  -10.19462 -10.19242 -10.19159 -10.18092  -1.09236
 Alpha  occ. eigenvalues --   -0.86287  -0.79103  -0.74773  -0.71788  -0.62098
 Alpha  occ. eigenvalues --   -0.60660  -0.57991  -0.51442  -0.50284  -0.47551
 Alpha  occ. eigenvalues --   -0.46478  -0.45288  -0.43660  -0.41569  -0.40708
 Alpha  occ. eigenvalues --   -0.38435  -0.36400  -0.34985  -0.34013  -0.27198
 Alpha  occ. eigenvalues --   -0.25237  -0.24488
 Alpha virt. eigenvalues --   -0.05025  -0.01146  -0.00935   0.00532   0.01482
 Alpha virt. eigenvalues --    0.02796   0.02823   0.04340   0.04442   0.05765
 Alpha virt. eigenvalues --    0.06595   0.06752   0.07606   0.07799   0.09804

  Beta  occ. eigenvalues --  -19.16936 -10.29288 -10.21008 -10.20434 -10.19628
  Beta  occ. eigenvalues --  -10.19462 -10.19242 -10.19159 -10.18092  -1.09236
  Beta  occ. eigenvalues --   -0.86287  -0.79103  -0.74773  -0.71788  -0.62098
  Beta  occ. eigenvalues --   -0.60660  -0.57991  -0.51442  -0.50284  -0.47551
  Beta  occ. eigenvalues --   -0.46478  -0.45288  -0.43660  -0.41569  -0.40708
  Beta  occ. eigenvalues --   -0.38435  -0.36400  -0.34985  -0.34013  -0.27198
  Beta  occ. eigenvalues --   -0.25237  -0.24488
  Beta virt. eigenvalues --   -0.05025  -0.01146  -0.00935   0.00532   0.01482
  Beta virt. eigenvalues --    0.02796   0.02823   0.04340   0.04442   0.05765
  Beta virt. eigenvalues --    0.06595   0.06752   0.07606   0.07799   0.09804

 Mulliken charges and spin densities:
               1          2
     1  C    0.690305  -0.000000
     2  C   -0.659559  -0.000000
     3  C    0.120262   0.000000
     4  C   -0.327091  -0.000000
     5  C   -0.465397   0.000000
     6  C   -0.187478  -0.000000
     7  C   -0.199332  -0.000000
     8  H    0.171449  -0.000000
     9  C   -0.205309   0.000000
    10  H    0.179668   0.000000
    11  H    0.176829   0.000000
    12  H    0.174941   0.000000
    13  H    0.246798   0.000000
    14  H    0.192252  -0.000000
    15  O   -0.310913  -0.000000
    16  H    0.170229  -0.000000
    17  H    0.232346   0.000000
 Sum of Mulliken charges =  -0.00000  -0.00000

 Dipole moment (field-independent basis, Debye):
    X=             -0.4388    Y=              2.0961    Z=              0.1274  Tot=              2.1454
 Quadrupole moment (field-independent basis, Debye-Ang):
   XX=            -49.0849   YY=            -51.6262   ZZ=            -55.7157
   XY=             -6.0011   XZ=             -1.5017   YZ=             -1.8137

 Normal termination of Gaussian 16 at Thu Oct 12 15:30:58 2023.
