 Gaussian 16, Revision A.03,
 Gaussian 16:  ES64L-G16RevA.03 25-Dec-2016

 ------------------
 # ub3lyp/6-31+g(d)
 ------------------

 ----------------------
 tmpdir/M3_conf_0_0.gjf
 ----------------------
 Symbolic Z-matrix:
 Charge =  0 Multiplicity = 1

                         Standard orientation:
 ---------------------------------------------------------------------
 Center     Atomic      Atomic             Coordinates (Angstroms)
 Number     Number       Type             X           Y           Z
 ---------------------------------------------------------------------
      1          6           0        0.890861    0.106616   -0.026183
      2          6           0        2.408493    0.029209    0.008459
      3          6           0        0.119940    1.260421   -0.006067
      4          6           0        0.278613   -1.155352   -0.013098
      5          6           0       -1.271999    1.154269    0.002046
      6          1           0        0.597141    2.237173   -0.004605
      7          6           0       -1.103131   -1.258669    0.002707
      8          6           0       -1.880177   -0.097169    0.005588
      9          1           0       -1.881696    2.053084    0.005111
     10          1           0       -1.577953   -2.236521    0.014328
     11          1           0       -2.963494   -0.173129    0.012241
     12          1           0        2.570431   -0.513171    0.959454
     13          1           0        2.873135    1.017500   -0.014288
     14          1           0        2.733075   -0.632399   -0.808060
     15          1           0        0.993762   -1.988484   -0.004896
 ---------------------------------------------------------------------

 SCF Done:  E(UB3LYP) =  -271.568466249     A.U. after   12 cycles

 The electronic state is 1-A.
 Alpha  occ. eigenvalues --  -10.19911 -10.19483 -10.19385 -10.19120 -10.19104
 Alpha  occ. eigenvalues --  -10.18995 -10.18956  -0.86061  -0.77626  -0.74840
 Alpha  occ. eigenvalues --   -0.68563  -0.61012  -0.58253  -0.51278  -0.46517
 Alpha  occ. eigenvalues --   -0.45520  -0.42718  -0.42490  -0.40341  -0.39643
 Alpha  occ. eigenvalues --   -0.35659  -0.34551  -0.33676  -0.25579  -0.24241
 Alpha virt. eigenvalues --   -0.01465  -0.00594   0.00599   0.01994   0.02503
 Alpha virt. eigenvalues --    0.04280   0.04707   0.05090   0.06428   0.06911
 Alpha virt. eigenvalues --    0.07846   0.08209   0.08917   0.10261   0.12359

  Beta  occ. eigenvalues --  -10.19911 -10.19483 -10.19385 -10.19120 -10.19104
  Beta  occ. eigenvalues --  -10.18995 -10.18956  -0.86061  -0.77626  -0.74840
  Beta  occ. eigenvalues --   -0.68563  -0.61012  -0.58253  -0.51278  -0.46517
  Beta  occ. eigenvalues --   -0.45520  -0.42718  -0.42490  -0.40341  -0.39643
  Beta  occ. eigenvalues --   -0.35659  -0.34551  -0.33676  -0.25579  -0.24241
  Beta virt. eigenvalues --   -0.01465  -0.00594   0.00599   0.01994   0.02503
  Beta virt. eigenvalues --    0.04280   0.04707   0.05090   0.06428   0.06911
  Beta virt. eigenvalues --    0.07846   0.08209   0.08917   0.10261   0.12359

 Mulliken charges and spin densities:
               1          2
     1  C    0.416864   0.000000
     2  C   -0.931781  -0.000000
     3  C   -0.649164  -0.000000
     4  C    0.097345  -0.000000
     5  C   -0.175362   0.000000
     6  H    0.172360  -0.000000
     7  C   -0.101930   0.000000
     8  C   -0.177363  -0.000000
     9  H    0.176292  -0.000000
    10  H    0.177156  -0.000000
    11  H    0.174625   0.000000
    12  H    0.221919   0.000000
    13  H    0.201039   0.000000
    14  H    0.223414   0.000000
    15  H    0.174586  -0.000000
 Sum of Mulliken charges =  -0.00000   0.00000

 Dipole moment (field-independent basis, Debye):
    X=              0.3987    Y=             -0.0446    Z=              0.0489  Tot=              0.4042
 Quadrupole moment (field-independent basis, Debye-Ang):
   XX=            -39.4758   YY=            -39.2041   ZZ=            -46.5941
   XY=             -0.1639   XZ=             -0.1050   YZ=             -0.0224

 Normal termination of Gaussian 16 at Thu Oct 12 15:28:08 2023.
