 Gaussian 16, Revision A.03,
 Gaussian 16:  ES64L-G16RevA.03 25-Dec-2016

 ------------------
 # ub3lyp/6-31+g(d)
 ------------------

 ------------------------
 tmpdir/M3_frag_ref_0.gjf
 ------------------------
 Symbolic Z-matrix:
 Charge =  0 Multiplicity = 1

                         Standard orientation:
 ---------------------------------------------------------------------
 Center     Atomic      Atomic             Coordinates (Angstroms)
 Number     Number       Type             X           Y           Z
 ---------------------------------------------------------------------
      1          6           0        1.289591   -0.527552    0.000397
      2          6           0        0.190136   -1.387795    0.003574
      3          6           0       -1.091302   -0.855144   -0.010490
      4          6           0       -1.281286    0.534647   -0.002534
      5          6           0       -0.188490    1.386653    0.002142
      6          6           0        1.101677    0.851109   -0.001281
      7          1           0        2.295373   -0.937457   -0.001329
      8          1           0        0.334635   -2.465274    0.009098
      9          1           0       -0.335267    2.463757    0.009866
     10          1           0        1.961038    1.515139   -0.003358
     11          1           0       -2.039419   -1.419221    0.023551
     12          1           0       -2.338316    0.831550    0.011331
 ---------------------------------------------------------------------

 SCF Done:  E(UB3LYP) =  -232.255188439     A.U. after   11 cycles

 The electronic state is 1-A.
 Alpha  occ. eigenvalues --  -10.19832 -10.19803 -10.19768 -10.19722 -10.19717
 Alpha  occ. eigenvalues --  -10.19636  -0.85944  -0.75147  -0.75074  -0.61109
 Alpha  occ. eigenvalues --   -0.60355  -0.52816  -0.46475  -0.45169  -0.42837
 Alpha  occ. eigenvalues --   -0.42310  -0.37116  -0.35216  -0.34463  -0.25887
 Alpha  occ. eigenvalues --   -0.25698
 Alpha virt. eigenvalues --   -0.01374  -0.01334   0.00827   0.02511   0.02685
 Alpha virt. eigenvalues --    0.04515   0.04691   0.06641   0.07823   0.07868
 Alpha virt. eigenvalues --    0.09183   0.09238   0.09950   0.12826   0.14261

  Beta  occ. eigenvalues --  -10.19832 -10.19803 -10.19768 -10.19722 -10.19717
  Beta  occ. eigenvalues --  -10.19636  -0.85944  -0.75147  -0.75074  -0.61109
  Beta  occ. eigenvalues --   -0.60355  -0.52816  -0.46475  -0.45169  -0.42837
  Beta  occ. eigenvalues --   -0.42310  -0.37116  -0.35216  -0.34463  -0.25887
  Beta  occ. eigenvalues --   -0.25698
  Beta virt. eigenvalues --   -0.01374  -0.01334   0.00827   0.02511   0.02685
  Beta virt. eigenvalues --    0.04515   0.04691   0.06641   0.07823   0.07868
  Beta virt. eigenvalues --    0.09183   0.09238   0.09950   0.12826   0.14261

 Mulliken charges and spin densities:
               1          2
     1  C   -0.177947  -0.000000
     2  C   -0.206519   0.000000
     3  C   -0.146721  -0.000000
     4  C   -0.153815   0.000000
     5  C   -0.202020  -0.000000
     6  C   -0.179807   0.000000
     7  H    0.178164  -0.000000
     8  H    0.178949   0.000000
     9  H    0.178557  -0.000000
    10  H    0.178076   0.000000
    11  H    0.176339  -0.000000
    12  H    0.176744   0.000000
 Sum of Mulliken charges =  -0.00000   0.00000

 Dipole moment (field-independent basis, Debye):
    X=             -0.0082    Y=              0.0042    Z=              0.0391  Tot=              0.0402
 Quadrupole moment (field-independent basis, Debye-Ang):
   XX=            -31.9466   YY=            -32.5999   ZZ=            -40.3692
   XY=              0.0614   XZ=             -0.0956   YZ=             -0.0282

 Normal termination of Gaussian 16 at Thu Oct 12 15:27:22 2023.
