 Gaussian 16, Revision A.03,
 Gaussian 16:  ES64L-G16RevA.03 25-Dec-2016

 ------------------
 # ub3lyp/6-31+g(d)
 ------------------

 -------------------
 tmpdir/M3_ref_9.gjf
 -------------------
 Symbolic Z-matrix:
 Charge =  0 Multiplicity = 2

                         Standard orientation:
 ---------------------------------------------------------------------
 Center     Atomic      Atomic             Coordinates (Angstroms)
 Number     Number       Type             X           Y           Z
 ---------------------------------------------------------------------
      1          6           0        1.418469   -0.521769   -0.239403
      2          6           0        0.578378    0.670670    0.218441
      3          6           0       -0.852584    0.417402   -0.225453
      4          1           0        0.904031   -1.448931   -0.045397
      5          1           0        2.490056   -0.451425   -0.050203
      6          1           0        0.621222    0.549651    1.314702
      7          1           0        0.976230    1.634631   -0.106655
      8          8           0       -1.309819   -0.600609    0.153134
      9          1           0       -1.378563    1.123122   -0.859033
 ---------------------------------------------------------------------

 SCF Done:  E(UB3LYP) =  -192.466777605     A.U. after   15 cycles

 The electronic state is 2-A.
 Alpha  occ. eigenvalues --  -19.16686 -10.28856 -10.21188 -10.21001  -1.08550
 Alpha  occ. eigenvalues --   -0.79133  -0.65933  -0.58232  -0.51058  -0.46638
 Alpha  occ. eigenvalues --   -0.44807  -0.42604  -0.38878  -0.37472  -0.27318
 Alpha  occ. eigenvalues --   -0.22702
 Alpha virt. eigenvalues --   -0.04420   0.01151   0.02448   0.03526   0.04393
 Alpha virt. eigenvalues --    0.06844   0.07468   0.08311   0.09127   0.09206
 Alpha virt. eigenvalues --    0.11626   0.12873   0.15983   0.19308   0.20794

  Beta  occ. eigenvalues --  -19.16689 -10.28832 -10.21034 -10.19797  -1.08547
  Beta  occ. eigenvalues --   -0.77958  -0.64180  -0.57250  -0.50821  -0.46179
  Beta  occ. eigenvalues --   -0.44303  -0.41925  -0.38251  -0.36809  -0.27025
  Beta virt. eigenvalues --   -0.07360  -0.04232   0.01246   0.02545   0.03692
  Beta virt. eigenvalues --    0.04430   0.06934   0.07664   0.08401   0.09306
  Beta virt. eigenvalues --    0.10440   0.11786   0.12951   0.16257   0.19547

 Mulliken charges and spin densities:
               1          2
     1  C   -0.348832   1.096869
     2  C   -0.500760  -0.079083
     3  C    0.188516   0.009142
     4  H    0.218027  -0.042462
     5  H    0.187563  -0.041643
     6  H    0.241653   0.051074
     7  H    0.197884   0.007557
     8  O   -0.350266  -0.003819
     9  H    0.166216   0.002364
 Sum of Mulliken charges =  -0.00000   1.00000

 Dipole moment (field-independent basis, Debye):
    X=              1.2140    Y=              2.0729    Z=              0.0377  Tot=              2.4025
 Quadrupole moment (field-independent basis, Debye-Ang):
   XX=            -26.5301   YY=            -24.7261   ZZ=            -25.1564
   XY=             -2.3899   XZ=              1.9931   YZ=             -0.4320

 Normal termination of Gaussian 16 at Thu Oct 12 15:23:36 2023.
