 Gaussian 16, Revision A.03,
 Gaussian 16:  ES64L-G16RevA.03 25-Dec-2016

 ------------------
 # ub3lyp/6-31+g(d)
 ------------------

 -------------------
 tmpdir/M3_ref_5.gjf
 -------------------
 Symbolic Z-matrix:
 Charge =  0 Multiplicity = 2

                         Standard orientation:
 ---------------------------------------------------------------------
 Center     Atomic      Atomic             Coordinates (Angstroms)
 Number     Number       Type             X           Y           Z
 ---------------------------------------------------------------------
      1          6           0        0.501177    0.302875   -0.272139
      2          6           0        2.006071    0.443828   -0.472928
      3          6           0        2.535097   -0.360705    0.714567
      4          6           0       -0.401103    1.328286   -0.026336
      5          6           0        0.069916   -1.031820   -0.288907
      6          6           0       -1.747336    1.021456    0.179430
      7          1           0       -0.062302    2.361007   -0.002358
      8          6           0       -1.265530   -1.334634   -0.076710
      9          6           0       -2.177249   -0.301617    0.153491
     10          1           0       -2.461213    1.819857    0.359873
     11          1           0       -1.599910   -2.368954   -0.088090
     12          1           0       -3.225817   -0.533938    0.314660
     13          1           0        2.327284    1.487862   -0.469861
     14          1           0        2.278700   -0.101314   -1.388542
     15          1           0        2.337936   -1.412159    0.582321
     16          1           0        2.398971    0.092677    1.696889
     17          1           0        0.880092   -1.751057   -0.467701
 ---------------------------------------------------------------------

 SCF Done:  E(UB3LYP) =  -310.201553936     A.U. after   17 cycles

 The electronic state is 2-A.
 Alpha  occ. eigenvalues --  -10.20548 -10.20078 -10.20036 -10.19833 -10.19806
 Alpha  occ. eigenvalues --  -10.19612 -10.19575 -10.19534  -0.86914  -0.80047
 Alpha  occ. eigenvalues --   -0.75373  -0.72011  -0.63028  -0.61406  -0.58074
 Alpha  occ. eigenvalues --   -0.52108  -0.48307  -0.46260  -0.44184  -0.42487
 Alpha  occ. eigenvalues --   -0.41846  -0.39740  -0.38240  -0.36006  -0.34911
 Alpha  occ. eigenvalues --   -0.34267  -0.26237  -0.25945  -0.20575
 Alpha virt. eigenvalues --   -0.01815  -0.00911   0.00383   0.01932   0.02120
 Alpha virt. eigenvalues --    0.03318   0.04058   0.04484   0.05738   0.06536
 Alpha virt. eigenvalues --    0.07137   0.07387   0.07702   0.09607   0.10517

  Beta  occ. eigenvalues --  -10.20444 -10.20080 -10.19844 -10.19811 -10.19570
  Beta  occ. eigenvalues --  -10.19538 -10.19493 -10.18711  -0.86737  -0.79388
  Beta  occ. eigenvalues --   -0.75302  -0.71095  -0.62053  -0.60643  -0.57565
  Beta  occ. eigenvalues --   -0.51982  -0.48015  -0.46097  -0.43908  -0.42331
  Beta  occ. eigenvalues --   -0.41317  -0.39210  -0.37913  -0.35709  -0.34407
  Beta  occ. eigenvalues --   -0.34131  -0.25910  -0.25087
  Beta virt. eigenvalues --   -0.06610  -0.01697  -0.00434   0.00433   0.01953
  Beta virt. eigenvalues --    0.02287   0.03460   0.04106   0.04611   0.05910
  Beta virt. eigenvalues --    0.06863   0.07151   0.07405   0.07952   0.09642

 Mulliken charges and spin densities:
               1          2
     1  C    0.286346   0.076128
     2  C   -0.566699  -0.150322
     3  C   -0.387985   1.100655
     4  C   -0.177841   0.002031
     5  C   -0.215173  -0.003634
     6  C   -0.249843   0.004061
     7  H    0.174443  -0.000966
     8  C   -0.214438   0.013418
     9  C   -0.139247   0.029328
    10  H    0.178471   0.000856
    11  H    0.178788   0.000506
    12  H    0.176453  -0.001586
    13  H    0.202312   0.008073
    14  H    0.221551   0.007107
    15  H    0.174285  -0.044055
    16  H    0.194872  -0.041644
    17  H    0.163708   0.000044
 Sum of Mulliken charges =  -0.00000   1.00000

 Dipole moment (field-independent basis, Debye):
    X=             -0.5175    Y=              0.0960    Z=             -0.0908  Tot=              0.5341
 Quadrupole moment (field-independent basis, Debye-Ang):
   XX=            -50.1521   YY=            -44.6682   ZZ=            -52.1855
   XY=              0.4687   XZ=             -2.0100   YZ=              0.9906

 Normal termination of Gaussian 16 at Thu Oct 12 15:24:59 2023.
