 Gaussian 16, Revision A.03,
 Gaussian 16:  ES64L-G16RevA.03 25-Dec-2016

 ------------------
 # ub3lyp/6-31+g(d)
 ------------------

 --------------------
 tmpdir/M3_ref_22.gjf
 --------------------
 Symbolic Z-matrix:
 Charge =  0 Multiplicity = 3

                         Standard orientation:
 ---------------------------------------------------------------------
 Center     Atomic      Atomic             Coordinates (Angstroms)
 Number     Number       Type             X           Y           Z
 ---------------------------------------------------------------------
      1          6           0       -1.178832   -0.241948   -0.039075
      2          6           0        0.072404    0.635700   -0.083235
      3          6           0        1.297369   -0.196164    0.074286
      4          1           0       -1.000443   -1.127355   -0.663484
      5          1           0       -2.094889    0.290472   -0.303572
      6          1           0       -1.154911   -0.559269    1.020093
      7          1           0       -0.001078    1.584928    0.449858
      8          1           0        1.045963   -1.190291    0.490542
      9          1           0        2.059705   -0.184014   -0.705291
 ---------------------------------------------------------------------

 SCF Done:  E(UB3LYP) =  -117.791050434     A.U. after   13 cycles

 The electronic state is 3-A.
 Alpha  occ. eigenvalues --  -10.20781 -10.20726 -10.19531  -0.79652  -0.68362
 Alpha  occ. eigenvalues --   -0.57685  -0.46348  -0.44028  -0.40794  -0.38246
 Alpha  occ. eigenvalues --   -0.37183  -0.25856  -0.17868
 Alpha virt. eigenvalues --    0.01621   0.03160   0.03586   0.05022   0.06635
 Alpha virt. eigenvalues --    0.07904   0.08516   0.09247   0.09619   0.11857
 Alpha virt. eigenvalues --    0.13388   0.15697   0.17877   0.21324   0.22596

  Beta  occ. eigenvalues --  -10.19490 -10.19434 -10.19377  -0.76972  -0.65931
  Beta  occ. eigenvalues --   -0.54883  -0.45070  -0.42169  -0.39589  -0.36718
  Beta  occ. eigenvalues --   -0.35918
  Beta virt. eigenvalues --   -0.10374  -0.02803   0.01891   0.03404   0.03914
  Beta virt. eigenvalues --    0.05333   0.06933   0.07913   0.08917   0.09805
  Beta virt. eigenvalues --    0.11092   0.12271   0.14161   0.16102   0.18547

 Mulliken charges and spin densities:
               1          2
     1  C   -0.807943  -0.024038
     2  C    0.035384   0.957618
     3  C   -0.424042   1.037949
     4  H    0.211412   0.008169
     5  H    0.208483   0.010163
     6  H    0.214287   0.053230
     7  H    0.185011  -0.013336
     8  H    0.181390  -0.009940
     9  H    0.196019  -0.019815
 Sum of Mulliken charges =  -0.00000   2.00000

 Dipole moment (field-independent basis, Debye):
    X=             -0.5719    Y=             -0.4373    Z=              0.1083  Tot=              0.7281
 Quadrupole moment (field-independent basis, Debye-Ang):
   XX=            -21.4104   YY=            -20.6441   ZZ=            -21.6724
   XY=             -0.5888   XZ=             -1.1011   YZ=              0.6016

 Normal termination of Gaussian 16 at Thu Oct 12 15:25:36 2023.
