 Gaussian 16, Revision A.03,
 Gaussian 16:  ES64L-G16RevA.03 25-Dec-2016

 ------------------
 # ub3lyp/6-31+g(d)
 ------------------

 -------------------
 tmpdir/M3_ref_7.gjf
 -------------------
 Symbolic Z-matrix:
 Charge =  0 Multiplicity = 1

                         Standard orientation:
 ---------------------------------------------------------------------
 Center     Atomic      Atomic             Coordinates (Angstroms)
 Number     Number       Type             X           Y           Z
 ---------------------------------------------------------------------
      1          6           0        0.114773    0.534595    0.206552
      2          6           0        1.549156    0.973009    0.480831
      3          6           0        2.468922    0.145648   -0.401407
      4          6           0       -0.963325    1.360502   -0.079069
      5          6           0       -0.067903   -0.850205    0.335534
      6          6           0       -2.227761    0.797793   -0.261795
      7          1           0       -0.821246    2.434719   -0.167070
      8          6           0       -1.325363   -1.405728    0.161385
      9          6           0       -2.407699   -0.576835   -0.143302
     10          1           0       -3.073673    1.436763   -0.497956
     11          1           0       -1.467669   -2.478680    0.262771
     12          1           0       -3.393918   -1.008563   -0.286218
     13          1           0        1.682041    0.620763    1.521516
     14          1           0        1.680840    2.051219    0.365432
     15          8           0        2.309589   -1.019042   -0.318654
     16          1           0        3.218468    0.614799   -1.029257
     17          1           0        0.853645   -1.391358    0.587644
 ---------------------------------------------------------------------

 SCF Done:  E(UB3LYP) =  -384.861514022     A.U. after   15 cycles

 The electronic state is 1-A.
 Alpha  occ. eigenvalues --  -19.16963 -10.29404 -10.21002 -10.20291 -10.19479
 Alpha  occ. eigenvalues --  -10.19279 -10.19034 -10.18921 -10.17594  -1.09496
 Alpha  occ. eigenvalues --   -0.86152  -0.79115  -0.74639  -0.71523  -0.62308
 Alpha  occ. eigenvalues --   -0.60461  -0.57926  -0.51182  -0.50607  -0.48074
 Alpha  occ. eigenvalues --   -0.46611  -0.45115  -0.43575  -0.41532  -0.40662
 Alpha  occ. eigenvalues --   -0.38138  -0.36156  -0.34928  -0.33797  -0.26920
 Alpha  occ. eigenvalues --   -0.24991  -0.24394
 Alpha virt. eigenvalues --   -0.05410  -0.00859  -0.00653   0.00574   0.01569
 Alpha virt. eigenvalues --    0.02728   0.02861   0.04399   0.04474   0.05806
 Alpha virt. eigenvalues --    0.06642   0.06747   0.07633   0.07826   0.09763

  Beta  occ. eigenvalues --  -19.16963 -10.29404 -10.21002 -10.20291 -10.19479
  Beta  occ. eigenvalues --  -10.19279 -10.19034 -10.18921 -10.17594  -1.09496
  Beta  occ. eigenvalues --   -0.86152  -0.79115  -0.74639  -0.71523  -0.62308
  Beta  occ. eigenvalues --   -0.60461  -0.57926  -0.51182  -0.50607  -0.48074
  Beta  occ. eigenvalues --   -0.46611  -0.45115  -0.43575  -0.41532  -0.40662
  Beta  occ. eigenvalues --   -0.38138  -0.36156  -0.34928  -0.33797  -0.26920
  Beta  occ. eigenvalues --   -0.24991  -0.24394
  Beta virt. eigenvalues --   -0.05410  -0.00859  -0.00653   0.00574   0.01569
  Beta virt. eigenvalues --    0.02728   0.02861   0.04399   0.04474   0.05806
  Beta virt. eigenvalues --    0.06642   0.06747   0.07633   0.07826   0.09763

 Mulliken charges and spin densities:
               1          2
     1  C    0.471093   0.000000
     2  C   -0.627557  -0.000000
     3  C    0.140735  -0.000000
     4  C   -0.448502  -0.000000
     5  C   -0.271728   0.000000
     6  C   -0.188833  -0.000000
     7  H    0.170204  -0.000000
     8  C   -0.124062   0.000000
     9  C   -0.211023  -0.000000
    10  H    0.175831   0.000000
    11  H    0.178197  -0.000000
    12  H    0.173808   0.000000
    13  H    0.258777  -0.000000
    14  H    0.196347   0.000000
    15  O   -0.302242   0.000000
    16  H    0.170465  -0.000000
    17  H    0.238491  -0.000000
 Sum of Mulliken charges =  -0.00000   0.00000

 Dipole moment (field-independent basis, Debye):
    X=              0.6503    Y=              2.0712    Z=              0.1648  Tot=              2.1771
 Quadrupole moment (field-independent basis, Debye-Ang):
   XX=            -48.9647   YY=            -51.6567   ZZ=            -55.5408
   XY=              5.5810   XZ=              1.3386   YZ=             -1.8011

 Normal termination of Gaussian 16 at Thu Oct 12 15:25:35 2023.
