 Gaussian 16, Revision A.03,
 Gaussian 16:  ES64L-G16RevA.03 25-Dec-2016

 ------------------
 # ub3lyp/6-31+g(d)
 ------------------

 --------------------
 tmpdir/M3_ref_16.gjf
 --------------------
 Symbolic Z-matrix:
 Charge =  0 Multiplicity = 1

                         Standard orientation:
 ---------------------------------------------------------------------
 Center     Atomic      Atomic             Coordinates (Angstroms)
 Number     Number       Type             X           Y           Z
 ---------------------------------------------------------------------
      1          6           0       -0.111408    0.538735    0.220617
      2          6           0       -1.540227    0.983763    0.468103
      3          6           0       -2.458203    0.140800   -0.415553
      4          6           0        0.068167   -0.848399    0.326876
      5          6           0        0.966065    1.359897   -0.070731
      6          6           0        1.327184   -1.407412    0.158420
      7          6           0        2.230349    0.795961   -0.257582
      8          1           0        0.827641    2.435094   -0.151648
      9          6           0        2.409749   -0.579046   -0.142727
     10          1           0        1.465865   -2.481537    0.252740
     11          1           0        3.076552    1.435168   -0.491670
     12          1           0        3.395561   -1.011030   -0.288288
     13          1           0       -1.848207    0.621705    1.467653
     14          1           0       -1.683920    2.057416    0.329500
     15          8           0       -2.313224   -1.023041   -0.300692
     16          1           0       -3.218975    0.604460   -1.035306
     17          1           0       -0.858784   -1.382737    0.598010
 ---------------------------------------------------------------------

 SCF Done:  E(UB3LYP) =  -384.861782011     A.U. after   15 cycles

 The electronic state is 1-A.
 Alpha  occ. eigenvalues --  -19.16996 -10.29408 -10.21053 -10.20220 -10.19481
 Alpha  occ. eigenvalues --  -10.19278 -10.19059 -10.18931 -10.17638  -1.09544
 Alpha  occ. eigenvalues --   -0.86135  -0.79100  -0.74590  -0.71652  -0.62187
 Alpha  occ. eigenvalues --   -0.60435  -0.57995  -0.51308  -0.50541  -0.47940
 Alpha  occ. eigenvalues --   -0.46601  -0.45063  -0.43587  -0.41286  -0.40738
 Alpha  occ. eigenvalues --   -0.38324  -0.36198  -0.34999  -0.33850  -0.26934
 Alpha  occ. eigenvalues --   -0.24926  -0.24369
 Alpha virt. eigenvalues --   -0.05258  -0.00919  -0.00684   0.00542   0.01552
 Alpha virt. eigenvalues --    0.02747   0.02847   0.04385   0.04461   0.05843
 Alpha virt. eigenvalues --    0.06639   0.06733   0.07561   0.07826   0.09756

  Beta  occ. eigenvalues --  -19.16996 -10.29408 -10.21053 -10.20220 -10.19481
  Beta  occ. eigenvalues --  -10.19278 -10.19059 -10.18931 -10.17638  -1.09544
  Beta  occ. eigenvalues --   -0.86135  -0.79100  -0.74590  -0.71652  -0.62187
  Beta  occ. eigenvalues --   -0.60435  -0.57995  -0.51308  -0.50541  -0.47940
  Beta  occ. eigenvalues --   -0.46601  -0.45063  -0.43587  -0.41286  -0.40738
  Beta  occ. eigenvalues --   -0.38324  -0.36198  -0.34999  -0.33850  -0.26934
  Beta  occ. eigenvalues --   -0.24926  -0.24369
  Beta virt. eigenvalues --   -0.05258  -0.00919  -0.00684   0.00542   0.01552
  Beta virt. eigenvalues --    0.02747   0.02847   0.04385   0.04461   0.05843
  Beta virt. eigenvalues --    0.06639   0.06733   0.07561   0.07826   0.09756

 Mulliken charges and spin densities:
               1          2
     1  C    0.669055  -0.000000
     2  C   -0.649182   0.000000
     3  C    0.124304  -0.000000
     4  C   -0.400357   0.000000
     5  C   -0.444754   0.000000
     6  C   -0.146040  -0.000000
     7  C   -0.191168  -0.000000
     8  H    0.170180  -0.000000
     9  C   -0.214714   0.000000
    10  H    0.178511   0.000000
    11  H    0.175876   0.000000
    12  H    0.173972   0.000000
    13  H    0.249373  -0.000000
    14  H    0.196185   0.000000
    15  O   -0.298659  -0.000000
    16  H    0.170366   0.000000
    17  H    0.237052  -0.000000
 Sum of Mulliken charges =  -0.00000  -0.00000

 Dipole moment (field-independent basis, Debye):
    X=             -0.6968    Y=              2.0647    Z=              0.0872  Tot=              2.1809
 Quadrupole moment (field-independent basis, Debye-Ang):
   XX=            -48.7060   YY=            -51.6996   ZZ=            -55.6444
   XY=             -5.6388   XZ=             -1.4177   YZ=             -1.7833

 Normal termination of Gaussian 16 at Thu Oct 12 15:26:56 2023.
