 Gaussian 16, Revision A.03,
 Gaussian 16:  ES64L-G16RevA.03 25-Dec-2016

 ------------------
 # ub3lyp/6-31+g(d)
 ------------------

 --------------------
 tmpdir/M3_ref_27.gjf
 --------------------
 Symbolic Z-matrix:
 Charge =  0 Multiplicity = 2

                         Standard orientation:
 ---------------------------------------------------------------------
 Center     Atomic      Atomic             Coordinates (Angstroms)
 Number     Number       Type             X           Y           Z
 ---------------------------------------------------------------------
      1          6           0        0.714226   -0.012286    0.002506
      2          6           0       -0.810587   -0.005756   -0.107890
      3          1           0       -1.316655   -0.914941    0.218180
      4          1           0        0.846105    0.037650    1.097213
      5          1           0        1.178720   -0.901592   -0.429436
      6          1           0        1.080189    0.932011   -0.426714
      7          1           0       -1.210195    0.955126    0.173062
 ---------------------------------------------------------------------

 SCF Done:  E(UB3LYP) =  -79.1546717208     A.U. after   12 cycles

 The electronic state is 2-A.
 Alpha  occ. eigenvalues --  -10.19947 -10.18876  -0.75964  -0.60713  -0.46027
 Alpha  occ. eigenvalues --   -0.42261  -0.37175  -0.36860  -0.21459
 Alpha virt. eigenvalues --    0.01863   0.03297   0.05004   0.05813   0.08149
 Alpha virt. eigenvalues --    0.08850   0.09753   0.14813   0.17207   0.19669
 Alpha virt. eigenvalues --    0.22859   0.23381   0.24882   0.30288   0.62044

  Beta  occ. eigenvalues --  -10.18913 -10.18557  -0.74375  -0.58478  -0.45410
  Beta  occ. eigenvalues --   -0.40825  -0.36454  -0.36233
  Beta virt. eigenvalues --   -0.05924   0.02031   0.03484   0.05019   0.06246
  Beta virt. eigenvalues --    0.08128   0.08843   0.11116   0.15129   0.17842
  Beta virt. eigenvalues --    0.19783   0.24101   0.24385   0.25863   0.30843

 Mulliken charges and spin densities:
               1          2
     1  C   -0.702507  -0.093015
     2  C   -0.274232   1.108983
     3  H    0.179974  -0.041536
     4  H    0.207310   0.051325
     5  H    0.206271   0.008886
     6  H    0.204765   0.008685
     7  H    0.178418  -0.043327
 Sum of Mulliken charges =  -0.00000   1.00000

 Dipole moment (field-independent basis, Debye):
    X=              0.3673    Y=              0.0338    Z=              0.6113  Tot=              0.7140
 Quadrupole moment (field-independent basis, Debye-Ang):
   XX=            -15.4964   YY=            -13.6169   ZZ=            -15.5145
   XY=             -0.0172   XZ=             -0.8985   YZ=              0.0200

 Normal termination of Gaussian 16 at Thu Oct 12 15:25:45 2023.
