 Gaussian 16, Revision A.03,
 Gaussian 16:  ES64L-G16RevA.03 25-Dec-2016

 ------------------
 # ub3lyp/6-31+g(d)
 ------------------

 --------------------
 tmpdir/M3_ref_14.gjf
 --------------------
 Symbolic Z-matrix:
 Charge =  0 Multiplicity = 2

                         Standard orientation:
 ---------------------------------------------------------------------
 Center     Atomic      Atomic             Coordinates (Angstroms)
 Number     Number       Type             X           Y           Z
 ---------------------------------------------------------------------
      1          6           0        0.462071    0.318318    0.213652
      2          6           0        1.956553    0.493719    0.404910
      3          6           0        2.676603   -0.341271   -0.654395
      4          6           0        0.045540   -1.020196    0.264265
      5          6           0       -0.461660    1.326918   -0.009024
      6          6           0       -1.289994   -1.346603    0.075045
      7          6           0       -1.808774    1.000372   -0.182236
      8          1           0       -0.139065    2.364233   -0.049859
      9          6           0       -2.220016   -0.328247   -0.141377
     10          1           0       -1.608468   -2.385667    0.103200
     11          1           0       -2.537026    1.788083   -0.351359
     12          1           0       -3.268796   -0.575411   -0.277736
     13          1           0        2.265904    1.540943    0.419611
     14          1           0        2.251923   -0.056117    1.317893
     15          1           0        2.228074   -1.318296   -0.732879
     16          1           0        3.763894   -0.250080   -0.664630
     17          1           0        0.881614   -1.725747    0.410711
 ---------------------------------------------------------------------

 SCF Done:  E(UB3LYP) =  -310.201941629     A.U. after   17 cycles

 The electronic state is 2-A.
 Alpha  occ. eigenvalues --  -10.20368 -10.20223 -10.20053 -10.19707 -10.19565
 Alpha  occ. eigenvalues --  -10.19358 -10.19334 -10.19291  -0.86539  -0.79808
 Alpha  occ. eigenvalues --   -0.75071  -0.72344  -0.63144  -0.61292  -0.57688
 Alpha  occ. eigenvalues --   -0.52123  -0.47414  -0.46088  -0.44093  -0.43126
 Alpha  occ. eigenvalues --   -0.41966  -0.39832  -0.38355  -0.36075  -0.34683
 Alpha  occ. eigenvalues --   -0.33728  -0.25717  -0.24700  -0.22123
 Alpha virt. eigenvalues --   -0.01703  -0.00985   0.00537   0.01857   0.02029
 Alpha virt. eigenvalues --    0.03529   0.03958   0.04526   0.06185   0.06543
 Alpha virt. eigenvalues --    0.07004   0.07392   0.07848   0.09626   0.10458

  Beta  occ. eigenvalues --  -10.20258 -10.20025 -10.19704 -10.19562 -10.19362
  Beta  occ. eigenvalues --  -10.19338 -10.19295 -10.18973  -0.86468  -0.79185
  Beta  occ. eigenvalues --   -0.75064  -0.71415  -0.62008  -0.60911  -0.57041
  Beta  occ. eigenvalues --   -0.52047  -0.47061  -0.45890  -0.43619  -0.42791
  Beta  occ. eigenvalues --   -0.41460  -0.39445  -0.37908  -0.35844  -0.34458
  Beta  occ. eigenvalues --   -0.33653  -0.25720  -0.24525
  Beta virt. eigenvalues --   -0.06636  -0.01667  -0.00938   0.00578   0.01904
  Beta virt. eigenvalues --    0.02083   0.03639   0.03978   0.04629   0.06421
  Beta virt. eigenvalues --    0.06636   0.07094   0.07469   0.08097   0.09804

 Mulliken charges and spin densities:
               1          2
     1  C    0.353181   0.104792
     2  C   -0.623246  -0.094549
     3  C   -0.358876   1.085992
     4  C   -0.174785  -0.027150
     5  C   -0.274723  -0.031168
     6  C   -0.199047  -0.002299
     7  C   -0.228475  -0.001184
     8  H    0.173143   0.000255
     9  C   -0.147656  -0.008657
    10  H    0.178166  -0.000097
    11  H    0.177526   0.000003
    12  H    0.175678   0.000234
    13  H    0.201363   0.008797
    14  H    0.232895   0.050307
    15  H    0.172701  -0.044426
    16  H    0.181686  -0.041059
    17  H    0.160468   0.000209
 Sum of Mulliken charges =  -0.00000   1.00000

 Dipole moment (field-independent basis, Debye):
    X=              0.3261    Y=             -0.0530    Z=              0.5934  Tot=              0.6792
 Quadrupole moment (field-independent basis, Debye-Ang):
   XX=            -44.7893   YY=            -44.9492   ZZ=            -54.1461
   XY=             -0.0207   XZ=              2.7282   YZ=             -0.4362

 Normal termination of Gaussian 16 at Thu Oct 12 15:25:24 2023.
