 Gaussian 16, Revision A.03,
 Gaussian 16:  ES64L-G16RevA.03 25-Dec-2016

 ------------------
 # ub3lyp/6-31+g(d)
 ------------------

 --------------------
 tmpdir/M3_ref_10.gjf
 --------------------
 Symbolic Z-matrix:
 Charge =  0 Multiplicity = 1

                         Standard orientation:
 ---------------------------------------------------------------------
 Center     Atomic      Atomic             Coordinates (Angstroms)
 Number     Number       Type             X           Y           Z
 ---------------------------------------------------------------------
      1          1           0       -1.925369    0.629981   -0.039678
      2          6           0       -1.132086   -0.119854    0.000862
      3          6           0        0.268517    0.469329   -0.002656
      4          1           0       -1.199007   -0.843693   -0.829708
      5          1           0       -1.206303   -0.794436    0.875044
      6          8           0        1.135518   -0.328822   -0.001361
      7          1           0        0.427950    1.541873    0.015994
 ---------------------------------------------------------------------

 SCF Done:  E(UB3LYP) =  -153.829633040     A.U. after   11 cycles

 The electronic state is 1-A.
 Alpha  occ. eigenvalues --  -19.16267 -10.28706 -10.19940  -1.08052  -0.74857
 Alpha  occ. eigenvalues --   -0.59964  -0.49051  -0.44918  -0.44531  -0.41586
 Alpha  occ. eigenvalues --   -0.36941  -0.26572
 Alpha virt. eigenvalues --   -0.03905   0.01246   0.02386   0.04742   0.05087
 Alpha virt. eigenvalues --    0.07432   0.07675   0.09398   0.14217   0.16977
 Alpha virt. eigenvalues --    0.17526   0.20546   0.23051   0.24878   0.25583

  Beta  occ. eigenvalues --  -19.16267 -10.28706 -10.19940  -1.08052  -0.74857
  Beta  occ. eigenvalues --   -0.59964  -0.49051  -0.44918  -0.44531  -0.41586
  Beta  occ. eigenvalues --   -0.36941  -0.26572
  Beta virt. eigenvalues --   -0.03905   0.01246   0.02386   0.04742   0.05087
  Beta virt. eigenvalues --    0.07432   0.07675   0.09398   0.14217   0.16977
  Beta virt. eigenvalues --    0.17526   0.20546   0.23051   0.24878   0.25583

 Mulliken charges and spin densities:
               1          2
     1  H    0.196312  -0.000000
     2  C   -0.734212  -0.000000
     3  C    0.246148   0.000000
     4  H    0.237515  -0.000000
     5  H    0.236548  -0.000000
     6  O   -0.345104  -0.000000
     7  H    0.162794  -0.000000
 Sum of Mulliken charges =  -0.00000   0.00000

 Dipole moment (field-independent basis, Debye):
    X=             -2.1338    Y=              1.3185    Z=              0.0086  Tot=              2.5083
 Quadrupole moment (field-independent basis, Debye-Ang):
   XX=            -21.5513   YY=            -17.7655   ZZ=            -18.1579
   XY=              1.5221   XZ=              0.0256   YZ=             -0.0288

 Normal termination of Gaussian 16 at Thu Oct 12 15:23:42 2023.
