 Gaussian 16, Revision A.03,
 Gaussian 16:  ES64L-G16RevA.03 25-Dec-2016

 ------------------
 # ub3lyp/6-31+g(d)
 ------------------

 --------------------
 tmpdir/M3_ref_18.gjf
 --------------------
 Symbolic Z-matrix:
 Charge =  0 Multiplicity = 2

                         Standard orientation:
 ---------------------------------------------------------------------
 Center     Atomic      Atomic             Coordinates (Angstroms)
 Number     Number       Type             X           Y           Z
 ---------------------------------------------------------------------
      1          6           0        1.347557   -0.592139    0.122897
      2          6           0        0.631845    0.699911   -0.272286
      3          6           0       -0.762773    0.412497    0.281382
      4          1           0        0.963729   -1.424182   -0.444814
      5          1           0        1.537590   -0.715818    1.190235
      6          1           0        0.562578    0.733867   -1.367597
      7          1           0        1.083385    1.597387    0.155780
      8          8           0       -1.282994   -0.541014   -0.175701
      9          1           0       -1.183110    1.015238    1.080049
 ---------------------------------------------------------------------

 SCF Done:  E(UB3LYP) =  -192.464529688     A.U. after   15 cycles

 The electronic state is 2-A.
 Alpha  occ. eigenvalues --  -19.16660 -10.29092 -10.21486 -10.20895  -1.08750
 Alpha  occ. eigenvalues --   -0.79378  -0.65550  -0.58815  -0.50506  -0.46878
 Alpha  occ. eigenvalues --   -0.45184  -0.43121  -0.38388  -0.37330  -0.27758
 Alpha  occ. eigenvalues --   -0.22742
 Alpha virt. eigenvalues --   -0.04151   0.01289   0.02868   0.03194   0.04415
 Alpha virt. eigenvalues --    0.07096   0.07540   0.08104   0.08506   0.08681
 Alpha virt. eigenvalues --    0.11879   0.13312   0.15279   0.19515   0.20134

  Beta  occ. eigenvalues --  -19.16520 -10.29004 -10.20942 -10.20106  -1.08487
  Beta  occ. eigenvalues --   -0.78161  -0.63569  -0.58140  -0.50028  -0.46213
  Beta  occ. eigenvalues --   -0.44725  -0.42398  -0.37778  -0.36675  -0.26974
  Beta virt. eigenvalues --   -0.08195  -0.03302   0.01356   0.02960   0.03564
  Beta virt. eigenvalues --    0.04629   0.07208   0.07962   0.08121   0.08533
  Beta virt. eigenvalues --    0.09372   0.12136   0.13498   0.15609   0.19736

 Mulliken charges and spin densities:
               1          2
     1  C   -0.365590   1.093870
     2  C   -0.505067  -0.112152
     3  C    0.195955   0.025942
     4  H    0.221292  -0.040756
     5  H    0.191481  -0.039729
     6  H    0.233854   0.010680
     7  H    0.199703   0.009889
     8  O   -0.336919   0.044931
     9  H    0.165292   0.007325
 Sum of Mulliken charges =  -0.00000   1.00000

 Dipole moment (field-independent basis, Debye):
    X=              0.8327    Y=              1.8468    Z=              0.8762  Tot=              2.2072
 Quadrupole moment (field-independent basis, Debye-Ang):
   XX=            -29.4895   YY=            -24.5099   ZZ=            -23.3336
   XY=             -2.0751   XZ=             -0.4386   YZ=              0.1390

 Normal termination of Gaussian 16 at Thu Oct 12 15:25:14 2023.
