 Gaussian 16, Revision A.03,
 Gaussian 16:  ES64L-G16RevA.03 25-Dec-2016

 ------------------
 # ub3lyp/6-31+g(d)
 ------------------

 --------------------
 tmpdir/M3_ref_15.gjf
 --------------------
 Symbolic Z-matrix:
 Charge =  0 Multiplicity = 1

                         Standard orientation:
 ---------------------------------------------------------------------
 Center     Atomic      Atomic             Coordinates (Angstroms)
 Number     Number       Type             X           Y           Z
 ---------------------------------------------------------------------
      1          6           0       -0.889877    0.106249   -0.008499
      2          6           0       -2.405127    0.038146    0.005660
      3          1           0       -2.877977    1.021209   -0.045239
      4          6           0       -0.273919   -1.154001   -0.014963
      5          6           0       -0.119137    1.257787   -0.000817
      6          6           0        1.109838   -1.258265    0.003593
      7          6           0        1.273872    1.153519    0.000282
      8          1           0       -0.596077    2.234641    0.005751
      9          6           0        1.884345   -0.096814    0.003439
     10          1           0        1.584688   -2.236193    0.010266
     11          1           0        1.881864    2.053401    0.000573
     12          1           0        2.967919   -0.170890    0.005233
     13          1           0       -2.717458   -0.557917    0.884406
     14          1           0       -2.725304   -0.637187   -0.809517
     15          1           0       -0.997622   -1.986792    0.016360
 ---------------------------------------------------------------------

 SCF Done:  E(UB3LYP) =  -271.569671724     A.U. after   12 cycles

 The electronic state is 1-A.
 Alpha  occ. eigenvalues --  -10.19968 -10.19534 -10.19424 -10.19170 -10.19163
 Alpha  occ. eigenvalues --  -10.19085 -10.19018  -0.86080  -0.77565  -0.74836
 Alpha  occ. eigenvalues --   -0.68634  -0.61050  -0.58385  -0.51375  -0.46644
 Alpha  occ. eigenvalues --   -0.45547  -0.42497  -0.41545  -0.40717  -0.39948
 Alpha  occ. eigenvalues --   -0.35501  -0.34717  -0.33824  -0.25584  -0.24306
 Alpha virt. eigenvalues --   -0.01518  -0.00665   0.00557   0.01907   0.02492
 Alpha virt. eigenvalues --    0.04236   0.04664   0.05172   0.06554   0.06910
 Alpha virt. eigenvalues --    0.07767   0.08225   0.08929   0.10334   0.12187

  Beta  occ. eigenvalues --  -10.19968 -10.19534 -10.19424 -10.19170 -10.19163
  Beta  occ. eigenvalues --  -10.19085 -10.19018  -0.86080  -0.77565  -0.74836
  Beta  occ. eigenvalues --   -0.68634  -0.61050  -0.58385  -0.51375  -0.46644
  Beta  occ. eigenvalues --   -0.45547  -0.42497  -0.41545  -0.40717  -0.39948
  Beta  occ. eigenvalues --   -0.35501  -0.34717  -0.33824  -0.25584  -0.24306
  Beta virt. eigenvalues --   -0.01518  -0.00665   0.00557   0.01907   0.02492
  Beta virt. eigenvalues --    0.04236   0.04664   0.05172   0.06554   0.06910
  Beta virt. eigenvalues --    0.07767   0.08225   0.08929   0.10334   0.12187

 Mulliken charges and spin densities:
               1          2
     1  C    0.520950   0.000000
     2  C   -0.987009   0.000000
     3  H    0.201685  -0.000000
     4  C    0.092868  -0.000000
     5  C   -0.700654  -0.000000
     6  C   -0.098126   0.000000
     7  C   -0.175394   0.000000
     8  H    0.172653   0.000000
     9  C   -0.177183  -0.000000
    10  H    0.177730  -0.000000
    11  H    0.176606  -0.000000
    12  H    0.174999  -0.000000
    13  H    0.225008  -0.000000
    14  H    0.222562  -0.000000
    15  H    0.173305   0.000000
 Sum of Mulliken charges =  -0.00000  -0.00000

 Dipole moment (field-independent basis, Debye):
    X=             -0.4016    Y=             -0.0721    Z=              0.0409  Tot=              0.4101
 Quadrupole moment (field-independent basis, Debye-Ang):
   XX=            -39.0826   YY=            -39.1214   ZZ=            -46.8346
   XY=              0.3321   XZ=             -0.0253   YZ=             -0.0895

 Normal termination of Gaussian 16 at Thu Oct 12 15:25:40 2023.
