 Gaussian 16, Revision A.03,
 Gaussian 16:  ES64L-G16RevA.03 25-Dec-2016

 ------------------
 # ub3lyp/6-31+g(d)
 ------------------

 -------------------
 tmpdir/M3_ref_6.gjf
 -------------------
 Symbolic Z-matrix:
 Charge =  0 Multiplicity = 1

                         Standard orientation:
 ---------------------------------------------------------------------
 Center     Atomic      Atomic             Coordinates (Angstroms)
 Number     Number       Type             X           Y           Z
 ---------------------------------------------------------------------
      1          6           0        0.890038    0.106704   -0.026224
      2          6           0        2.412421    0.028993    0.008453
      3          1           0        2.877169    1.017268   -0.014285
      4          6           0        0.119080    1.260486   -0.006055
      5          6           0        0.277652   -1.155235   -0.013126
      6          6           0       -1.272848    1.154181    0.002083
      7          1           0        0.596270    2.237297   -0.004536
      8          6           0       -1.104103   -1.258375    0.002782
      9          6           0       -1.880863   -0.097348    0.005510
     10          1           0       -1.882592    2.052972    0.005187
     11          1           0       -1.579082   -2.236136    0.014494
     12          1           0       -2.964192   -0.173484    0.012239
     13          1           0        2.574332   -0.513380    0.959442
     14          1           0        2.737036   -0.632578   -0.808128
     15          1           0        0.992796   -1.988397   -0.004954
 ---------------------------------------------------------------------

 SCF Done:  E(UB3LYP) =  -271.568530208     A.U. after   12 cycles

 The electronic state is 1-A.
 Alpha  occ. eigenvalues --  -10.19941 -10.19480 -10.19388 -10.19127 -10.19105
 Alpha  occ. eigenvalues --  -10.19027 -10.18963  -0.86051  -0.77571  -0.74842
 Alpha  occ. eigenvalues --   -0.68560  -0.61007  -0.58263  -0.51285  -0.46497
 Alpha  occ. eigenvalues --   -0.45507  -0.42679  -0.42489  -0.40325  -0.39659
 Alpha  occ. eigenvalues --   -0.35675  -0.34545  -0.33655  -0.25581  -0.24260
 Alpha virt. eigenvalues --   -0.01462  -0.00592   0.00598   0.01990   0.02504
 Alpha virt. eigenvalues --    0.04275   0.04707   0.05091   0.06432   0.06908
 Alpha virt. eigenvalues --    0.07845   0.08207   0.08919   0.10256   0.12360

  Beta  occ. eigenvalues --  -10.19941 -10.19480 -10.19388 -10.19127 -10.19105
  Beta  occ. eigenvalues --  -10.19027 -10.18963  -0.86051  -0.77571  -0.74842
  Beta  occ. eigenvalues --   -0.68560  -0.61007  -0.58263  -0.51285  -0.46497
  Beta  occ. eigenvalues --   -0.45507  -0.42679  -0.42489  -0.40325  -0.39659
  Beta  occ. eigenvalues --   -0.35675  -0.34545  -0.33655  -0.25581  -0.24260
  Beta virt. eigenvalues --   -0.01462  -0.00592   0.00598   0.01990   0.02504
  Beta virt. eigenvalues --    0.04275   0.04707   0.05091   0.06432   0.06908
  Beta virt. eigenvalues --    0.07845   0.08207   0.08919   0.10256   0.12360

 Mulliken charges and spin densities:
               1          2
     1  C    0.415738  -0.000000
     2  C   -0.929222   0.000000
     3  H    0.201175   0.000000
     4  C   -0.649346   0.000000
     5  C    0.094846  -0.000000
     6  C   -0.174763  -0.000000
     7  H    0.172440   0.000000
     8  C   -0.101407  -0.000000
     9  C   -0.177461   0.000000
    10  H    0.176317   0.000000
    11  H    0.177172   0.000000
    12  H    0.174647   0.000000
    13  H    0.221885   0.000000
    14  H    0.223364  -0.000000
    15  H    0.174613   0.000000
 Sum of Mulliken charges =  -0.00000  -0.00000

 Dipole moment (field-independent basis, Debye):
    X=              0.3960    Y=             -0.0441    Z=              0.0491  Tot=              0.4014
 Quadrupole moment (field-independent basis, Debye-Ang):
   XX=            -39.4635   YY=            -39.2032   ZZ=            -46.5992
   XY=             -0.1622   XZ=             -0.1050   YZ=             -0.0223

 Normal termination of Gaussian 16 at Thu Oct 12 15:24:05 2023.
