 Gaussian 16, Revision A.03,
 Gaussian 16:  ES64L-G16RevA.03 25-Dec-2016

 ------------------
 # ub3lyp/6-31+g(d)
 ------------------

 --------------------
 tmpdir/M3_ref_24.gjf
 --------------------
 Symbolic Z-matrix:
 Charge =  0 Multiplicity = 3

                         Standard orientation:
 ---------------------------------------------------------------------
 Center     Atomic      Atomic             Coordinates (Angstroms)
 Number     Number       Type             X           Y           Z
 ---------------------------------------------------------------------
      1          6           0       -0.737851   -0.051066    0.095911
      2          6           0        0.738494   -0.053956   -0.098380
      3          1           0        1.363808   -0.651574    0.566794
      4          1           0       -1.104577    0.972378    0.302883
      5          1           0       -1.366919   -0.661436   -0.552753
      6          1           0        1.103828    0.970768   -0.302113
 ---------------------------------------------------------------------

 SCF Done:  E(UB3LYP) =  -78.4734531953     A.U. after   11 cycles

 The electronic state is 3-A.
 Alpha  occ. eigenvalues --  -10.21353 -10.21312  -0.76549  -0.60717  -0.46042
 Alpha  occ. eigenvalues --   -0.41288  -0.40273  -0.27620  -0.19181
 Alpha virt. eigenvalues --    0.02046   0.03086   0.05124   0.06028   0.08481
 Alpha virt. eigenvalues --    0.09159   0.10033   0.15080   0.17354   0.19476
 Alpha virt. eigenvalues --    0.24678   0.26070   0.28114   0.61600   0.64857

  Beta  occ. eigenvalues --  -10.19985 -10.19945  -0.72346  -0.57117  -0.44059
  Beta  occ. eigenvalues --   -0.38963  -0.38476
  Beta virt. eigenvalues --   -0.11629  -0.03376   0.02534   0.03392   0.05406
  Beta virt. eigenvalues --    0.06783   0.08530   0.09994   0.12027   0.15681
  Beta virt. eigenvalues --    0.18926   0.21405   0.26030   0.27908   0.30682

 Mulliken charges and spin densities:
               1          2
     1  C   -0.381595   1.023561
     2  C   -0.384168   1.020304
     3  H    0.197326  -0.010299
     4  H    0.185632  -0.010916
     5  H    0.197621  -0.012050
     6  H    0.185184  -0.010600
 Sum of Mulliken charges =   0.00000   2.00000

 Dipole moment (field-independent basis, Debye):
    X=             -0.0050    Y=              0.5566    Z=              0.0103  Tot=              0.5567
 Quadrupole moment (field-independent basis, Debye-Ang):
   XX=            -14.1952   YY=            -13.2229   ZZ=            -15.4654
   XY=              0.0150   XZ=              1.4009   YZ=              0.0034

 Normal termination of Gaussian 16 at Thu Oct 12 15:25:29 2023.
