 Gaussian 16, Revision A.03,
 Gaussian 16:  ES64L-G16RevA.03 25-Dec-2016

 ------------------
 # ub3lyp/6-31+g(d)
 ------------------

 --------------------
 tmpdir/M3_ref_19.gjf
 --------------------
 Symbolic Z-matrix:
 Charge =  0 Multiplicity = 1

                         Standard orientation:
 ---------------------------------------------------------------------
 Center     Atomic      Atomic             Coordinates (Angstroms)
 Number     Number       Type             X           Y           Z
 ---------------------------------------------------------------------
      1          1           0        1.929852    0.615251   -0.037374
      2          6           0        1.139954   -0.137984   -0.001448
      3          6           0       -0.262410    0.467964   -0.019222
      4          1           0        1.205062   -0.868761   -0.818382
      5          1           0        1.099438   -0.691056    0.956418
      6          8           0       -1.136418   -0.322260    0.000690
      7          1           0       -0.408275    1.542765    0.017829
 ---------------------------------------------------------------------

 SCF Done:  E(UB3LYP) =  -153.828907687     A.U. after   11 cycles

 The electronic state is 1-A.
 Alpha  occ. eigenvalues --  -19.16282 -10.28684 -10.19974  -1.08070  -0.74912
 Alpha  occ. eigenvalues --   -0.59708  -0.48978  -0.45757  -0.43979  -0.41233
 Alpha  occ. eigenvalues --   -0.37401  -0.26478
 Alpha virt. eigenvalues --   -0.03742   0.01244   0.02484   0.04728   0.04945
 Alpha virt. eigenvalues --    0.07233   0.07802   0.09360   0.14223   0.16780
 Alpha virt. eigenvalues --    0.17528   0.20445   0.22619   0.25157   0.25242

  Beta  occ. eigenvalues --  -19.16282 -10.28684 -10.19974  -1.08070  -0.74912
  Beta  occ. eigenvalues --   -0.59708  -0.48978  -0.45757  -0.43979  -0.41233
  Beta  occ. eigenvalues --   -0.37401  -0.26478
  Beta virt. eigenvalues --   -0.03742   0.01244   0.02484   0.04728   0.04945
  Beta virt. eigenvalues --    0.07233   0.07802   0.09360   0.14223   0.16780
  Beta virt. eigenvalues --    0.17528   0.20445   0.22619   0.25157   0.25242

 Mulliken charges and spin densities:
               1          2
     1  H    0.196214   0.000000
     2  C   -0.708994   0.000000
     3  C    0.225605  -0.000000
     4  H    0.235773   0.000000
     5  H    0.230927   0.000000
     6  O   -0.341064   0.000000
     7  H    0.161539   0.000000
 Sum of Mulliken charges =  -0.00000  -0.00000

 Dipole moment (field-independent basis, Debye):
    X=              2.1058    Y=              1.3734    Z=              0.0072  Tot=              2.5141
 Quadrupole moment (field-independent basis, Debye-Ang):
   XX=            -21.7391   YY=            -17.9724   ZZ=            -17.9225
   XY=             -1.2869   XZ=             -0.0992   YZ=              0.0426

 Normal termination of Gaussian 16 at Thu Oct 12 15:25:20 2023.
