 Gaussian 16, Revision A.03,
 Gaussian 16:  ES64L-G16RevA.03 25-Dec-2016

 ----------------
 # 6-31g(d) wb97x
 ----------------

 -----------------------
 tmpdir/M1_conf_2_13.gjf
 -----------------------
 Symbolic Z-matrix:
 Charge =  0 Multiplicity = 1

                         Standard orientation:
 ---------------------------------------------------------------------
 Center     Atomic      Atomic             Coordinates (Angstroms)
 Number     Number       Type             X           Y           Z
 ---------------------------------------------------------------------
      1          6           0       -0.006483    0.002219   -0.000157
      2          1           0        0.300142   -0.703357   -0.778164
      3          1           0        0.399860   -0.358754    0.950512
      4          1           0        0.451661    0.972696   -0.215574
      5          1           0       -1.112766    0.076103    0.044171
 ---------------------------------------------------------------------

 SCF Done:  E(RwB97X) =  -40.4990949667     A.U. after   11 cycles

 The electronic state is 1-A.
 Alpha  occ. eigenvalues --  -10.25109  -0.81627  -0.49747  -0.49302  -0.49141
 Alpha virt. eigenvalues --    0.21502   0.27316   0.27394   0.27475   0.63883
 Alpha virt. eigenvalues --    0.63953   0.64794   1.01107   1.01418   1.01617
 Alpha virt. eigenvalues --    1.06638   1.20701   1.75860   1.75913   2.32934

 Mulliken charges:
               1
     1  C   -0.665407
     2  H    0.166541
     3  H    0.166294
     4  H    0.167017
     5  H    0.165554
 Sum of Mulliken charges =  -0.00000

 Dipole moment (field-independent basis, Debye):
    X=              0.0385    Y=             -0.0098    Z=             -0.0007  Tot=              0.0397
 Quadrupole moment (field-independent basis, Debye-Ang):
   XX=             -8.1491   YY=             -8.3066   ZZ=             -8.3385
   XY=              0.0026   XZ=             -0.0005   YZ=              0.0000

 Normal termination of Gaussian 16 at Fri Sep 22 16:29:41 2023.
