 Gaussian 16, Revision A.03,
 Gaussian 16:  ES64L-G16RevA.03 25-Dec-2016

 ----------------
 # 6-31g(d) wb97x
 ----------------

 -----------------------
 tmpdir/M1_conf_1_12.gjf
 -----------------------
 Symbolic Z-matrix:
 Charge =  0 Multiplicity = 1

                         Standard orientation:
 ---------------------------------------------------------------------
 Center     Atomic      Atomic             Coordinates (Angstroms)
 Number     Number       Type             X           Y           Z
 ---------------------------------------------------------------------
      1          6           0        0.001917   -0.012667   -0.000970
      2          1           0        0.114876    0.607382    0.894689
      3          1           0       -0.141926    0.688644   -0.832334
      4          1           0       -0.921632   -0.630238    0.090333
      5          1           0        0.937181   -0.589789   -0.146869
 ---------------------------------------------------------------------

 SCF Done:  E(RwB97X) =  -40.4981303369     A.U. after   11 cycles

 The electronic state is 1-A.
 Alpha  occ. eigenvalues --  -10.25354  -0.81485  -0.50059  -0.49023  -0.48779
 Alpha virt. eigenvalues --    0.21313   0.26973   0.27189   0.27450   0.63759
 Alpha virt. eigenvalues --    0.64126   0.65334   1.00132   1.00902   1.01542
 Alpha virt. eigenvalues --    1.06217   1.20621   1.75917   1.76145   2.31096

 Mulliken charges:
               1
     1  C   -0.663771
     2  H    0.166056
     3  H    0.165645
     4  H    0.165016
     5  H    0.167053
 Sum of Mulliken charges =  -0.00000

 Dipole moment (field-independent basis, Debye):
    X=             -0.0016    Y=              0.0652    Z=              0.0055  Tot=              0.0654
 Quadrupole moment (field-independent basis, Debye-Ang):
   XX=             -8.0826   YY=             -8.3302   ZZ=             -8.4293
   XY=             -0.0094   XZ=              0.0009   YZ=              0.0034

 Normal termination of Gaussian 16 at Fri Sep 22 16:29:35 2023.
