 Gaussian 16, Revision A.03,
 Gaussian 16:  ES64L-G16RevA.03 25-Dec-2016

 ----------------
 # 6-31g(d) wb97x
 ----------------

 ----------------------
 tmpdir/M1_conf_1_3.gjf
 ----------------------
 Symbolic Z-matrix:
 Charge =  0 Multiplicity = 1

                         Standard orientation:
 ---------------------------------------------------------------------
 Center     Atomic      Atomic             Coordinates (Angstroms)
 Number     Number       Type             X           Y           Z
 ---------------------------------------------------------------------
      1          6           0       -0.020510    0.006197   -0.003559
      2          1           0        0.065458   -0.112482    1.083482
      3          1           0       -0.284067    1.043592   -0.255603
      4          1           0        1.088320   -0.228016   -0.406635
      5          1           0       -0.746651   -0.740278   -0.399892
 ---------------------------------------------------------------------

 SCF Done:  E(RwB97X) =  -40.4921672234     A.U. after   12 cycles

 The electronic state is 1-A.
 Alpha  occ. eigenvalues --  -10.26406  -0.80855  -0.50044  -0.49479  -0.47144
 Alpha virt. eigenvalues --    0.20388   0.24876   0.27108   0.27493   0.63931
 Alpha virt. eigenvalues --    0.64663   0.66702   0.95164   1.00412   1.01572
 Alpha virt. eigenvalues --    1.03729   1.19931   1.76328   1.76557   2.25599

 Mulliken charges:
               1
     1  C   -0.650396
     2  H    0.169765
     3  H    0.172435
     4  H    0.139410
     5  H    0.168786
 Sum of Mulliken charges =   0.00000

 Dipole moment (field-independent basis, Debye):
    X=             -0.0277    Y=              0.0102    Z=              0.0688  Tot=              0.0749
 Quadrupole moment (field-independent basis, Debye-Ang):
   XX=             -8.3164   YY=             -8.2342   ZZ=             -8.4855
   XY=              0.0437   XZ=              0.1006   YZ=             -0.0296

 Normal termination of Gaussian 16 at Fri Sep 22 16:29:31 2023.
