 Gaussian 16, Revision A.03,
 Gaussian 16:  ES64L-G16RevA.03 25-Dec-2016

 ----------------
 # 6-31g(d) wb97x
 ----------------

 ----------------------
 tmpdir/M1_conf_2_7.gjf
 ----------------------
 Symbolic Z-matrix:
 Charge =  0 Multiplicity = 1

                         Standard orientation:
 ---------------------------------------------------------------------
 Center     Atomic      Atomic             Coordinates (Angstroms)
 Number     Number       Type             X           Y           Z
 ---------------------------------------------------------------------
      1          6           0       -0.544512   -0.006741   -0.004442
      2          8           0        0.688755    0.002086    0.001062
      3          1           0       -1.117711   -0.900118    0.009305
      4          1           0       -1.125253    0.923873    0.008852
 ---------------------------------------------------------------------

 SCF Done:  E(RwB97X) =  -114.463919922     A.U. after   14 cycles

 The electronic state is 1-A.
 Alpha  occ. eigenvalues --  -19.23506 -10.36871  -1.16912  -0.76930  -0.60929
 Alpha  occ. eigenvalues --   -0.55332  -0.49510  -0.37063
 Alpha virt. eigenvalues --    0.05242   0.20969   0.28860   0.31299   0.62002
 Alpha virt. eigenvalues --    0.71798   0.73044   0.78524   0.94865   0.96306
 Alpha virt. eigenvalues --    1.02595   1.07665   1.17381   1.48050   1.60564

 Mulliken charges:
               1
     1  C    0.057221
     2  O   -0.346015
     3  H    0.149839
     4  H    0.138955
 Sum of Mulliken charges =  -0.00000

 Dipole moment (field-independent basis, Debye):
    X=             -2.4541    Y=             -0.0529    Z=              0.0013  Tot=              2.4546
 Quadrupole moment (field-independent basis, Debye-Ang):
   XX=            -11.7189   YY=            -11.4157   ZZ=            -11.4244
   XY=              0.0523   XZ=             -0.0084   YZ=              0.0004

 Normal termination of Gaussian 16 at Fri Sep 22 16:29:39 2023.
