 Gaussian 16, Revision A.03,
 Gaussian 16:  ES64L-G16RevA.03 25-Dec-2016

 ----------------
 # 6-31g(d) wb97x
 ----------------

 ----------------------
 tmpdir/M1_conf_2_8.gjf
 ----------------------
 Symbolic Z-matrix:
 Charge =  0 Multiplicity = 1

                         Standard orientation:
 ---------------------------------------------------------------------
 Center     Atomic      Atomic             Coordinates (Angstroms)
 Number     Number       Type             X           Y           Z
 ---------------------------------------------------------------------
      1          6           0       -0.002939    0.000258    0.004709
      2          1           0       -0.062182    0.938513   -0.547378
      3          1           0        0.291194   -0.797922   -0.685737
      4          1           0        0.774196    0.085591    0.768971
      5          1           0       -0.985576   -0.227733    0.435893
 ---------------------------------------------------------------------

 SCF Done:  E(RwB97X) =  -40.4993643939     A.U. after   11 cycles

 The electronic state is 1-A.
 Alpha  occ. eigenvalues --  -10.24919  -0.81747  -0.49941  -0.49399  -0.49090
 Alpha virt. eigenvalues --    0.21633   0.27319   0.27559   0.27723   0.63818
 Alpha virt. eigenvalues --    0.63972   0.64455   1.01316   1.01809   1.02236
 Alpha virt. eigenvalues --    1.06986   1.20753   1.75687   1.75981   2.34387

 Mulliken charges:
               1
     1  C   -0.667162
     2  H    0.167159
     3  H    0.165474
     4  H    0.167294
     5  H    0.167235
 Sum of Mulliken charges =   0.00000

 Dipole moment (field-independent basis, Debye):
    X=              0.0135    Y=              0.0041    Z=             -0.0194  Tot=              0.0240
 Quadrupole moment (field-independent basis, Debye-Ang):
   XX=             -8.1544   YY=             -8.2842   ZZ=             -8.3205
   XY=              0.0025   XZ=              0.0033   YZ=             -0.0078

 Normal termination of Gaussian 16 at Fri Sep 22 16:29:39 2023.
