 Gaussian 16, Revision A.03,
 Gaussian 16:  ES64L-G16RevA.03 25-Dec-2016

 ----------------
 # 6-31g(d) wb97x
 ----------------

 ----------------------
 tmpdir/M1_conf_1_4.gjf
 ----------------------
 Symbolic Z-matrix:
 Charge =  1 Multiplicity = 1

                         Standard orientation:
 ---------------------------------------------------------------------
 Center     Atomic      Atomic             Coordinates (Angstroms)
 Number     Number       Type             X           Y           Z
 ---------------------------------------------------------------------
      1          7           0       -0.005581    0.002661   -0.005220
      2          1           0        0.274330    0.913890   -0.373097
      3          1           0        0.357193   -0.069061    0.971665
      4          1           0        0.477490   -0.743027   -0.546880
      5          1           0       -1.069949   -0.120429   -0.015146
 ---------------------------------------------------------------------

 SCF Done:  E(RwB97X) =  -56.8736594222     A.U. after   10 cycles

 The electronic state is 1-A.
 Alpha  occ. eigenvalues --  -14.79108  -1.36562  -0.93209  -0.92829  -0.92128
 Alpha virt. eigenvalues --   -0.10750  -0.03002  -0.02499  -0.01559   0.44925
 Alpha virt. eigenvalues --    0.45292   0.47240   0.67070   0.68502   0.69320
 Alpha virt. eigenvalues --    0.71464   1.09940   1.36295   1.36406   2.04220

 Mulliken charges:
               1
     1  N   -0.886899
     2  H    0.469622
     3  H    0.468278
     4  H    0.470332
     5  H    0.478667
 Sum of Mulliken charges =   1.00000

 Dipole moment (field-independent basis, Debye):
    X=              0.0430    Y=             -0.0404    Z=              0.0648  Tot=              0.0876
 Quadrupole moment (field-independent basis, Debye-Ang):
   XX=             -4.0010   YY=             -4.4286   ZZ=             -4.5160
   XY=              0.0053   XZ=             -0.0062   YZ=             -0.0055

 Normal termination of Gaussian 16 at Fri Sep 22 16:29:31 2023.
