 Gaussian 16, Revision A.03,
 Gaussian 16:  ES64L-G16RevA.03 25-Dec-2016

 ----------------
 # 6-31g(d) wb97x
 ----------------

 -----------------------
 tmpdir/M1_conf_2_12.gjf
 -----------------------
 Symbolic Z-matrix:
 Charge =  0 Multiplicity = 1

                         Standard orientation:
 ---------------------------------------------------------------------
 Center     Atomic      Atomic             Coordinates (Angstroms)
 Number     Number       Type             X           Y           Z
 ---------------------------------------------------------------------
      1          6           0       -0.003968   -0.011383   -0.004892
      2          1           0       -0.013265    0.837144   -0.696669
      3          1           0        0.147700    0.415130    0.994111
      4          1           0        0.873839   -0.654394   -0.226074
      5          1           0       -0.984468   -0.529580   -0.042017
 ---------------------------------------------------------------------

 SCF Done:  E(RwB97X) =  -40.4982465193     A.U. after   11 cycles

 The electronic state is 1-A.
 Alpha  occ. eigenvalues --  -10.25310  -0.81514  -0.50066  -0.49086  -0.48764
 Alpha virt. eigenvalues --    0.21345   0.26989   0.27282   0.27439   0.63782
 Alpha virt. eigenvalues --    0.64072   0.65266   1.00214   1.01094   1.01538
 Alpha virt. eigenvalues --    1.06314   1.20666   1.75882   1.76129   2.31330

 Mulliken charges:
               1
     1  C   -0.664222
     2  H    0.166499
     3  H    0.165179
     4  H    0.165629
     5  H    0.166916
 Sum of Mulliken charges =  -0.00000

 Dipole moment (field-independent basis, Debye):
    X=              0.0145    Y=              0.0586    Z=              0.0216  Tot=              0.0641
 Quadrupole moment (field-independent basis, Debye-Ang):
   XX=             -8.0821   YY=             -8.3306   ZZ=             -8.4213
   XY=              0.0055   XZ=              0.0013   YZ=             -0.0055

 Normal termination of Gaussian 16 at Fri Sep 22 16:29:40 2023.
