 Gaussian 16, Revision A.03,
 Gaussian 16:  ES64L-G16RevA.03 25-Dec-2016

 ----------------
 # 6-31g(d) wb97x
 ----------------

 -----------------------
 tmpdir/M1_conf_1_14.gjf
 -----------------------
 Symbolic Z-matrix:
 Charge =  0 Multiplicity = 1

                         Standard orientation:
 ---------------------------------------------------------------------
 Center     Atomic      Atomic             Coordinates (Angstroms)
 Number     Number       Type             X           Y           Z
 ---------------------------------------------------------------------
      1          6           0       -0.004330    0.006093   -0.000817
      2          1           0        0.116361   -0.586960    0.911866
      3          1           0        0.231549   -0.658924   -0.841306
      4          1           0        0.726704    0.838812    0.011167
      5          1           0       -1.048634    0.370518   -0.076825
 ---------------------------------------------------------------------

 SCF Done:  E(RwB97X) =  -40.4989182349     A.U. after   11 cycles

 The electronic state is 1-A.
 Alpha  occ. eigenvalues --  -10.25284  -0.81510  -0.49683  -0.49313  -0.48981
 Alpha virt. eigenvalues --    0.21396   0.27188   0.27297   0.27316   0.63842
 Alpha virt. eigenvalues --    0.64309   0.64835   1.00915   1.01085   1.01232
 Alpha virt. eigenvalues --    1.06073   1.20584   1.75929   1.75998   2.32648

 Mulliken charges:
               1
     1  C   -0.663689
     2  H    0.166512
     3  H    0.166080
     4  H    0.165038
     5  H    0.166058
 Sum of Mulliken charges =  -0.00000

 Dipole moment (field-independent basis, Debye):
    X=              0.0193    Y=             -0.0367    Z=              0.0059  Tot=              0.0419
 Quadrupole moment (field-independent basis, Debye-Ang):
   XX=             -8.1693   YY=             -8.2772   ZZ=             -8.3802
   XY=             -0.0058   XZ=              0.0001   YZ=             -0.0022

 Normal termination of Gaussian 16 at Fri Sep 22 16:29:35 2023.
