 Gaussian 16, Revision A.03,
 Gaussian 16:  ES64L-G16RevA.03 25-Dec-2016

 ----------------
 # 6-31g(d) wb97x
 ----------------

 ----------------------
 tmpdir/M1_conf_1_7.gjf
 ----------------------
 Symbolic Z-matrix:
 Charge =  0 Multiplicity = 1

                         Standard orientation:
 ---------------------------------------------------------------------
 Center     Atomic      Atomic             Coordinates (Angstroms)
 Number     Number       Type             X           Y           Z
 ---------------------------------------------------------------------
      1          6           0       -0.538597   -0.003849   -0.006266
      2          8           0        0.683894    0.002702    0.001514
      3          1           0       -1.105840   -0.915921    0.012849
      4          1           0       -1.133729    0.917400    0.012635
 ---------------------------------------------------------------------

 SCF Done:  E(RwB97X) =  -114.465285515     A.U. after   14 cycles

 The electronic state is 1-A.
 Alpha  occ. eigenvalues --  -19.23491 -10.36858  -1.17502  -0.76598  -0.60954
 Alpha  occ. eigenvalues --   -0.55510  -0.49887  -0.37012
 Alpha virt. eigenvalues --    0.05534   0.20829   0.28833   0.31459   0.61900
 Alpha virt. eigenvalues --    0.72458   0.73114   0.79374   0.94566   0.96024
 Alpha virt. eigenvalues --    1.02008   1.07669   1.17422   1.48372   1.61091

 Mulliken charges:
               1
     1  C    0.058692
     2  O   -0.340233
     3  H    0.143770
     4  H    0.137771
 Sum of Mulliken charges =  -0.00000

 Dipole moment (field-independent basis, Debye):
    X=             -2.4054    Y=             -0.0344    Z=              0.0012  Tot=              2.4056
 Quadrupole moment (field-independent basis, Debye-Ang):
   XX=            -11.7583   YY=            -11.4296   ZZ=            -11.4127
   XY=              0.0133   XZ=             -0.0117   YZ=              0.0000

 Normal termination of Gaussian 16 at Fri Sep 22 16:29:33 2023.
