 Gaussian 16, Revision A.03,
 Gaussian 16:  ES64L-G16RevA.03 25-Dec-2016

 ----------------
 # 6-31g(d) wb97x
 ----------------

 ----------------------
 tmpdir/M1_conf_0_0.gjf
 ----------------------
 Symbolic Z-matrix:
 Charge = -1 Multiplicity = 1

                         Standard orientation:
 ---------------------------------------------------------------------
 Center     Atomic      Atomic             Coordinates (Angstroms)
 Number     Number       Type             X           Y           Z
 ---------------------------------------------------------------------
      1          6           0       -0.070141    0.369080   -0.008701
      2          8           0       -1.109114   -0.249485    0.002257
      3          8           0        1.172462   -0.206326    0.001917
      4          1           0       -0.085934    1.432009    0.018811
 ---------------------------------------------------------------------

 SCF Done:  E(RwB97X) =  -189.110191421     A.U. after   15 cycles

 The electronic state is 1-A.
 Alpha  occ. eigenvalues --  -18.92446 -18.88718 -10.11252  -0.90597  -0.76668
 Alpha  occ. eigenvalues --   -0.44674  -0.30575  -0.25338  -0.25149  -0.10173
 Alpha  occ. eigenvalues --   -0.08672  -0.07399
 Alpha virt. eigenvalues --    0.38669   0.46286   0.62249   0.64374   0.87857
 Alpha virt. eigenvalues --    0.92511   1.05362   1.07325   1.20485   1.22574
 Alpha virt. eigenvalues --    1.26518   1.33036   1.38698   1.42868   1.44660

 Mulliken charges:
               1
     1  C    0.286024
     2  O   -0.547271
     3  O   -0.703426
     4  H   -0.035327
 Sum of Mulliken charges =  -1.00000

 Dipole moment (field-independent basis, Debye):
    X=             -0.9568    Y=              1.6544    Z=             -0.0179  Tot=              1.9112
 Quadrupole moment (field-independent basis, Debye-Ang):
   XX=            -27.0961   YY=            -18.8283   ZZ=            -17.5711
   XY=             -0.1039   XZ=              0.0071   YZ=             -0.0095

 Normal termination of Gaussian 16 at Fri Sep 22 16:29:26 2023.
