 Gaussian 16, Revision A.03,
 Gaussian 16:  ES64L-G16RevA.03 25-Dec-2016

 ----------------
 # 6-31g(d) wb97x
 ----------------

 -----------------------
 tmpdir/M1_conf_1_15.gjf
 -----------------------
 Symbolic Z-matrix:
 Charge =  0 Multiplicity = 1

                         Standard orientation:
 ---------------------------------------------------------------------
 Center     Atomic      Atomic             Coordinates (Angstroms)
 Number     Number       Type             X           Y           Z
 ---------------------------------------------------------------------
      1          6           0       -0.006127   -0.000595   -0.001749
      2          1           0        0.450964   -0.847607   -0.524311
      3          1           0        0.420280    0.034512    1.009344
      4          1           0        0.274668    0.920292   -0.516081
      5          1           0       -1.109152   -0.103627    0.041541
 ---------------------------------------------------------------------

 SCF Done:  E(RwB97X) =  -40.4991474843     A.U. after   11 cycles

 The electronic state is 1-A.
 Alpha  occ. eigenvalues --  -10.25107  -0.81626  -0.49716  -0.49387  -0.49092
 Alpha virt. eigenvalues --    0.21507   0.27301   0.27356   0.27535   0.63910
 Alpha virt. eigenvalues --    0.63962   0.64748   1.01147   1.01301   1.01749
 Alpha virt. eigenvalues --    1.06589   1.20689   1.75852   1.75922   2.33100

 Mulliken charges:
               1
     1  C   -0.665365
     2  H    0.166742
     3  H    0.165446
     4  H    0.167577
     5  H    0.165600
 Sum of Mulliken charges =  -0.00000

 Dipole moment (field-independent basis, Debye):
    X=              0.0356    Y=              0.0066    Z=              0.0019  Tot=              0.0363
 Quadrupole moment (field-independent basis, Debye-Ang):
   XX=             -8.1587   YY=             -8.2983   ZZ=             -8.3367
   XY=              0.0003   XZ=             -0.0047   YZ=             -0.0039

 Normal termination of Gaussian 16 at Fri Sep 22 16:29:35 2023.
