 Gaussian 16, Revision A.03,
 Gaussian 16:  ES64L-G16RevA.03 25-Dec-2016

 ----------------
 # 6-31g(d) wb97x
 ----------------

 -----------------------
 tmpdir/M1_conf_1_11.gjf
 -----------------------
 Symbolic Z-matrix:
 Charge =  0 Multiplicity = 1

                         Standard orientation:
 ---------------------------------------------------------------------
 Center     Atomic      Atomic             Coordinates (Angstroms)
 Number     Number       Type             X           Y           Z
 ---------------------------------------------------------------------
      1          6           0        0.012328   -0.003942   -0.007524
      2          1           0        0.277375    0.429426    0.969161
      3          1           0       -0.988115   -0.626628    0.112452
      4          1           0        0.867784   -0.625211   -0.360928
      5          1           0       -0.231013    0.846068   -0.675539
 ---------------------------------------------------------------------

 SCF Done:  E(RwB97X) =  -40.4934953215     A.U. after   12 cycles

 The electronic state is 1-A.
 Alpha  occ. eigenvalues --  -10.26350  -0.80866  -0.50101  -0.48792  -0.47783
 Alpha virt. eigenvalues --    0.20510   0.25299   0.26894   0.27316   0.63803
 Alpha virt. eigenvalues --    0.64897   0.66625   0.96150   0.99874   1.01089
 Alpha virt. eigenvalues --    1.03957   1.19773   1.76216   1.76759   2.26205

 Mulliken charges:
               1
     1  C   -0.651872
     2  H    0.167804
     3  H    0.147106
     4  H    0.169296
     5  H    0.167666
 Sum of Mulliken charges =  -0.00000

 Dipole moment (field-independent basis, Debye):
    X=              0.0262    Y=              0.0683    Z=              0.0272  Tot=              0.0781
 Quadrupole moment (field-independent basis, Debye-Ang):
   XX=             -8.1713   YY=             -8.3471   ZZ=             -8.5040
   XY=             -0.1011   XZ=              0.0149   YZ=              0.0168

 Normal termination of Gaussian 16 at Fri Sep 22 16:29:34 2023.
