 Gaussian 16, Revision A.03,
 Gaussian 16:  ES64L-G16RevA.03 25-Dec-2016

 ----------------
 # 6-31g(d) wb97x
 ----------------

 ----------------------
 tmpdir/M1_conf_1_1.gjf
 ----------------------
 Symbolic Z-matrix:
 Charge =  0 Multiplicity = 1

                         Standard orientation:
 ---------------------------------------------------------------------
 Center     Atomic      Atomic             Coordinates (Angstroms)
 Number     Number       Type             X           Y           Z
 ---------------------------------------------------------------------
      1          6           0        0.665143   -0.006182   -0.011395
      2          6           0       -0.666020   -0.002575   -0.019664
      3          1           0       -1.193474    0.940638    0.006091
      4          1           0        1.242540    0.945142    0.083619
      5          1           0        1.241980   -0.947287   -0.002165
      6          1           0       -1.285785   -0.885954    0.098807
 ---------------------------------------------------------------------

 SCF Done:  E(RwB97X) =  -78.5548204758     A.U. after   13 cycles

 The electronic state is 1-A.
 Alpha  occ. eigenvalues --  -10.27253 -10.26651  -0.88366  -0.69312  -0.57425
 Alpha  occ. eigenvalues --   -0.52057  -0.45203  -0.36752
 Alpha virt. eigenvalues --    0.11095   0.21712   0.23604   0.25678   0.34804
 Alpha virt. eigenvalues --    0.42812   0.58513   0.65591   0.67685   0.74975
 Alpha virt. eigenvalues --    0.76139   0.81764   0.95591   0.99133   1.03532

 Mulliken charges:
               1
     1  C   -0.322994
     2  C   -0.320447
     3  H    0.159248
     4  H    0.159379
     5  H    0.159712
     6  H    0.165102
 Sum of Mulliken charges =  -0.00000

 Dipole moment (field-independent basis, Debye):
    X=             -0.0187    Y=              0.0067    Z=              0.1713  Tot=              0.1725
 Quadrupole moment (field-independent basis, Debye-Ang):
   XX=            -11.9475   YY=            -12.0729   ZZ=            -15.1344
   XY=              0.0687   XZ=             -0.0382   YZ=              0.0014

 Normal termination of Gaussian 16 at Fri Sep 22 16:29:32 2023.
