 Gaussian 16, Revision A.03,
 Gaussian 16:  ES64L-G16RevA.03 25-Dec-2016

 ----------------
 # 6-31g(d) wb97x
 ----------------

 ----------------------
 tmpdir/M1_conf_0_9.gjf
 ----------------------
 Symbolic Z-matrix:
 Charge =  0 Multiplicity = 1

                         Standard orientation:
 ---------------------------------------------------------------------
 Center     Atomic      Atomic             Coordinates (Angstroms)
 Number     Number       Type             X           Y           Z
 ---------------------------------------------------------------------
      1          6           0       -0.009451   -0.014675   -0.065977
      2          1           0        0.183513    0.156264    1.032363
      3          1           0        0.882817   -0.637924   -0.258622
      4          1           0        0.028766    1.054433   -0.334779
      5          1           0       -1.038391   -0.484721   -0.043098
 ---------------------------------------------------------------------

 SCF Done:  E(RwB97X) =  -40.4828038628     A.U. after   12 cycles

 The electronic state is 1-A.
 Alpha  occ. eigenvalues --  -10.25959  -0.81595  -0.51086  -0.50318  -0.45222
 Alpha virt. eigenvalues --    0.20427   0.24480   0.27048   0.27796   0.63692
 Alpha virt. eigenvalues --    0.65248   0.66372   0.95244   1.00354   1.02317
 Alpha virt. eigenvalues --    1.06420   1.23307   1.76383   1.77329   2.26666

 Mulliken charges:
               1
     1  C   -0.672784
     2  H    0.149402
     3  H    0.177234
     4  H    0.174611
     5  H    0.171537
 Sum of Mulliken charges =  -0.00000

 Dipole moment (field-independent basis, Debye):
    X=              0.0629    Y=              0.0669    Z=              0.3013  Tot=              0.3150
 Quadrupole moment (field-independent basis, Debye-Ang):
   XX=             -7.9226   YY=             -8.0658   ZZ=             -9.0689
   XY=             -0.0252   XZ=             -0.0349   YZ=             -0.0216

 Normal termination of Gaussian 16 at Fri Sep 22 16:29:27 2023.
