 Gaussian 16, Revision A.03,
 Gaussian 16:  ES64L-G16RevA.03 25-Dec-2016

 ----------------
 # 6-31g(d) wb97x
 ----------------

 -----------------------
 tmpdir/M1_conf_0_14.gjf
 -----------------------
 Symbolic Z-matrix:
 Charge =  0 Multiplicity = 1

                         Standard orientation:
 ---------------------------------------------------------------------
 Center     Atomic      Atomic             Coordinates (Angstroms)
 Number     Number       Type             X           Y           Z
 ---------------------------------------------------------------------
      1          6           0       -0.005435   -0.014952   -0.000213
      2          1           0       -0.054039    0.743350   -0.794011
      3          1           0        0.283044    0.522705    0.912892
      4          1           0        0.795112   -0.713426   -0.233909
      5          1           0       -0.991507   -0.462919    0.116307
 ---------------------------------------------------------------------

 SCF Done:  E(RwB97X) =  -40.4986012184     A.U. after   11 cycles

 The electronic state is 1-A.
 Alpha  occ. eigenvalues --  -10.24902  -0.81784  -0.50577  -0.49116  -0.48741
 Alpha virt. eigenvalues --    0.21627   0.27195   0.27300   0.28088   0.63755
 Alpha virt. eigenvalues --    0.63924   0.64588   1.00920   1.01261   1.03191
 Alpha virt. eigenvalues --    1.07201   1.20968   1.75688   1.76022   2.33947

 Mulliken charges:
               1
     1  C   -0.668340
     2  H    0.163488
     3  H    0.163922
     4  H    0.170018
     5  H    0.170913
 Sum of Mulliken charges =  -0.00000

 Dipole moment (field-independent basis, Debye):
    X=              0.0189    Y=              0.0446    Z=              0.0000  Tot=              0.0484
 Quadrupole moment (field-independent basis, Debye-Ang):
   XX=             -8.0576   YY=             -8.3203   ZZ=             -8.3830
   XY=             -0.0013   XZ=             -0.0144   YZ=              0.0069

 Normal termination of Gaussian 16 at Fri Sep 22 16:29:29 2023.
