 Gaussian 16, Revision A.03,
 Gaussian 16:  ES64L-G16RevA.03 25-Dec-2016

 ----------------
 # 6-31g(d) wb97x
 ----------------

 ----------------------
 tmpdir/M1_conf_2_0.gjf
 ----------------------
 Symbolic Z-matrix:
 Charge = -1 Multiplicity = 1

                         Standard orientation:
 ---------------------------------------------------------------------
 Center     Atomic      Atomic             Coordinates (Angstroms)
 Number     Number       Type             X           Y           Z
 ---------------------------------------------------------------------
      1          6           0       -0.004408    0.355816   -0.009272
      2          8           0       -1.124468   -0.225354    0.002283
      3          8           0        1.128489   -0.222591    0.002260
      4          1           0       -0.005714    1.448662    0.019284
 ---------------------------------------------------------------------

 SCF Done:  E(RwB97X) =  -189.126311037     A.U. after   15 cycles

 The electronic state is 1-A.
 Alpha  occ. eigenvalues --  -18.90636 -18.90399 -10.11135  -0.89034  -0.79810
 Alpha  occ. eigenvalues --   -0.43496  -0.29994  -0.25776  -0.24857  -0.09720
 Alpha  occ. eigenvalues --   -0.09686  -0.08727
 Alpha virt. eigenvalues --    0.39475   0.46213   0.63326   0.65425   0.87777
 Alpha virt. eigenvalues --    0.97899   1.01061   1.08062   1.20252   1.23239
 Alpha virt. eigenvalues --    1.23646   1.33272   1.38807   1.43314   1.44037

 Mulliken charges:
               1
     1  C    0.298217
     2  O   -0.614765
     3  O   -0.625358
     4  H   -0.058094
 Sum of Mulliken charges =  -1.00000

 Dipole moment (field-independent basis, Debye):
    X=             -0.0611    Y=              1.4938    Z=             -0.0220  Tot=              1.4953
 Quadrupole moment (field-independent basis, Debye-Ang):
   XX=            -26.8829   YY=            -19.0703   ZZ=            -17.5501
   XY=             -0.0058   XZ=              0.0005   YZ=             -0.0120

 Normal termination of Gaussian 16 at Fri Sep 22 16:29:38 2023.
