 Gaussian 16, Revision A.03,
 Gaussian 16:  ES64L-G16RevA.03 25-Dec-2016

 ----------------
 # 6-31g(d) wb97x
 ----------------

 ----------------------
 tmpdir/M1_conf_0_1.gjf
 ----------------------
 Symbolic Z-matrix:
 Charge =  0 Multiplicity = 1

                         Standard orientation:
 ---------------------------------------------------------------------
 Center     Atomic      Atomic             Coordinates (Angstroms)
 Number     Number       Type             X           Y           Z
 ---------------------------------------------------------------------
      1          6           0        0.761731    0.003872   -0.026445
      2          6           0       -0.767364   -0.005739    0.004818
      3          1           0       -1.265585    0.956113   -0.003567
      4          1           0        1.216584    0.960438    0.067981
      5          1           0        1.364440   -0.923822    0.052751
      6          1           0       -1.281645   -0.981527    0.012601
 ---------------------------------------------------------------------

 SCF Done:  E(RwB97X) =  -78.5199988702     A.U. after   13 cycles

 The electronic state is 1-A.
 Alpha  occ. eigenvalues --  -10.29468 -10.29170  -0.84791  -0.70675  -0.56833
 Alpha  occ. eigenvalues --   -0.48604  -0.47999  -0.33631
 Alpha virt. eigenvalues --    0.07160   0.21044   0.24221   0.25639   0.33330
 Alpha virt. eigenvalues --    0.35467   0.63120   0.65638   0.67526   0.70463
 Alpha virt. eigenvalues --    0.73357   0.75954   0.97508   1.00727   1.01896

 Mulliken charges:
               1
     1  C   -0.344514
     2  C   -0.345176
     3  H    0.175021
     4  H    0.171178
     5  H    0.171142
     6  H    0.172347
 Sum of Mulliken charges =  -0.00000

 Dipole moment (field-independent basis, Debye):
    X=             -0.0053    Y=              0.0251    Z=              0.1282  Tot=              0.1308
 Quadrupole moment (field-independent basis, Debye-Ang):
   XX=            -11.8738   YY=            -11.8218   ZZ=            -15.6561
   XY=             -0.1109   XZ=              0.1475   YZ=              0.0021

 Normal termination of Gaussian 16 at Fri Sep 22 16:29:26 2023.
