 Gaussian 16, Revision A.03,
 Gaussian 16:  ES64L-G16RevA.03 25-Dec-2016

 ----------------
 # 6-31g(d) wb97x
 ----------------

 ----------------------
 tmpdir/M1_conf_1_2.gjf
 ----------------------
 Symbolic Z-matrix:
 Charge =  0 Multiplicity = 1

                         Standard orientation:
 ---------------------------------------------------------------------
 Center     Atomic      Atomic             Coordinates (Angstroms)
 Number     Number       Type             X           Y           Z
 ---------------------------------------------------------------------
      1          6           0       -0.011732   -0.002357    0.002450
      2          1           0        0.557401   -0.202008    0.917438
      3          1           0        0.355104   -0.706651   -0.751770
      4          1           0        0.255945    1.016729   -0.326667
      5          1           0       -1.098055   -0.093931    0.146297
 ---------------------------------------------------------------------

 SCF Done:  E(RwB97X) =  -40.4987966801     A.U. after   11 cycles

 The electronic state is 1-A.
 Alpha  occ. eigenvalues --  -10.25124  -0.81626  -0.50209  -0.49108  -0.48848
 Alpha virt. eigenvalues --    0.21493   0.27121   0.27328   0.27673   0.63808
 Alpha virt. eigenvalues --    0.64156   0.64723   1.00841   1.01247   1.01973
 Alpha virt. eigenvalues --    1.06599   1.20760   1.75797   1.76066   2.33298

 Mulliken charges:
               1
     1  C   -0.665775
     2  H    0.166355
     3  H    0.166308
     4  H    0.163838
     5  H    0.169274
 Sum of Mulliken charges =  -0.00000

 Dipole moment (field-independent basis, Debye):
    X=              0.0440    Y=              0.0003    Z=             -0.0071  Tot=              0.0445
 Quadrupole moment (field-independent basis, Debye-Ang):
   XX=             -8.0944   YY=             -8.3258   ZZ=             -8.3793
   XY=             -0.0031   XZ=             -0.0021   YZ=              0.0066

 Normal termination of Gaussian 16 at Fri Sep 22 16:29:31 2023.
