 Gaussian 16, Revision A.03,
 Gaussian 16:  ES64L-G16RevA.03 25-Dec-2016

 ----------------
 # 6-31g(d) wb97x
 ----------------

 ----------------------
 tmpdir/M1_conf_1_6.gjf
 ----------------------
 Symbolic Z-matrix:
 Charge =  0 Multiplicity = 1

                         Standard orientation:
 ---------------------------------------------------------------------
 Center     Atomic      Atomic             Coordinates (Angstroms)
 Number     Number       Type             X           Y           Z
 ---------------------------------------------------------------------
      1          7           0        0.002872   -0.013407   -0.000137
      2          1           0        0.282925    0.974435    0.000293
      3          1           0       -0.987897   -0.195881    0.000319
      4          1           0        0.684868   -0.684704    0.000344
 ---------------------------------------------------------------------

 SCF Done:  E(RwB97X) =  -56.5167061656     A.U. after   11 cycles

 The electronic state is 1-A.
 Alpha  occ. eigenvalues --  -14.36135  -0.94946  -0.59258  -0.56414  -0.32258
 Alpha virt. eigenvalues --    0.19466   0.28146   0.29805   0.81115   0.83772
 Alpha virt. eigenvalues --    0.85175   0.91602   1.04974   1.09634   1.21339
 Alpha virt. eigenvalues --    1.80688   1.82092   2.28262   2.44302   2.49789

 Mulliken charges:
               1
     1  N   -0.988563
     2  H    0.321261
     3  H    0.330880
     4  H    0.336422
 Sum of Mulliken charges =   0.00000

 Dipole moment (field-independent basis, Debye):
    X=             -0.0255    Y=              0.1014    Z=              0.0027  Tot=              0.1046
 Quadrupole moment (field-independent basis, Debye-Ang):
   XX=             -5.3356   YY=             -5.5406   ZZ=             -9.2812
   XY=             -0.0643   XZ=              0.0000   YZ=             -0.0001

 Normal termination of Gaussian 16 at Fri Sep 22 16:29:33 2023.
