 Gaussian 16, Revision A.03,
 Gaussian 16:  ES64L-G16RevA.03 25-Dec-2016

 ----------------
 # 6-31g(d) wb97x
 ----------------

 ----------------------
 tmpdir/M1_conf_2_3.gjf
 ----------------------
 Symbolic Z-matrix:
 Charge =  0 Multiplicity = 1

                         Standard orientation:
 ---------------------------------------------------------------------
 Center     Atomic      Atomic             Coordinates (Angstroms)
 Number     Number       Type             X           Y           Z
 ---------------------------------------------------------------------
      1          6           0       -0.012737    0.011321   -0.001326
      2          1           0       -0.073297   -0.339843    1.034626
      3          1           0        0.242750    1.086988   -0.039588
      4          1           0        0.876577   -0.584019   -0.472184
      5          1           0       -0.969606   -0.231049   -0.514899
 ---------------------------------------------------------------------

 SCF Done:  E(RwB97X) =  -40.4952561322     A.U. after   11 cycles

 The electronic state is 1-A.
 Alpha  occ. eigenvalues --  -10.26093  -0.81011  -0.50002  -0.49348  -0.47673
 Alpha virt. eigenvalues --    0.20786   0.25507   0.27088   0.27453   0.63949
 Alpha virt. eigenvalues --    0.64794   0.65929   0.96982   1.00499   1.01383
 Alpha virt. eigenvalues --    1.04101   1.20048   1.76141   1.76574   2.28473

 Mulliken charges:
               1
     1  C   -0.654815
     2  H    0.169215
     3  H    0.169519
     4  H    0.148105
     5  H    0.167975
 Sum of Mulliken charges =  -0.00000

 Dipole moment (field-independent basis, Debye):
    X=             -0.0043    Y=             -0.0060    Z=              0.0509  Tot=              0.0514
 Quadrupole moment (field-independent basis, Debye-Ang):
   XX=             -8.2363   YY=             -8.2790   ZZ=             -8.4623
   XY=              0.0791   XZ=              0.0621   YZ=             -0.0471

 Normal termination of Gaussian 16 at Fri Sep 22 16:29:37 2023.
