 Gaussian 16, Revision A.03,
 Gaussian 16:  ES64L-G16RevA.03 25-Dec-2016

 ----------------
 # 6-31g(d) wb97x
 ----------------

 -----------------------
 tmpdir/M1_conf_2_14.gjf
 -----------------------
 Symbolic Z-matrix:
 Charge =  0 Multiplicity = 1

                         Standard orientation:
 ---------------------------------------------------------------------
 Center     Atomic      Atomic             Coordinates (Angstroms)
 Number     Number       Type             X           Y           Z
 ---------------------------------------------------------------------
      1          6           0       -0.004454    0.005016   -0.003116
      2          1           0        0.064709   -0.508217    0.963097
      3          1           0        0.325266   -0.704014   -0.771085
      4          1           0        0.690799    0.864282    0.003277
      5          1           0       -1.054053    0.317853   -0.176595
 ---------------------------------------------------------------------

 SCF Done:  E(RwB97X) =  -40.4989743869     A.U. after   11 cycles

 The electronic state is 1-A.
 Alpha  occ. eigenvalues --  -10.25252  -0.81530  -0.49750  -0.49234  -0.49032
 Alpha virt. eigenvalues --    0.21417   0.27222   0.27236   0.27411   0.63882
 Alpha virt. eigenvalues --    0.64198   0.64844   1.00878   1.01116   1.01437
 Alpha virt. eigenvalues --    1.06132   1.20596   1.75896   1.76012   2.32710

 Mulliken charges:
               1
     1  C   -0.664006
     2  H    0.165929
     3  H    0.166704
     4  H    0.165427
     5  H    0.165947
 Sum of Mulliken charges =   0.00000

 Dipole moment (field-independent basis, Debye):
    X=              0.0222    Y=             -0.0304    Z=              0.0139  Tot=              0.0401
 Quadrupole moment (field-independent basis, Debye-Ang):
   XX=             -8.1590   YY=             -8.2970   ZZ=             -8.3650
   XY=             -0.0042   XZ=             -0.0021   YZ=              0.0031

 Normal termination of Gaussian 16 at Fri Sep 22 16:29:41 2023.
