 Gaussian 16, Revision A.03,
 Gaussian 16:  ES64L-G16RevA.03 25-Dec-2016

 ----------------
 # 6-31g(d) wb97x
 ----------------

 ----------------------
 tmpdir/M1_conf_0_6.gjf
 ----------------------
 Symbolic Z-matrix:
 Charge =  0 Multiplicity = 1

                         Standard orientation:
 ---------------------------------------------------------------------
 Center     Atomic      Atomic             Coordinates (Angstroms)
 Number     Number       Type             X           Y           Z
 ---------------------------------------------------------------------
      1          7           0        0.003110   -0.009771   -0.001067
      2          1           0       -0.214886    0.979744    0.002316
      3          1           0        0.962370   -0.283151    0.002589
      4          1           0       -0.769252   -0.628197    0.002561
 ---------------------------------------------------------------------

 SCF Done:  E(RwB97X) =  -56.5188383644     A.U. after   10 cycles

 The electronic state is 1-A.
 Alpha  occ. eigenvalues --  -14.36216  -0.94772  -0.58776  -0.56650  -0.32222
 Alpha virt. eigenvalues --    0.19407   0.28525   0.29264   0.80742   0.83781
 Alpha virt. eigenvalues --    0.85587   0.91671   1.05829   1.08056   1.20866
 Alpha virt. eigenvalues --    1.80959   1.82000   2.28860   2.42944   2.49380

 Mulliken charges:
               1
     1  N   -0.990046
     2  H    0.322876
     3  H    0.334243
     4  H    0.332927
 Sum of Mulliken charges =   0.00000

 Dipole moment (field-independent basis, Debye):
    X=             -0.0239    Y=              0.0745    Z=              0.0211  Tot=              0.0810
 Quadrupole moment (field-independent basis, Debye-Ang):
   XX=             -5.2573   YY=             -5.6108   ZZ=             -9.2931
   XY=              0.0172   XZ=              0.0001   YZ=             -0.0005

 Normal termination of Gaussian 16 at Fri Sep 22 16:29:27 2023.
