 Gaussian 16, Revision A.03,
 Gaussian 16:  ES64L-G16RevA.03 25-Dec-2016

 ----------------
 # 6-31g(d) wb97x
 ----------------

 -----------------------
 tmpdir/M1_conf_0_10.gjf
 -----------------------
 Symbolic Z-matrix:
 Charge =  0 Multiplicity = 1

                         Standard orientation:
 ---------------------------------------------------------------------
 Center     Atomic      Atomic             Coordinates (Angstroms)
 Number     Number       Type             X           Y           Z
 ---------------------------------------------------------------------
      1          8           0       -0.000000    0.096315    0.000000
      2          1           0        0.823744   -0.369676    0.000000
      3          1           0       -0.823744   -0.400846   -0.000000
 ---------------------------------------------------------------------

 SCF Done:  E(RwB97X) =  -76.3824781495     A.U. after   12 cycles

 The electronic state is 1-A'.
 Alpha  occ. eigenvalues --  -19.19424  -1.11486  -0.65660  -0.45174  -0.39662
 Alpha virt. eigenvalues --    0.17620   0.27028   0.91960   0.96961   1.00906
 Alpha virt. eigenvalues --    1.01311   1.20705   1.26587   1.84408   1.88604
 Alpha virt. eigenvalues --    1.91044   2.46236   2.68002   3.70678

 Mulliken charges:
               1
     1  O   -0.826374
     2  H    0.413536
     3  H    0.412838
 Sum of Mulliken charges =  -0.00000

 Dipole moment (field-independent basis, Debye):
    X=              0.0110    Y=             -1.8713    Z=             -0.0000  Tot=              1.8713
 Quadrupole moment (field-independent basis, Debye-Ang):
   XX=             -3.5644   YY=             -6.3535   ZZ=             -7.1869
   XY=              0.0588   XZ=             -0.0000   YZ=             -0.0000

 Normal termination of Gaussian 16 at Fri Sep 22 16:29:27 2023.
