 Gaussian 16, Revision A.03,
 Gaussian 16:  ES64L-G16RevA.03 25-Dec-2016

 ----------------
 # 6-31g(d) wb97x
 ----------------

 ----------------------
 tmpdir/M1_conf_2_2.gjf
 ----------------------
 Symbolic Z-matrix:
 Charge =  0 Multiplicity = 1

                         Standard orientation:
 ---------------------------------------------------------------------
 Center     Atomic      Atomic             Coordinates (Angstroms)
 Number     Number       Type             X           Y           Z
 ---------------------------------------------------------------------
      1          6           0        0.004944    0.007110    0.001724
      2          1           0       -0.097055   -0.624976    0.888315
      3          1           0       -0.165609   -0.648652   -0.868293
      4          1           0        1.009529    0.440966   -0.045470
      5          1           0       -0.776527    0.790004    0.015105
 ---------------------------------------------------------------------

 SCF Done:  E(RwB97X) =  -40.4991020685     A.U. after   11 cycles

 The electronic state is 1-A.
 Alpha  occ. eigenvalues --  -10.25159  -0.81590  -0.49867  -0.49420  -0.48850
 Alpha virt. eigenvalues --    0.21484   0.27120   0.27336   0.27615   0.63895
 Alpha virt. eigenvalues --    0.64313   0.64511   1.00804   1.01262   1.01982
 Alpha virt. eigenvalues --    1.06284   1.20666   1.75874   1.75966   2.33767

 Mulliken charges:
               1
     1  C   -0.664925
     2  H    0.166895
     3  H    0.163953
     4  H    0.168936
     5  H    0.165141
 Sum of Mulliken charges =  -0.00000

 Dipole moment (field-independent basis, Debye):
    X=             -0.0093    Y=             -0.0317    Z=              0.0010  Tot=              0.0330
 Quadrupole moment (field-independent basis, Debye-Ang):
   XX=             -8.1822   YY=             -8.2461   ZZ=             -8.3760
   XY=              0.0143   XZ=             -0.0039   YZ=             -0.0141

 Normal termination of Gaussian 16 at Fri Sep 22 16:29:37 2023.
