 Gaussian 16, Revision A.03,
 Gaussian 16:  ES64L-G16RevA.03 25-Dec-2016

 ----------------
 # 6-31g(d) wb97x
 ----------------

 ----------------------
 tmpdir/M1_conf_1_9.gjf
 ----------------------
 Symbolic Z-matrix:
 Charge =  0 Multiplicity = 1

                         Standard orientation:
 ---------------------------------------------------------------------
 Center     Atomic      Atomic             Coordinates (Angstroms)
 Number     Number       Type             X           Y           Z
 ---------------------------------------------------------------------
      1          6           0        0.006333    0.003454   -0.007688
      2          1           0        0.314129    0.146886    1.034241
      3          1           0        0.649175   -0.797785   -0.434244
      4          1           0        0.123116    0.946034   -0.533432
      5          1           0       -1.124419   -0.315858   -0.020438
 ---------------------------------------------------------------------

 SCF Done:  E(RwB97X) =  -40.4952177625     A.U. after   12 cycles

 The electronic state is 1-A.
 Alpha  occ. eigenvalues --  -10.25921  -0.81142  -0.50016  -0.48945  -0.48256
 Alpha virt. eigenvalues --    0.20807   0.25706   0.27050   0.27753   0.63649
 Alpha virt. eigenvalues --    0.64379   0.66312   0.96809   1.00409   1.02131
 Alpha virt. eigenvalues --    1.05149   1.20099   1.76079   1.76350   2.27301

 Mulliken charges:
               1
     1  C   -0.655777
     2  H    0.167810
     3  H    0.166211
     4  H    0.173006
     5  H    0.148750
 Sum of Mulliken charges =   0.00000

 Dipole moment (field-independent basis, Debye):
    X=              0.0533    Y=              0.0324    Z=              0.0336  Tot=              0.0709
 Quadrupole moment (field-independent basis, Debye-Ang):
   XX=             -8.2491   YY=             -8.2627   ZZ=             -8.4300
   XY=             -0.0395   XZ=             -0.0014   YZ=             -0.0279

 Normal termination of Gaussian 16 at Fri Sep 22 16:29:33 2023.
