 Gaussian 16, Revision A.03,
 Gaussian 16:  ES64L-G16RevA.03 25-Dec-2016

 ----------------
 # 6-31g(d) wb97x
 ----------------

 -----------------------
 tmpdir/M1_conf_0_12.gjf
 -----------------------
 Symbolic Z-matrix:
 Charge =  0 Multiplicity = 1

                         Standard orientation:
 ---------------------------------------------------------------------
 Center     Atomic      Atomic             Coordinates (Angstroms)
 Number     Number       Type             X           Y           Z
 ---------------------------------------------------------------------
      1          6           0       -0.006222   -0.018383   -0.004953
      2          1           0       -0.072942    0.859098   -0.661973
      3          1           0        0.221568    0.386463    0.991383
      4          1           0        0.855065   -0.615302   -0.306209
      5          1           0       -0.966362   -0.519963    0.006520
 ---------------------------------------------------------------------

 SCF Done:  E(RwB97X) =  -40.4980379161     A.U. after   11 cycles

 The electronic state is 1-A.
 Alpha  occ. eigenvalues --  -10.24872  -0.81821  -0.50870  -0.49009  -0.48579
 Alpha virt. eigenvalues --    0.21632   0.27129   0.27226   0.28255   0.63650
 Alpha virt. eigenvalues --    0.63889   0.64723   1.00760   1.01066   1.03658
 Alpha virt. eigenvalues --    1.07398   1.21110   1.75645   1.76095   2.33447

 Mulliken charges:
               1
     1  C   -0.669356
     2  H    0.163394
     3  H    0.162892
     4  H    0.170018
     5  H    0.173052
 Sum of Mulliken charges =  -0.00000

 Dipole moment (field-independent basis, Debye):
    X=              0.0155    Y=              0.0563    Z=              0.0159  Tot=              0.0605
 Quadrupole moment (field-independent basis, Debye-Ang):
   XX=             -8.0096   YY=             -8.3360   ZZ=             -8.4130
   XY=              0.0121   XZ=             -0.0130   YZ=              0.0083

 Normal termination of Gaussian 16 at Fri Sep 22 16:29:28 2023.
