 Gaussian 16, Revision A.03,
 Gaussian 16:  ES64L-G16RevA.03 25-Dec-2016

 ----------------
 # 6-31g(d) wb97x
 ----------------

 -----------------------
 tmpdir/M1_conf_0_13.gjf
 -----------------------
 Symbolic Z-matrix:
 Charge =  0 Multiplicity = 1

                         Standard orientation:
 ---------------------------------------------------------------------
 Center     Atomic      Atomic             Coordinates (Angstroms)
 Number     Number       Type             X           Y           Z
 ---------------------------------------------------------------------
      1          6           0        0.011438   -0.001745   -0.002943
      2          1           0       -0.263861   -0.256143    1.025111
      3          1           0       -0.558737   -0.661855   -0.667056
      4          1           0       -0.326460    1.023830   -0.188896
      5          1           0        1.080433   -0.095360   -0.151501
 ---------------------------------------------------------------------

 SCF Done:  E(RwB97X) =  -40.4990895524     A.U. after   10 cycles

 The electronic state is 1-A.
 Alpha  occ. eigenvalues --  -10.24849  -0.81804  -0.50327  -0.49110  -0.49077
 Alpha virt. eigenvalues --    0.21672   0.27340   0.27401   0.27996   0.63905
 Alpha virt. eigenvalues --    0.63967   0.64222   1.01329   1.01432   1.02979
 Alpha virt. eigenvalues --    1.07251   1.20952   1.75738   1.75838   2.35174

 Mulliken charges:
               1
     1  C   -0.668208
     2  H    0.165479
     3  H    0.165583
     4  H    0.165292
     5  H    0.171853
 Sum of Mulliken charges =  -0.00000

 Dipole moment (field-independent basis, Debye):
    X=             -0.0301    Y=              0.0054    Z=              0.0112  Tot=              0.0326
 Quadrupole moment (field-independent basis, Debye-Ang):
   XX=             -8.1118   YY=             -8.3147   ZZ=             -8.3218
   XY=             -0.0048   XZ=             -0.0088   YZ=              0.0011

 Normal termination of Gaussian 16 at Fri Sep 22 16:29:29 2023.
