 Gaussian 16, Revision A.03,
 Gaussian 16:  ES64L-G16RevA.03 25-Dec-2016

 ----------------
 # 6-31g(d) wb97x
 ----------------

 -----------------------
 tmpdir/M1_conf_2_15.gjf
 -----------------------
 Symbolic Z-matrix:
 Charge =  0 Multiplicity = 1

                         Standard orientation:
 ---------------------------------------------------------------------
 Center     Atomic      Atomic             Coordinates (Angstroms)
 Number     Number       Type             X           Y           Z
 ---------------------------------------------------------------------
      1          6           0        0.005457    0.002463   -0.000965
      2          1           0       -0.503802    0.966088   -0.125312
      3          1           0       -0.369625   -0.464138    0.918339
      4          1           0       -0.265166   -0.646606   -0.836537
      5          1           0        1.105848    0.129875    0.049300
 ---------------------------------------------------------------------

 SCF Done:  E(RwB97X) =  -40.4991636253     A.U. after   11 cycles

 The electronic state is 1-A.
 Alpha  occ. eigenvalues --  -10.25126  -0.81612  -0.49689  -0.49348  -0.49136
 Alpha virt. eigenvalues --    0.21497   0.27302   0.27358   0.27491   0.63888
 Alpha virt. eigenvalues --    0.64029   0.64741   1.01119   1.01346   1.01645
 Alpha virt. eigenvalues --    1.06510   1.20674   1.75869   1.75916   2.33101

 Mulliken charges:
               1
     1  C   -0.665148
     2  H    0.166612
     3  H    0.165756
     4  H    0.167297
     5  H    0.165484
 Sum of Mulliken charges =   0.00000

 Dipole moment (field-independent basis, Debye):
    X=             -0.0328    Y=             -0.0138    Z=             -0.0008  Tot=              0.0356
 Quadrupole moment (field-independent basis, Debye-Ang):
   XX=             -8.1650   YY=             -8.2982   ZZ=             -8.3342
   XY=             -0.0014   XZ=              0.0029   YZ=              0.0062

 Normal termination of Gaussian 16 at Fri Sep 22 16:29:41 2023.
