 Gaussian 16, Revision A.03,
 Gaussian 16:  ES64L-G16RevA.03 25-Dec-2016

 ----------------
 # 6-31g(d) wb97x
 ----------------

 ----------------------
 tmpdir/M1_conf_2_5.gjf
 ----------------------
 Symbolic Z-matrix:
 Charge =  0 Multiplicity = 1

                         Standard orientation:
 ---------------------------------------------------------------------
 Center     Atomic      Atomic             Coordinates (Angstroms)
 Number     Number       Type             X           Y           Z
 ---------------------------------------------------------------------
      1          6           0        0.000847   -0.002655   -0.000747
      2          1           0       -0.159379   -0.801280   -0.729795
      3          1           0        0.763547   -0.322089    0.743799
      4          1           0       -0.990532    0.230466    0.496135
      5          1           0        0.381283    0.908830   -0.505656
 ---------------------------------------------------------------------

 SCF Done:  E(RwB97X) =  -40.4979997696     A.U. after   10 cycles

 The electronic state is 1-A.
 Alpha  occ. eigenvalues --  -10.25709  -0.81223  -0.49718  -0.49108  -0.48653
 Alpha virt. eigenvalues --    0.21123   0.26513   0.26872   0.27501   0.64113
 Alpha virt. eigenvalues --    0.64382   0.65373   0.99293   1.00292   1.01521
 Alpha virt. eigenvalues --    1.04688   1.20129   1.76006   1.76374   2.30780

 Mulliken charges:
               1
     1  C   -0.658789
     2  H    0.169631
     3  H    0.164731
     4  H    0.159433
     5  H    0.164995
 Sum of Mulliken charges =   0.00000

 Dipole moment (field-independent basis, Debye):
    X=              0.0145    Y=             -0.0067    Z=             -0.0224  Tot=              0.0275
 Quadrupole moment (field-independent basis, Debye-Ang):
   XX=             -8.2143   YY=             -8.3099   ZZ=             -8.3789
   XY=              0.0162   XZ=              0.0252   YZ=              0.0182

 Normal termination of Gaussian 16 at Fri Sep 22 16:29:37 2023.
