 Gaussian 16, Revision A.03,
 Gaussian 16:  ES64L-G16RevA.03 25-Dec-2016

 ----------------
 # 6-31g(d) wb97x
 ----------------

 ----------------------
 tmpdir/M1_conf_2_9.gjf
 ----------------------
 Symbolic Z-matrix:
 Charge =  0 Multiplicity = 1

                         Standard orientation:
 ---------------------------------------------------------------------
 Center     Atomic      Atomic             Coordinates (Angstroms)
 Number     Number       Type             X           Y           Z
 ---------------------------------------------------------------------
      1          6           0       -0.005629    0.000532   -0.010569
      2          1           0       -0.322645   -0.310233    0.993486
      3          1           0       -0.556228    0.929643   -0.263676
      4          1           0       -0.239394   -0.815187   -0.676452
      5          1           0        1.152040    0.192585    0.010055
 ---------------------------------------------------------------------

 SCF Done:  E(RwB97X) =  -40.4950874956     A.U. after   12 cycles

 The electronic state is 1-A.
 Alpha  occ. eigenvalues --  -10.25818  -0.81225  -0.50127  -0.48840  -0.48360
 Alpha virt. eigenvalues --    0.20853   0.25779   0.27065   0.27883   0.63452
 Alpha virt. eigenvalues --    0.64406   0.66295   0.96898   1.00490   1.02209
 Alpha virt. eigenvalues --    1.05795   1.20211   1.75982   1.76361   2.27361

 Mulliken charges:
               1
     1  C   -0.657062
     2  H    0.166286
     3  H    0.167138
     4  H    0.174267
     5  H    0.149371
 Sum of Mulliken charges =  -0.00000

 Dipole moment (field-independent basis, Debye):
    X=             -0.0608    Y=             -0.0400    Z=              0.0317  Tot=              0.0794
 Quadrupole moment (field-independent basis, Debye-Ang):
   XX=             -8.2382   YY=             -8.2275   ZZ=             -8.4578
   XY=             -0.0178   XZ=              0.0093   YZ=              0.0349

 Normal termination of Gaussian 16 at Fri Sep 22 16:29:39 2023.
