 Gaussian 16, Revision A.03,
 Gaussian 16:  ES64L-G16RevA.03 25-Dec-2016

 ----------------
 # 6-31g(d) wb97x
 ----------------

 ----------------------
 tmpdir/M1_conf_1_8.gjf
 ----------------------
 Symbolic Z-matrix:
 Charge =  0 Multiplicity = 1

                         Standard orientation:
 ---------------------------------------------------------------------
 Center     Atomic      Atomic             Coordinates (Angstroms)
 Number     Number       Type             X           Y           Z
 ---------------------------------------------------------------------
      1          6           0       -0.003985    0.000213    0.002178
      2          1           0        0.018626    0.976607   -0.479244
      3          1           0        0.210087   -0.771795   -0.738498
      4          1           0        0.789577   -0.034178    0.763489
      5          1           0       -0.994382   -0.171911    0.441184
 ---------------------------------------------------------------------

 SCF Done:  E(RwB97X) =  -40.4993723661     A.U. after   11 cycles

 The electronic state is 1-A.
 Alpha  occ. eigenvalues --  -10.24929  -0.81740  -0.49811  -0.49543  -0.49065
 Alpha virt. eigenvalues --    0.21626   0.27303   0.27584   0.27697   0.63862
 Alpha virt. eigenvalues --    0.63909   0.64488   1.01241   1.01926   1.02128
 Alpha virt. eigenvalues --    1.06971   1.20744   1.75691   1.75973   2.34239

 Mulliken charges:
               1
     1  C   -0.666996
     2  H    0.167767
     3  H    0.166916
     4  H    0.165082
     5  H    0.167231
 Sum of Mulliken charges =   0.00000

 Dipole moment (field-independent basis, Debye):
    X=              0.0136    Y=              0.0023    Z=             -0.0185  Tot=              0.0231
 Quadrupole moment (field-independent basis, Debye-Ang):
   XX=             -8.1694   YY=             -8.2675   ZZ=             -8.3238
   XY=              0.0005   XZ=             -0.0103   YZ=             -0.0030

 Normal termination of Gaussian 16 at Fri Sep 22 16:29:33 2023.
