 Gaussian 16, Revision A.03,
 Gaussian 16:  ES64L-G16RevA.03 25-Dec-2016

 ----------------
 # 6-31g(d) wb97x
 ----------------

 ----------------------
 tmpdir/M1_conf_1_0.gjf
 ----------------------
 Symbolic Z-matrix:
 Charge = -1 Multiplicity = 1

                         Standard orientation:
 ---------------------------------------------------------------------
 Center     Atomic      Atomic             Coordinates (Angstroms)
 Number     Number       Type             X           Y           Z
 ---------------------------------------------------------------------
      1          6           0        0.000903    0.327753   -0.013585
      2          8           0       -1.131750   -0.211922    0.003441
      3          8           0        1.129620   -0.214375    0.003422
      4          1           0        0.011621    1.443863    0.026607
 ---------------------------------------------------------------------

 SCF Done:  E(RwB97X) =  -189.129068271     A.U. after   15 cycles

 The electronic state is 1-A.
 Alpha  occ. eigenvalues --  -18.90755 -18.90750 -10.11195  -0.89773  -0.80907
 Alpha  occ. eigenvalues --   -0.42521  -0.30340  -0.26324  -0.25487  -0.10242
 Alpha  occ. eigenvalues --   -0.09431  -0.09345
 Alpha virt. eigenvalues --    0.40127   0.46399   0.64404   0.64961   0.87575
 Alpha virt. eigenvalues --    0.97981   1.02991   1.08607   1.19146   1.22594
 Alpha virt. eigenvalues --    1.23500   1.32807   1.39257   1.42279   1.44378

 Mulliken charges:
               1
     1  C    0.306436
     2  O   -0.613622
     3  O   -0.611377
     4  H   -0.081438
 Sum of Mulliken charges =  -1.00000

 Dipole moment (field-independent basis, Debye):
    X=              0.0153    Y=              1.2293    Z=             -0.0363  Tot=              1.2300
 Quadrupole moment (field-independent basis, Debye-Ang):
   XX=            -26.8328   YY=            -19.3556   ZZ=            -17.5316
   XY=              0.0119   XZ=              0.0001   YZ=             -0.0192

 Normal termination of Gaussian 16 at Fri Sep 22 16:29:32 2023.
