 Gaussian 16, Revision A.03,
 Gaussian 16:  ES64L-G16RevA.03 25-Dec-2016

 ----------------
 # 6-31g(d) wb97x
 ----------------

 ----------------------
 tmpdir/M1_conf_2_6.gjf
 ----------------------
 Symbolic Z-matrix:
 Charge =  0 Multiplicity = 1

                         Standard orientation:
 ---------------------------------------------------------------------
 Center     Atomic      Atomic             Coordinates (Angstroms)
 Number     Number       Type             X           Y           Z
 ---------------------------------------------------------------------
      1          7           0        0.000212   -0.013160   -0.003001
      2          1           0       -0.541566    0.854870    0.006467
      3          1           0        1.005906    0.073167    0.006985
      4          1           0       -0.465825   -0.835914    0.007555
 ---------------------------------------------------------------------

 SCF Done:  E(RwB97X) =  -56.5157813271     A.U. after   11 cycles

 The electronic state is 1-A.
 Alpha  occ. eigenvalues --  -14.36017  -0.95144  -0.59352  -0.56622  -0.32295
 Alpha virt. eigenvalues --    0.19587   0.28197   0.30013   0.81315   0.83773
 Alpha virt. eigenvalues --    0.84759   0.91792   1.05139   1.10287   1.21693
 Alpha virt. eigenvalues --    1.80602   1.81960   2.28545   2.44289   2.51139

 Mulliken charges:
               1
     1  N   -0.988162
     2  H    0.321961
     3  H    0.330438
     4  H    0.335763
 Sum of Mulliken charges =   0.00000

 Dipole moment (field-independent basis, Debye):
    X=              0.0019    Y=              0.1012    Z=              0.0595  Tot=              0.1175
 Quadrupole moment (field-independent basis, Debye-Ang):
   XX=             -5.3645   YY=             -5.5198   ZZ=             -9.2655
   XY=              0.0713   XZ=             -0.0004   YZ=             -0.0025

 Normal termination of Gaussian 16 at Fri Sep 22 16:29:38 2023.
