 Gaussian 16, Revision A.03,
 Gaussian 16:  ES64L-G16RevA.03 25-Dec-2016

 ----------------
 # 6-31g(d) wb97x
 ----------------

 -----------------------
 tmpdir/M1_conf_1_13.gjf
 -----------------------
 Symbolic Z-matrix:
 Charge =  0 Multiplicity = 1

                         Standard orientation:
 ---------------------------------------------------------------------
 Center     Atomic      Atomic             Coordinates (Angstroms)
 Number     Number       Type             X           Y           Z
 ---------------------------------------------------------------------
      1          6           0        0.005577    0.000606   -0.001397
      2          1           0       -0.313400   -0.522174    0.904407
      3          1           0       -0.508554   -0.462442   -0.850404
      4          1           0       -0.318198    1.041828    0.069127
      5          1           0        1.106690   -0.060847   -0.114750
 ---------------------------------------------------------------------

 SCF Done:  E(RwB97X) =  -40.4991845198     A.U. after   11 cycles

 The electronic state is 1-A.
 Alpha  occ. eigenvalues --  -10.25070  -0.81651  -0.49709  -0.49367  -0.49163
 Alpha virt. eigenvalues --    0.21529   0.27319   0.27426   0.27529   0.63882
 Alpha virt. eigenvalues --    0.63933   0.64733   1.01152   1.01502   1.01735
 Alpha virt. eigenvalues --    1.06708   1.20706   1.75821   1.75921   2.33172

 Mulliken charges:
               1
     1  C   -0.665700
     2  H    0.166603
     3  H    0.166486
     4  H    0.167215
     5  H    0.165397
 Sum of Mulliken charges =   0.00000

 Dipole moment (field-independent basis, Debye):
    X=             -0.0350    Y=             -0.0001    Z=              0.0085  Tot=              0.0360
 Quadrupole moment (field-independent basis, Debye-Ang):
   XX=             -8.1591   YY=             -8.2983   ZZ=             -8.3295
   XY=             -0.0009   XZ=              0.0008   YZ=             -0.0004

 Normal termination of Gaussian 16 at Fri Sep 22 16:29:35 2023.
