 Gaussian 16, Revision A.03,
 Gaussian 16:  ES64L-G16RevA.03 25-Dec-2016

 ----------------
 # 6-31g(d) wb97x
 ----------------

 ----------------------
 tmpdir/M1_conf_0_7.gjf
 ----------------------
 Symbolic Z-matrix:
 Charge =  0 Multiplicity = 1

                         Standard orientation:
 ---------------------------------------------------------------------
 Center     Atomic      Atomic             Coordinates (Angstroms)
 Number     Number       Type             X           Y           Z
 ---------------------------------------------------------------------
      1          6           0        0.534494   -0.005301   -0.010026
      2          8           0       -0.680568    0.002299    0.002441
      3          1           0        1.126612    0.933956    0.019969
      4          1           0        1.110968   -0.920539    0.020655
 ---------------------------------------------------------------------

 SCF Done:  E(RwB97X) =  -114.465853886     A.U. after   14 cycles

 The electronic state is 1-A.
 Alpha  occ. eigenvalues --  -19.23511 -10.36983  -1.17936  -0.76199  -0.60895
 Alpha  occ. eigenvalues --   -0.55620  -0.50170  -0.36964
 Alpha virt. eigenvalues --    0.05720   0.20491   0.28655   0.31560   0.61799
 Alpha virt. eigenvalues --    0.72719   0.73541   0.79921   0.93916   0.95720
 Alpha virt. eigenvalues --    1.01291   1.07655   1.17449   1.48591   1.61336

 Mulliken charges:
               1
     1  C    0.059561
     2  O   -0.334940
     3  H    0.133278
     4  H    0.142102
 Sum of Mulliken charges =   0.00000

 Dipole moment (field-independent basis, Debye):
    X=              2.3622    Y=             -0.0458    Z=              0.0015  Tot=              2.3626
 Quadrupole moment (field-independent basis, Debye-Ang):
   XX=            -11.8071   YY=            -11.4368   ZZ=            -11.4195
   XY=             -0.0372   XZ=              0.0188   YZ=              0.0004

 Normal termination of Gaussian 16 at Fri Sep 22 16:29:27 2023.
