 Gaussian 16, Revision A.03,
 Gaussian 16:  ES64L-G16RevA.03 25-Dec-2016

 ----------------
 # 6-31g(d) wb97x
 ----------------

 -----------------------
 tmpdir/M1_conf_1_10.gjf
 -----------------------
 Symbolic Z-matrix:
 Charge =  0 Multiplicity = 1

                         Standard orientation:
 ---------------------------------------------------------------------
 Center     Atomic      Atomic             Coordinates (Angstroms)
 Number     Number       Type             X           Y           Z
 ---------------------------------------------------------------------
      1          8           0        0.000000    0.109787    0.000000
      2          1           0        0.820038   -0.432046    0.000000
      3          1           0       -0.820038   -0.446253   -0.000000
 ---------------------------------------------------------------------

 SCF Done:  E(RwB97X) =  -76.3851319567     A.U. after   12 cycles

 The electronic state is 1-A'.
 Alpha  occ. eigenvalues --  -19.20360  -1.10696  -0.63300  -0.46265  -0.39633
 Alpha virt. eigenvalues --    0.16629   0.25640   0.91513   0.92872   1.00737
 Alpha virt. eigenvalues --    1.01182   1.19198   1.27163   1.85758   1.87244
 Alpha virt. eigenvalues --    1.90726   2.39204   2.65838   3.67938

 Mulliken charges:
               1
     1  O   -0.806863
     2  H    0.403928
     3  H    0.402934
 Sum of Mulliken charges =  -0.00000

 Dipole moment (field-independent basis, Debye):
    X=              0.0065    Y=             -2.0167    Z=             -0.0000  Tot=              2.0167
 Quadrupole moment (field-independent basis, Debye-Ang):
   XX=             -3.7898   YY=             -6.2055   ZZ=             -7.2523
   XY=              0.0246   XZ=             -0.0000   YZ=              0.0000

 Normal termination of Gaussian 16 at Fri Sep 22 16:29:33 2023.
