 Gaussian 16, Revision A.03,
 Gaussian 16:  ES64L-G16RevA.03 25-Dec-2016

 ----------------
 # 6-31g(d) wb97x
 ----------------

 -----------------------
 tmpdir/M1_conf_0_11.gjf
 -----------------------
 Symbolic Z-matrix:
 Charge =  0 Multiplicity = 1

                         Standard orientation:
 ---------------------------------------------------------------------
 Center     Atomic      Atomic             Coordinates (Angstroms)
 Number     Number       Type             X           Y           Z
 ---------------------------------------------------------------------
      1          6           0        0.004602   -0.004149   -0.020237
      2          1           0        0.306206    0.211694    1.025891
      3          1           0       -0.971010   -0.611925    0.023161
      4          1           0        0.847357   -0.538566   -0.459604
      5          1           0       -0.210165    0.963691   -0.468027
 ---------------------------------------------------------------------

 SCF Done:  E(RwB97X) =  -40.4956930557     A.U. after   11 cycles

 The electronic state is 1-A.
 Alpha  occ. eigenvalues --  -10.25603  -0.81368  -0.50730  -0.48736  -0.48092
 Alpha virt. eigenvalues --    0.21078   0.26192   0.26758   0.28091   0.63650
 Alpha virt. eigenvalues --    0.64278   0.65893   0.98149   0.99952   1.03105
 Alpha virt. eigenvalues --    1.05757   1.20469   1.75950   1.76533   2.29136

 Mulliken charges:
               1
     1  C   -0.661567
     2  H    0.160610
     3  H    0.155849
     4  H    0.173313
     5  H    0.171795
 Sum of Mulliken charges =  -0.00000

 Dipole moment (field-independent basis, Debye):
    X=              0.0330    Y=              0.0491    Z=              0.0586  Tot=              0.0833
 Quadrupole moment (field-independent basis, Debye-Ang):
   XX=             -8.0919   YY=             -8.2631   ZZ=             -8.5380
   XY=             -0.0855   XZ=             -0.0278   YZ=             -0.0140

 Normal termination of Gaussian 16 at Fri Sep 22 16:29:28 2023.
