 Gaussian 16, Revision A.03,
 Gaussian 16:  ES64L-G16RevA.03 25-Dec-2016

 ----------------
 # 6-31g(d) wb97x
 ----------------

 -----------------------
 tmpdir/M1_conf_0_15.gjf
 -----------------------
 Symbolic Z-matrix:
 Charge =  0 Multiplicity = 1

                         Standard orientation:
 ---------------------------------------------------------------------
 Center     Atomic      Atomic             Coordinates (Angstroms)
 Number     Number       Type             X           Y           Z
 ---------------------------------------------------------------------
      1          6           0       -0.009797   -0.000249   -0.000432
      2          1           0        0.356966   -0.825806   -0.618235
      3          1           0        0.508449   -0.060540    0.967901
      4          1           0        0.283813    0.941377   -0.472933
      5          1           0       -1.090445   -0.053535    0.125857
 ---------------------------------------------------------------------

 SCF Done:  E(RwB97X) =  -40.4992368795     A.U. after   10 cycles

 The electronic state is 1-A.
 Alpha  occ. eigenvalues --  -10.24933  -0.81742  -0.50115  -0.49305  -0.48993
 Alpha virt. eigenvalues --    0.21624   0.27260   0.27487   0.27814   0.63973
 Alpha virt. eigenvalues --    0.63980   0.64307   1.01136   1.01648   1.02506
 Alpha virt. eigenvalues --    1.06957   1.20847   1.75775   1.75867   2.34825

 Mulliken charges:
               1
     1  C   -0.667219
     2  H    0.166187
     3  H    0.164395
     4  H    0.166392
     5  H    0.170245
 Sum of Mulliken charges =   0.00000

 Dipole moment (field-independent basis, Debye):
    X=              0.0287    Y=              0.0016    Z=             -0.0031  Tot=              0.0289
 Quadrupole moment (field-independent basis, Debye-Ang):
   XX=             -8.1386   YY=             -8.2925   ZZ=             -8.3319
   XY=              0.0028   XZ=             -0.0119   YZ=             -0.0002

 Normal termination of Gaussian 16 at Fri Sep 22 16:29:29 2023.
