 Gaussian 16, Revision A.03,
 Gaussian 16:  ES64L-G16RevA.03 25-Dec-2016

 ----------------
 # 6-31g(d) wb97x
 ----------------

 -----------------------
 tmpdir/M1_conf_2_10.gjf
 -----------------------
 Symbolic Z-matrix:
 Charge =  0 Multiplicity = 1

                         Standard orientation:
 ---------------------------------------------------------------------
 Center     Atomic      Atomic             Coordinates (Angstroms)
 Number     Number       Type             X           Y           Z
 ---------------------------------------------------------------------
      1          8           0        0.000000    0.107585    0.000000
      2          1           0        0.826111   -0.422825   -0.000000
      3          1           0       -0.826111   -0.437855   -0.000000
 ---------------------------------------------------------------------

 SCF Done:  E(RwB97X) =  -76.3845135293     A.U. after   12 cycles

 The electronic state is 1-A'.
 Alpha  occ. eigenvalues --  -19.20255  -1.10621  -0.63546  -0.45981  -0.39586
 Alpha virt. eigenvalues --    0.16641   0.25734   0.91915   0.92550   1.00794
 Alpha virt. eigenvalues --    1.01220   1.19433   1.26794   1.85633   1.87651
 Alpha virt. eigenvalues --    1.90881   2.39845   2.65538   3.68194

 Mulliken charges:
               1
     1  O   -0.810120
     2  H    0.405543
     3  H    0.404577
 Sum of Mulliken charges =   0.00000

 Dipole moment (field-independent basis, Debye):
    X=              0.0066    Y=             -1.9905    Z=             -0.0000  Tot=              1.9905
 Quadrupole moment (field-independent basis, Debye-Ang):
   XX=             -3.7251   YY=             -6.2420   ZZ=             -7.2502
   XY=              0.0266   XZ=              0.0000   YZ=             -0.0000

 Normal termination of Gaussian 16 at Fri Sep 22 16:29:39 2023.
