 Gaussian 16, Revision A.03,
 Gaussian 16:  ES64L-G16RevA.03 25-Dec-2016

 ----------------
 # 6-31g(d) wb97x
 ----------------

 ----------------------
 tmpdir/M1_conf_0_8.gjf
 ----------------------
 Symbolic Z-matrix:
 Charge =  0 Multiplicity = 1

                         Standard orientation:
 ---------------------------------------------------------------------
 Center     Atomic      Atomic             Coordinates (Angstroms)
 Number     Number       Type             X           Y           Z
 ---------------------------------------------------------------------
      1          6           0       -0.001053   -0.001654   -0.010463
      2          1           0        0.203872    1.044235    0.224459
      3          1           0       -0.007398   -0.556364    0.934345
      4          1           0       -0.990546   -0.092425   -0.468096
      5          1           0        0.800387   -0.385524   -0.627928
 ---------------------------------------------------------------------

 SCF Done:  E(RwB97X) =  -40.4990679451     A.U. after   11 cycles

 The electronic state is 1-A.
 Alpha  occ. eigenvalues --  -10.24775  -0.81854  -0.50297  -0.49307  -0.48995
 Alpha virt. eigenvalues --    0.21712   0.27321   0.27540   0.28033   0.63666
 Alpha virt. eigenvalues --    0.63915   0.64395   1.01282   1.01782   1.03020
 Alpha virt. eigenvalues --    1.07533   1.20930   1.75607   1.75947   2.34599

 Mulliken charges:
               1
     1  C   -0.668880
     2  H    0.166124
     3  H    0.164130
     4  H    0.168022
     5  H    0.170604
 Sum of Mulliken charges =  -0.00000

 Dipole moment (field-independent basis, Debye):
    X=              0.0126    Y=              0.0050    Z=              0.0318  Tot=              0.0346
 Quadrupole moment (field-independent basis, Debye-Ang):
   XX=             -8.1079   YY=             -8.2999   ZZ=             -8.3265
   XY=             -0.0096   XZ=             -0.0120   YZ=              0.0180

 Normal termination of Gaussian 16 at Fri Sep 22 16:29:27 2023.
