 Gaussian 16, Revision A.03,
 Gaussian 16:  ES64L-G16RevA.03 25-Dec-2016

 ----------------
 # 6-31g(d) wb97x
 ----------------

 ----------------------
 tmpdir/M1_conf_2_1.gjf
 ----------------------
 Symbolic Z-matrix:
 Charge =  0 Multiplicity = 1

                         Standard orientation:
 ---------------------------------------------------------------------
 Center     Atomic      Atomic             Coordinates (Angstroms)
 Number     Number       Type             X           Y           Z
 ---------------------------------------------------------------------
      1          6           0        0.669004   -0.003344   -0.008208
      2          6           0       -0.666847   -0.006834   -0.019018
      3          1           0       -1.190909    0.945708   -0.004968
      4          1           0        1.216297    0.938578    0.083338
      5          1           0        1.241487   -0.937070   -0.016525
      6          1           0       -1.279814   -0.886146    0.101507
 ---------------------------------------------------------------------

 SCF Done:  E(RwB97X) =  -78.5552251027     A.U. after   12 cycles

 The electronic state is 1-A.
 Alpha  occ. eigenvalues --  -10.26957 -10.26654  -0.88361  -0.69488  -0.57682
 Alpha  occ. eigenvalues --   -0.51907  -0.45528  -0.36613
 Alpha virt. eigenvalues --    0.11008   0.21870   0.24056   0.25927   0.34878
 Alpha virt. eigenvalues --    0.42566   0.58596   0.65713   0.67693   0.74974
 Alpha virt. eigenvalues --    0.75976   0.81500   0.96442   0.99428   1.04501

 Mulliken charges:
               1
     1  C   -0.324271
     2  C   -0.322709
     3  H    0.157485
     4  H    0.162494
     5  H    0.160906
     6  H    0.166094
 Sum of Mulliken charges =   0.00000

 Dipole moment (field-independent basis, Debye):
    X=             -0.0096    Y=              0.0087    Z=              0.1525  Tot=              0.1530
 Quadrupole moment (field-independent basis, Debye-Ang):
   XX=            -11.9754   YY=            -12.0296   ZZ=            -15.1127
   XY=              0.0759   XZ=             -0.0483   YZ=              0.0025

 Normal termination of Gaussian 16 at Fri Sep 22 16:29:38 2023.
