 Gaussian 16, Revision A.03,
 Gaussian 16:  ES64L-G16RevA.03 25-Dec-2016

 ----------------
 # 6-31g(d) wb97x
 ----------------

 ----------------------
 tmpdir/M1_conf_0_4.gjf
 ----------------------
 Symbolic Z-matrix:
 Charge =  1 Multiplicity = 1

                         Standard orientation:
 ---------------------------------------------------------------------
 Center     Atomic      Atomic             Coordinates (Angstroms)
 Number     Number       Type             X           Y           Z
 ---------------------------------------------------------------------
      1          7           0        0.008529   -0.002643    0.003946
      2          1           0       -0.737573    0.231258    0.676131
      3          1           0        0.213959    0.843397   -0.536274
      4          1           0       -0.375925   -0.721582   -0.620066
      5          1           0        0.839837   -0.334571    0.452591
 ---------------------------------------------------------------------

 SCF Done:  E(RwB97X) =  -56.8751111548     A.U. after   10 cycles

 The electronic state is 1-A.
 Alpha  occ. eigenvalues --  -14.78769  -1.37973  -0.94958  -0.93780  -0.92976
 Alpha virt. eigenvalues --   -0.09945  -0.02246  -0.01770  -0.00682   0.44038
 Alpha virt. eigenvalues --    0.45027   0.45715   0.69076   0.69571   0.70702
 Alpha virt. eigenvalues --    0.73515   1.10775   1.34925   1.35659   2.09893

 Mulliken charges:
               1
     1  N   -0.878020
     2  H    0.469491
     3  H    0.469028
     4  H    0.468856
     5  H    0.470644
 Sum of Mulliken charges =   1.00000

 Dipole moment (field-independent basis, Debye):
    X=             -0.1099    Y=              0.0339    Z=             -0.0485  Tot=              0.1248
 Quadrupole moment (field-independent basis, Debye-Ang):
   XX=             -4.2251   YY=             -4.3461   ZZ=             -4.5098
   XY=             -0.0093   XZ=              0.0153   YZ=             -0.0077

 Normal termination of Gaussian 16 at Fri Sep 22 16:29:25 2023.
