 Gaussian 16, Revision A.03,
 Gaussian 16:  ES64L-G16RevA.03 25-Dec-2016

 ----------------
 # 6-31g(d) wb97x
 ----------------

 --------------------
 tmpdir/M1_ref_11.gjf
 --------------------
 Symbolic Z-matrix:
 Charge =  0 Multiplicity = 1

                         Standard orientation:
 ---------------------------------------------------------------------
 Center     Atomic      Atomic             Coordinates (Angstroms)
 Number     Number       Type             X           Y           Z
 ---------------------------------------------------------------------
      1          6           0        0.011452    0.000158   -0.008462
      2          1           0        0.280283    0.124530    1.057597
      3          1           0       -0.983956   -0.624392   -0.057180
      4          1           0        0.859806   -0.495192   -0.521486
      5          1           0       -0.224846    0.994104   -0.428158
 ---------------------------------------------------------------------

 SCF Done:  E(RwB97X) =  -40.4946329479     A.U. after   11 cycles

 The electronic state is 1-A.
 Alpha  occ. eigenvalues --  -10.26215  -0.80935  -0.50112  -0.48905  -0.47844
 Alpha virt. eigenvalues --    0.20659   0.25473   0.26899   0.27429   0.64033
 Alpha virt. eigenvalues --    0.64569   0.66391   0.96607   1.00215   1.01422
 Alpha virt. eigenvalues --    1.03782   1.19842   1.76304   1.76566   2.27076

 Mulliken charges:
               1
     1  C   -0.653308
     2  H    0.166160
     3  H    0.148637
     4  H    0.169941
     5  H    0.168570
 Sum of Mulliken charges =   0.00000

 Dipole moment (field-independent basis, Debye):
    X=              0.0235    Y=              0.0456    Z=              0.0348  Tot=              0.0620
 Quadrupole moment (field-independent basis, Debye-Ang):
   XX=             -8.1737   YY=             -8.3869   ZZ=             -8.4372
   XY=             -0.0986   XZ=             -0.0178   YZ=             -0.0045

 Normal termination of Gaussian 16 at Fri Sep 22 16:29:21 2023.
