 Gaussian 16, Revision A.03,
 Gaussian 16:  ES64L-G16RevA.03 25-Dec-2016

 ----------------
 # 6-31g(d) wb97x
 ----------------

 --------------------
 tmpdir/M1_ref_14.gjf
 --------------------
 Symbolic Z-matrix:
 Charge =  0 Multiplicity = 1

                         Standard orientation:
 ---------------------------------------------------------------------
 Center     Atomic      Atomic             Coordinates (Angstroms)
 Number     Number       Type             X           Y           Z
 ---------------------------------------------------------------------
      1          6           0       -0.004281   -0.008888   -0.002797
      2          1           0        0.031763    0.814552   -0.724849
      3          1           0        0.170193    0.428301    0.988196
      4          1           0        0.825559   -0.706307   -0.214651
      5          1           0       -1.001831   -0.483218   -0.031916
 ---------------------------------------------------------------------

 SCF Done:  E(RwB97X) =  -40.4988295176     A.U. after   11 cycles

 The electronic state is 1-A.
 Alpha  occ. eigenvalues --  -10.25208  -0.81566  -0.49987  -0.49122  -0.48952
 Alpha virt. eigenvalues --    0.21437   0.27128   0.27329   0.27494   0.63893
 Alpha virt. eigenvalues --    0.64048   0.64919   1.00707   1.01220   1.01701
 Alpha virt. eigenvalues --    1.06324   1.20666   1.75840   1.76060   2.32546

 Mulliken charges:
               1
     1  C   -0.664776
     2  H    0.166080
     3  H    0.165354
     4  H    0.166128
     5  H    0.167213
 Sum of Mulliken charges =   0.00000

 Dipole moment (field-independent basis, Debye):
    X=              0.0168    Y=              0.0427    Z=              0.0117  Tot=              0.0473
 Quadrupole moment (field-independent basis, Debye-Ang):
   XX=             -8.1182   YY=             -8.3218   ZZ=             -8.3740
   XY=              0.0041   XZ=              0.0000   YZ=             -0.0026

 Normal termination of Gaussian 16 at Fri Sep 22 16:29:23 2023.
