 Gaussian 16, Revision A.03,
 Gaussian 16:  ES64L-G16RevA.03 25-Dec-2016

 ----------------
 # 6-31g(d) wb97x
 ----------------

 -------------------
 tmpdir/M1_ref_3.gjf
 -------------------
 Symbolic Z-matrix:
 Charge =  0 Multiplicity = 1

                         Standard orientation:
 ---------------------------------------------------------------------
 Center     Atomic      Atomic             Coordinates (Angstroms)
 Number     Number       Type             X           Y           Z
 ---------------------------------------------------------------------
      1          6           0       -0.015772    0.004810    0.002171
      2          1           0       -0.056700   -0.590659    0.921218
      3          1           0       -0.024831    1.088841    0.217583
      4          1           0        1.031150   -0.242088   -0.491457
      5          1           0       -0.854988   -0.284952   -0.660369
 ---------------------------------------------------------------------

 SCF Done:  E(RwB97X) =  -40.4943514040     A.U. after   11 cycles

 The electronic state is 1-A.
 Alpha  occ. eigenvalues --  -10.26184  -0.80962  -0.49904  -0.49580  -0.47450
 Alpha virt. eigenvalues --    0.20667   0.25235   0.27161   0.27510   0.64025
 Alpha virt. eigenvalues --    0.64540   0.66296   0.96192   1.00891   1.01450
 Alpha virt. eigenvalues --    1.03807   1.19867   1.76100   1.76744   2.27215

 Mulliken charges:
               1
     1  C   -0.653086
     2  H    0.170240
     3  H    0.169282
     4  H    0.144497
     5  H    0.169067
 Sum of Mulliken charges =  -0.00000

 Dipole moment (field-independent basis, Debye):
    X=             -0.0216    Y=             -0.0027    Z=              0.0430  Tot=              0.0482
 Quadrupole moment (field-independent basis, Debye-Ang):
   XX=             -8.2720   YY=             -8.2701   ZZ=             -8.4513
   XY=              0.0462   XZ=              0.0944   YZ=             -0.0272

 Normal termination of Gaussian 16 at Fri Sep 22 16:29:19 2023.
