 Gaussian 16, Revision A.03,
 Gaussian 16:  ES64L-G16RevA.03 25-Dec-2016

 ----------------
 # 6-31g(d) wb97x
 ----------------

 --------------------
 tmpdir/M1_ref_10.gjf
 --------------------
 Symbolic Z-matrix:
 Charge =  0 Multiplicity = 1

                         Standard orientation:
 ---------------------------------------------------------------------
 Center     Atomic      Atomic             Coordinates (Angstroms)
 Number     Number       Type             X           Y           Z
 ---------------------------------------------------------------------
      1          8           0        0.000000    0.103151    0.000000
      2          1           0        0.833985   -0.406534   -0.000000
      3          1           0       -0.833985   -0.418672   -0.000000
 ---------------------------------------------------------------------

 SCF Done:  E(RwB97X) =  -76.3834607085     A.U. after   12 cycles

 The electronic state is 1-A'.
 Alpha  occ. eigenvalues --  -19.20008  -1.10620  -0.64128  -0.45494  -0.39528
 Alpha virt. eigenvalues --    0.16772   0.26025   0.91272   0.93828   1.00891
 Alpha virt. eigenvalues --    1.01286   1.19931   1.26291   1.85319   1.88312
 Alpha virt. eigenvalues --    1.91114   2.41611   2.65248   3.68834

 Mulliken charges:
               1
     1  O   -0.816907
     2  H    0.408767
     3  H    0.408140
 Sum of Mulliken charges =  -0.00000

 Dipole moment (field-independent basis, Debye):
    X=              0.0049    Y=             -1.9394    Z=             -0.0000  Tot=              1.9394
 Quadrupole moment (field-independent basis, Debye-Ang):
   XX=             -3.6165   YY=             -6.3057   ZZ=             -7.2397
   XY=              0.0223   XZ=              0.0000   YZ=             -0.0000

 Normal termination of Gaussian 16 at Fri Sep 22 16:29:21 2023.
