 Gaussian 16, Revision A.03,
 Gaussian 16:  ES64L-G16RevA.03 25-Dec-2016

 ----------------
 # 6-31g(d) wb97x
 ----------------

 -----------------------
 tmpdir/M2_conf_2_83.gjf
 -----------------------
 Symbolic Z-matrix:
 Charge =  0 Multiplicity = 1

                         Standard orientation:
 ---------------------------------------------------------------------
 Center     Atomic      Atomic             Coordinates (Angstroms)
 Number     Number       Type             X           Y           Z
 ---------------------------------------------------------------------
      1          6           0       -0.764487   -0.005435   -0.000270
      2          6           0        0.762912   -0.005126   -0.002269
      3          1           0        1.131245    0.388916    0.954455
      4          1           0       -1.147918    1.018896    0.011656
      5          1           0       -1.169045   -0.522310    0.876946
      6          1           0       -1.157940   -0.496147   -0.895872
      7          1           0        1.220233   -1.002972   -0.155547
      8          1           0        1.132872    0.676983   -0.776407
 ---------------------------------------------------------------------

 SCF Done:  E(RwB97X) =  -79.8007329882     A.U. after   12 cycles

 The electronic state is 1-A.
 Alpha  occ. eigenvalues --  -10.25632 -10.25460  -0.87881  -0.73382  -0.54178
 Alpha  occ. eigenvalues --   -0.54058  -0.46693  -0.44188  -0.43932
 Alpha virt. eigenvalues --    0.19976   0.25323   0.25722   0.25987   0.29051
 Alpha virt. eigenvalues --    0.29474   0.33991   0.61763   0.64885   0.65007
 Alpha virt. eigenvalues --    0.73986   0.75461   0.78882   0.99896   1.00011

 Mulliken charges:
               1
     1  C   -0.468334
     2  C   -0.468447
     3  H    0.154778
     4  H    0.157004
     5  H    0.156565
     6  H    0.156651
     7  H    0.155636
     8  H    0.156147
 Sum of Mulliken charges =  -0.00000

 Dipole moment (field-independent basis, Debye):
    X=             -0.0076    Y=              0.0364    Z=              0.0048  Tot=              0.0374
 Quadrupole moment (field-independent basis, Debye-Ang):
   XX=            -15.2679   YY=            -14.6465   ZZ=            -14.7375
   XY=             -0.0557   XZ=             -0.0144   YZ=             -0.0053

 Normal termination of Gaussian 16 at Fri Sep 22 16:33:11 2023.
