 Gaussian 16, Revision A.03,
 Gaussian 16:  ES64L-G16RevA.03 25-Dec-2016

 ----------------
 # 6-31g(d) wb97x
 ----------------

 -----------------------
 tmpdir/M2_conf_1_89.gjf
 -----------------------
 Symbolic Z-matrix:
 Charge =  0 Multiplicity = 1

                         Standard orientation:
 ---------------------------------------------------------------------
 Center     Atomic      Atomic             Coordinates (Angstroms)
 Number     Number       Type             X           Y           Z
 ---------------------------------------------------------------------
      1          8           0        1.245605   -0.277637    0.000723
      2          6           0        0.223708    0.432462   -0.003381
      3          6           0       -1.168577   -0.148921    0.000215
      4          1           0        0.215606    1.486663    0.008106
      5          1           0       -1.289199   -0.755719    0.901633
      6          1           0       -1.264687   -0.817159   -0.859496
      7          1           0       -1.957350    0.606060   -0.037031
 ---------------------------------------------------------------------

 SCF Done:  E(RwB97X) =  -153.779015959     A.U. after   14 cycles

 The electronic state is 1-A.
 Alpha  occ. eigenvalues --  -19.21823 -10.36597 -10.27768  -1.15340  -0.88353
 Alpha  occ. eigenvalues --   -0.71551  -0.58795  -0.55259  -0.53679  -0.50256
 Alpha  occ. eigenvalues --   -0.45570  -0.35842
 Alpha virt. eigenvalues --    0.06201   0.20669   0.22544   0.26986   0.27239
 Alpha virt. eigenvalues --    0.34317   0.36991   0.63135   0.64444   0.67539
 Alpha virt. eigenvalues --    0.70824   0.75779   0.82036   0.89335   0.96215

 Mulliken charges:
               1
     1  O   -0.396387
     2  C    0.229879
     3  C   -0.559770
     4  H    0.147270
     5  H    0.205177
     6  H    0.204593
     7  H    0.169239
 Sum of Mulliken charges =  -0.00000

 Dipole moment (field-independent basis, Debye):
    X=             -2.5254    Y=              1.1403    Z=              0.0084  Tot=              2.7709
 Quadrupole moment (field-independent basis, Debye-Ang):
   XX=            -20.8996   YY=            -17.4015   ZZ=            -17.5229
   XY=              0.9775   XZ=             -0.0188   YZ=             -0.0040

 Normal termination of Gaussian 16 at Fri Sep 22 16:32:16 2023.
