 Gaussian 16, Revision A.03,
 Gaussian 16:  ES64L-G16RevA.03 25-Dec-2016

 ----------------
 # 6-31g(d) wb97x
 ----------------

 ----------------------
 tmpdir/M2_conf_0_9.gjf
 ----------------------
 Symbolic Z-matrix:
 Charge =  0 Multiplicity = 1

                         Standard orientation:
 ---------------------------------------------------------------------
 Center     Atomic      Atomic             Coordinates (Angstroms)
 Number     Number       Type             X           Y           Z
 ---------------------------------------------------------------------
      1          6           0        0.675985    0.461205    0.000359
      2          6           0       -0.560708   -0.481451    0.004264
      3          6           0       -1.743717    0.124502   -0.005272
      4          8           0        1.757805   -0.168020    0.000460
      5          1           0        0.461425    1.457241   -0.004990
      6          1           0       -0.327998   -1.540911   -0.015635
      7          1           0       -2.689210   -0.409132    0.016157
      8          1           0       -1.736016    1.211421    0.004679
 ---------------------------------------------------------------------

 SCF Done:  E(RwB97X) =  -191.834156295     A.U. after   15 cycles

 The electronic state is 1-A.
 Alpha  occ. eigenvalues --  -19.21946 -10.36794 -10.29439 -10.29016  -1.15248
 Alpha  occ. eigenvalues --   -0.92460  -0.76656  -0.70786  -0.58889  -0.57677
 Alpha  occ. eigenvalues --   -0.52972  -0.49692  -0.49096  -0.38338  -0.35694
 Alpha virt. eigenvalues --    0.03168   0.13957   0.19570   0.22196   0.25593
 Alpha virt. eigenvalues --    0.28513   0.34027   0.42145   0.43077   0.61051
 Alpha virt. eigenvalues --    0.61408   0.68277   0.69172   0.71971   0.74366

 Mulliken charges:
               1
     1  C    0.222830
     2  C   -0.145242
     3  C   -0.364227
     4  O   -0.418598
     5  H    0.163157
     6  H    0.192190
     7  H    0.184398
     8  H    0.165493
 Sum of Mulliken charges =  -0.00000

 Dipole moment (field-independent basis, Debye):
    X=             -2.7381    Y=              1.0697    Z=              0.0050  Tot=              2.9397
 Quadrupole moment (field-independent basis, Debye-Ang):
   XX=            -26.9555   YY=            -20.6143   ZZ=            -24.5096
   XY=              1.1069   XZ=             -0.0498   YZ=              0.0220

 Normal termination of Gaussian 16 at Fri Sep 22 16:30:19 2023.
