 Gaussian 16, Revision A.03,
 Gaussian 16:  ES64L-G16RevA.03 25-Dec-2016

 ----------------
 # 6-31g(d) wb97x
 ----------------

 -----------------------
 tmpdir/M2_conf_1_95.gjf
 -----------------------
 Symbolic Z-matrix:
 Charge =  0 Multiplicity = 1

                         Standard orientation:
 ---------------------------------------------------------------------
 Center     Atomic      Atomic             Coordinates (Angstroms)
 Number     Number       Type             X           Y           Z
 ---------------------------------------------------------------------
      1          6           0        0.226229    0.458948   -0.003244
      2          6           0       -1.152802   -0.153210    0.000215
      3          1           0       -1.933371    0.610257   -0.037030
      4          1           0        0.265537    1.512447    0.008841
      5          8           0        1.215156   -0.296397    0.000623
      6          1           0       -1.259765   -0.763086    0.901271
      7          1           0       -1.234208   -0.822870   -0.859892
 ---------------------------------------------------------------------

 SCF Done:  E(RwB97X) =  -153.779082736     A.U. after   14 cycles

 The electronic state is 1-A.
 Alpha  occ. eigenvalues --  -19.21587 -10.36489 -10.27632  -1.15302  -0.87999
 Alpha  occ. eigenvalues --   -0.71637  -0.58684  -0.55187  -0.53515  -0.50361
 Alpha  occ. eigenvalues --   -0.45378  -0.35712
 Alpha virt. eigenvalues --    0.06199   0.20885   0.22417   0.27134   0.27628
 Alpha virt. eigenvalues --    0.33608   0.37242   0.63201   0.64172   0.68330
 Alpha virt. eigenvalues --    0.70674   0.75436   0.82282   0.88392   0.96371

 Mulliken charges:
               1
     1  C    0.220943
     2  C   -0.550658
     3  H    0.162728
     4  H    0.152881
     5  O   -0.396067
     6  H    0.205221
     7  H    0.204952
 Sum of Mulliken charges =   0.00000

 Dipole moment (field-independent basis, Debye):
    X=             -2.4033    Y=              1.2406    Z=              0.0090  Tot=              2.7046
 Quadrupole moment (field-independent basis, Debye-Ang):
   XX=            -20.9774   YY=            -17.2119   ZZ=            -17.5196
   XY=              1.1229   XZ=             -0.0183   YZ=             -0.0032

 Normal termination of Gaussian 16 at Fri Sep 22 16:32:14 2023.
