 Gaussian 16, Revision A.03,
 Gaussian 16:  ES64L-G16RevA.03 25-Dec-2016

 ----------------
 # 6-31g(d) wb97x
 ----------------

 ----------------------
 tmpdir/M2_conf_2_0.gjf
 ----------------------
 Symbolic Z-matrix:
 Charge =  0 Multiplicity = 1

                         Standard orientation:
 ---------------------------------------------------------------------
 Center     Atomic      Atomic             Coordinates (Angstroms)
 Number     Number       Type             X           Y           Z
 ---------------------------------------------------------------------
      1          6           0       -0.560835   -0.025629   -0.000498
      2          8           0        0.700946   -0.008312    0.000118
      3          1           0       -1.236696   -0.788103    0.001188
      4          1           0       -1.005857    1.008370    0.000861
 ---------------------------------------------------------------------

 SCF Done:  E(RwB97X) =  -114.451194246     A.U. after   14 cycles

 The electronic state is 1-A.
 Alpha  occ. eigenvalues --  -19.23647 -10.37167  -1.15499  -0.77925  -0.60623
 Alpha  occ. eigenvalues --   -0.54853  -0.48628  -0.36879
 Alpha virt. eigenvalues --    0.04422   0.20974   0.26999   0.32248   0.62181
 Alpha virt. eigenvalues --    0.68793   0.73442   0.77076   0.94551   0.97155
 Alpha virt. eigenvalues --    1.05288   1.07571   1.16762   1.48006   1.59027

 Mulliken charges:
               1
     1  C    0.054925
     2  O   -0.360556
     3  H    0.174011
     4  H    0.131620
 Sum of Mulliken charges =  -0.00000

 Dipole moment (field-independent basis, Debye):
    X=             -2.5615    Y=             -0.1428    Z=              0.0003  Tot=              2.5655
 Quadrupole moment (field-independent basis, Debye-Ang):
   XX=            -11.5989   YY=            -11.4503   ZZ=            -11.4778
   XY=              0.3716   XZ=             -0.0010   YZ=              0.0004

 Normal termination of Gaussian 16 at Fri Sep 22 16:32:24 2023.
