 Gaussian 16, Revision A.03,
 Gaussian 16:  ES64L-G16RevA.03 25-Dec-2016

 ----------------
 # 6-31g(d) wb97x
 ----------------

 -----------------------
 tmpdir/M2_conf_1_30.gjf
 -----------------------
 Symbolic Z-matrix:
 Charge =  1 Multiplicity = 1

                         Standard orientation:
 ---------------------------------------------------------------------
 Center     Atomic      Atomic             Coordinates (Angstroms)
 Number     Number       Type             X           Y           Z
 ---------------------------------------------------------------------
      1          7           0        0.001207    0.000545    0.004467
      2          1           0        0.459045   -0.494033   -0.793504
      3          1           0        0.005966    1.039985   -0.171843
      4          1           0       -1.017927   -0.332762    0.091740
      5          1           0        0.544468   -0.217006    0.842337
 ---------------------------------------------------------------------

 SCF Done:  E(RwB97X) =  -56.8733283122     A.U. after   10 cycles

 The electronic state is 1-A.
 Alpha  occ. eigenvalues --  -14.79172  -1.36275  -0.93287  -0.92424  -0.91812
 Alpha virt. eigenvalues --   -0.10866  -0.03462  -0.02481  -0.01571   0.44867
 Alpha virt. eigenvalues --    0.46169   0.47043   0.66790   0.68193   0.68885
 Alpha virt. eigenvalues --    0.71157   1.09407   1.36422   1.36888   2.04385

 Mulliken charges:
               1
     1  N   -0.888155
     2  H    0.469804
     3  H    0.472800
     4  H    0.475524
     5  H    0.470026
 Sum of Mulliken charges =   1.00000

 Dipole moment (field-independent basis, Debye):
    X=             -0.0350    Y=             -0.0042    Z=             -0.0589  Tot=              0.0686
 Quadrupole moment (field-independent basis, Debye-Ang):
   XX=             -4.1169   YY=             -4.2703   ZZ=             -4.5300
   XY=             -0.0055   XZ=              0.0126   YZ=             -0.0050

 Normal termination of Gaussian 16 at Fri Sep 22 16:31:20 2023.
