 Gaussian 16, Revision A.03,
 Gaussian 16:  ES64L-G16RevA.03 25-Dec-2016

 ----------------
 # 6-31g(d) wb97x
 ----------------

 -----------------------
 tmpdir/M2_conf_0_15.gjf
 -----------------------
 Symbolic Z-matrix:
 Charge =  0 Multiplicity = 1

                         Standard orientation:
 ---------------------------------------------------------------------
 Center     Atomic      Atomic             Coordinates (Angstroms)
 Number     Number       Type             X           Y           Z
 ---------------------------------------------------------------------
      1          6           0        0.247645    0.400685   -0.007194
      2          6           0       -1.145074   -0.152875   -0.004970
      3          1           0       -1.708147    0.427095   -0.743925
      4          1           0        0.311445    1.524412    0.012054
      5          8           0        1.197359   -0.285825    0.002742
      6          1           0       -1.200485   -1.241828   -0.186088
      7          1           0       -1.597105    0.090060    0.969008
 ---------------------------------------------------------------------

 SCF Done:  E(RwB97X) =  -153.781902169     A.U. after   14 cycles

 The electronic state is 1-A.
 Alpha  occ. eigenvalues --  -19.21515 -10.36151 -10.27715  -1.19294  -0.88094
 Alpha  occ. eigenvalues --   -0.69496  -0.59263  -0.55828  -0.54788  -0.50537
 Alpha  occ. eigenvalues --   -0.47264  -0.35359
 Alpha virt. eigenvalues --    0.08935   0.20406   0.22271   0.25152   0.25929
 Alpha virt. eigenvalues --    0.35328   0.38453   0.63081   0.65537   0.69051
 Alpha virt. eigenvalues --    0.70490   0.79081   0.85319   0.87289   0.95115

 Mulliken charges:
               1
     1  C    0.245792
     2  C   -0.557478
     3  H    0.174058
     4  H    0.108771
     5  O   -0.354162
     6  H    0.196822
     7  H    0.186197
 Sum of Mulliken charges =  -0.00000

 Dipole moment (field-independent basis, Debye):
    X=             -2.2615    Y=              1.0993    Z=              0.0489  Tot=              2.5150
 Quadrupole moment (field-independent basis, Debye-Ang):
   XX=            -20.6574   YY=            -17.5946   ZZ=            -17.6148
   XY=              0.9104   XZ=             -0.1229   YZ=              0.0107

 Normal termination of Gaussian 16 at Fri Sep 22 16:30:16 2023.
