 Gaussian 16, Revision A.03,
 Gaussian 16:  ES64L-G16RevA.03 25-Dec-2016

 ----------------
 # 6-31g(d) wb97x
 ----------------

 ------------------------
 tmpdir/M2_conf_2_100.gjf
 ------------------------
 Symbolic Z-matrix:
 Charge =  0 Multiplicity = 1

                         Standard orientation:
 ---------------------------------------------------------------------
 Center     Atomic      Atomic             Coordinates (Angstroms)
 Number     Number       Type             X           Y           Z
 ---------------------------------------------------------------------
      1          6           0       -0.004283   -0.008864   -0.002929
      2          1           0        0.032289    0.827055   -0.711135
      3          1           0        0.825355   -0.702910   -0.226367
      4          1           0       -1.002033   -0.482278   -0.040332
      5          1           0        0.170087    0.411315    0.995406
 ---------------------------------------------------------------------

 SCF Done:  E(RwB97X) =  -40.4988276689     A.U. after   11 cycles

 The electronic state is 1-A.
 Alpha  occ. eigenvalues --  -10.25213  -0.81563  -0.49987  -0.49117  -0.48952
 Alpha virt. eigenvalues --    0.21435   0.27126   0.27320   0.27493   0.63899
 Alpha virt. eigenvalues --    0.64052   0.64919   1.00704   1.01203   1.01698
 Alpha virt. eigenvalues --    1.06303   1.20663   1.75842   1.76062   2.32544

 Mulliken charges:
               1
     1  C   -0.664724
     2  H    0.165985
     3  H    0.166144
     4  H    0.167221
     5  H    0.165373
 Sum of Mulliken charges =  -0.00000

 Dipole moment (field-independent basis, Debye):
    X=              0.0168    Y=              0.0422    Z=              0.0127  Tot=              0.0472
 Quadrupole moment (field-independent basis, Debye-Ang):
   XX=             -8.1186   YY=             -8.3220   ZZ=             -8.3744
   XY=              0.0040   XZ=              0.0001   YZ=             -0.0019

 Normal termination of Gaussian 16 at Fri Sep 22 16:33:11 2023.
