 Gaussian 16, Revision A.03,
 Gaussian 16:  ES64L-G16RevA.03 25-Dec-2016

 ----------------
 # 6-31g(d) wb97x
 ----------------

 -----------------------
 tmpdir/M2_conf_1_49.gjf
 -----------------------
 Symbolic Z-matrix:
 Charge =  0 Multiplicity = 1

                         Standard orientation:
 ---------------------------------------------------------------------
 Center     Atomic      Atomic             Coordinates (Angstroms)
 Number     Number       Type             X           Y           Z
 ---------------------------------------------------------------------
      1          6           0       -1.462949   -0.441838    0.010554
      2          7           0       -0.458109    0.630399   -0.049131
      3          6           0        0.869011    0.445888    0.012449
      4          1           0       -1.237291   -1.396482   -0.504186
      5          1           0       -2.385826    0.002715   -0.446732
      6          1           0       -1.696555   -0.650958    1.064924
      7          1           0       -0.921323    1.526399    0.062425
      8          8           0        1.441713   -0.658767   -0.004149
      9          1           0        1.477690    1.351367    0.062660
 ---------------------------------------------------------------------

 SCF Done:  E(RwB97X) =  -209.134993981     A.U. after   16 cycles

 The electronic state is 1-A.
 Alpha  occ. eigenvalues --  -19.17270 -14.44903 -10.36668 -10.31468  -1.14090
 Alpha  occ. eigenvalues --   -1.04919  -0.84394  -0.71802  -0.66045  -0.56370
 Alpha  occ. eigenvalues --   -0.56192  -0.51069  -0.49511  -0.47882  -0.35240
 Alpha  occ. eigenvalues --   -0.34586
 Alpha virt. eigenvalues --    0.12576   0.16349   0.21739   0.23497   0.25383
 Alpha virt. eigenvalues --    0.26519   0.30189   0.37676   0.46842   0.61417
 Alpha virt. eigenvalues --    0.62205   0.64696   0.69742   0.71847   0.77491

 Mulliken charges:
               1
     1  C   -0.336042
     2  N   -0.557364
     3  C    0.340164
     4  H    0.212928
     5  H    0.158358
     6  H    0.179710
     7  H    0.347809
     8  O   -0.477200
     9  H    0.131638
 Sum of Mulliken charges =   0.00000

 Dipole moment (field-independent basis, Debye):
    X=             -3.2820    Y=              2.6930    Z=              0.2589  Tot=              4.2533
 Quadrupole moment (field-independent basis, Debye-Ang):
   XX=            -24.9977   YY=            -21.8494   ZZ=            -24.6109
   XY=              2.6269   XZ=             -0.0668   YZ=              0.5059

 Normal termination of Gaussian 16 at Fri Sep 22 16:31:46 2023.
