 Gaussian 16, Revision A.03,
 Gaussian 16:  ES64L-G16RevA.03 25-Dec-2016

 ----------------
 # 6-31g(d) wb97x
 ----------------

 ----------------------
 tmpdir/M2_conf_1_9.gjf
 ----------------------
 Symbolic Z-matrix:
 Charge =  0 Multiplicity = 1

                         Standard orientation:
 ---------------------------------------------------------------------
 Center     Atomic      Atomic             Coordinates (Angstroms)
 Number     Number       Type             X           Y           Z
 ---------------------------------------------------------------------
      1          6           0        0.708246    0.470701    0.000277
      2          6           0       -0.560357   -0.428554    0.003896
      3          6           0       -1.777832    0.104788   -0.005090
      4          8           0        1.767622   -0.195617    0.000621
      5          1           0        0.528315    1.473571   -0.005115
      6          1           0       -0.364477   -1.495439   -0.015957
      7          1           0       -2.689333   -0.485004    0.017098
      8          1           0       -1.835824    1.190201    0.004515
 ---------------------------------------------------------------------

 SCF Done:  E(RwB97X) =  -191.835826411     A.U. after   15 cycles

 The electronic state is 1-A.
 Alpha  occ. eigenvalues --  -19.22219 -10.37064 -10.29320 -10.28868  -1.15452
 Alpha  occ. eigenvalues --   -0.92135  -0.77086  -0.70435  -0.58966  -0.57852
 Alpha  occ. eigenvalues --   -0.52913  -0.49780  -0.48734  -0.38279  -0.36011
 Alpha virt. eigenvalues --    0.02853   0.14350   0.19818   0.22226   0.25305
 Alpha virt. eigenvalues --    0.28673   0.33853   0.41889   0.43484   0.60740
 Alpha virt. eigenvalues --    0.61407   0.67115   0.69054   0.71881   0.74387

 Mulliken charges:
               1
     1  C    0.224300
     2  C   -0.156699
     3  C   -0.357808
     4  O   -0.412365
     5  H    0.166196
     6  H    0.185819
     7  H    0.186642
     8  H    0.163915
 Sum of Mulliken charges =  -0.00000

 Dipole moment (field-independent basis, Debye):
    X=             -2.6893    Y=              1.1749    Z=              0.0051  Tot=              2.9347
 Quadrupole moment (field-independent basis, Debye-Ang):
   XX=            -26.7092   YY=            -20.7161   ZZ=            -24.5142
   XY=              1.4041   XZ=             -0.0523   YZ=              0.0190

 Normal termination of Gaussian 16 at Fri Sep 22 16:31:26 2023.
