 Gaussian 16, Revision A.03,
 Gaussian 16:  ES64L-G16RevA.03 25-Dec-2016

 ----------------
 # 6-31g(d) wb97x
 ----------------

 ----------------------
 tmpdir/M2_conf_0_8.gjf
 ----------------------
 Symbolic Z-matrix:
 Charge =  0 Multiplicity = 1

                         Standard orientation:
 ---------------------------------------------------------------------
 Center     Atomic      Atomic             Coordinates (Angstroms)
 Number     Number       Type             X           Y           Z
 ---------------------------------------------------------------------
      1          6           0        1.021081   -0.641930    0.003394
      2          6           0       -0.476412   -0.223204   -0.011070
      3          6           0       -0.871463    1.222459   -0.001945
      4          8           0        1.793746    0.342545   -0.003540
      5          1           0        1.189807   -1.646629    0.019726
      6          8           0       -1.350284   -1.003944    0.000708
      7          1           0       -1.948559    1.399297   -0.175954
      8          1           0       -0.254401    1.752967   -0.734923
      9          1           0       -0.573781    1.641612    0.971539
 ---------------------------------------------------------------------

 SCF Done:  E(RwB97X) =  -267.056099263     A.U. after   16 cycles

 The electronic state is 1-A.
 Alpha  occ. eigenvalues --  -19.25811 -19.22815 -10.38882 -10.37246 -10.27520
 Alpha  occ. eigenvalues --   -1.21391  -1.18334  -0.88037  -0.81449  -0.68317
 Alpha  occ. eigenvalues --   -0.60649  -0.58818  -0.57757  -0.54716  -0.50948
 Alpha  occ. eigenvalues --   -0.50420  -0.47430  -0.42738  -0.34736
 Alpha virt. eigenvalues --   -0.00550   0.13368   0.20828   0.22774   0.25037
 Alpha virt. eigenvalues --    0.26624   0.28975   0.34953   0.39925   0.43313
 Alpha virt. eigenvalues --    0.60739   0.62487   0.65718   0.68766   0.71421

 Mulliken charges:
               1
     1  C    0.181215
     2  C    0.352575
     3  C   -0.555708
     4  O   -0.371257
     5  H    0.195282
     6  O   -0.378391
     7  H    0.198096
     8  H    0.188430
     9  H    0.189757
 Sum of Mulliken charges =  -0.00000

 Dipole moment (field-independent basis, Debye):
    X=              0.2056    Y=             -0.0073    Z=              0.0484  Tot=              0.2114
 Quadrupole moment (field-independent basis, Debye-Ang):
   XX=            -34.3540   YY=            -27.8533   ZZ=            -27.0825
   XY=             -5.8153   XZ=              0.0227   YZ=              0.0628

 Normal termination of Gaussian 16 at Fri Sep 22 16:30:34 2023.
