 Gaussian 16, Revision A.03,
 Gaussian 16:  ES64L-G16RevA.03 25-Dec-2016

 ----------------
 # 6-31g(d) wb97x
 ----------------

 -----------------------
 tmpdir/M2_conf_2_88.gjf
 -----------------------
 Symbolic Z-matrix:
 Charge =  0 Multiplicity = 1

                         Standard orientation:
 ---------------------------------------------------------------------
 Center     Atomic      Atomic             Coordinates (Angstroms)
 Number     Number       Type             X           Y           Z
 ---------------------------------------------------------------------
      1          7           0       -1.105718   -0.715059    0.022590
      2          6           0       -0.079767    0.148615   -0.001432
      3          6           0        1.292491   -0.478593   -0.000524
      4          1           0       -2.126645   -0.604101   -0.054080
      5          1           0       -0.870712   -1.698196   -0.067064
      6          8           0       -0.185126    1.388539   -0.003188
      7          1           0        1.823849   -0.150135    0.896741
      8          1           0        1.844428   -0.100110   -0.864803
      9          1           0        1.273768   -1.570484   -0.031680
 ---------------------------------------------------------------------

 SCF Done:  E(RwB97X) =  -209.149505741     A.U. after   15 cycles

 The electronic state is 1-A.
 Alpha  occ. eigenvalues --  -19.16290 -14.44114 -10.37374 -10.27319  -1.13758
 Alpha  occ. eigenvalues --   -1.03412  -0.86582  -0.72124  -0.63662  -0.57973
 Alpha  occ. eigenvalues --   -0.55597  -0.50732  -0.49050  -0.46649  -0.36246
 Alpha  occ. eigenvalues --   -0.33924
 Alpha virt. eigenvalues --    0.12995   0.16344   0.20044   0.23404   0.27661
 Alpha virt. eigenvalues --    0.28061   0.33984   0.40942   0.51599   0.63845
 Alpha virt. eigenvalues --    0.65146   0.67375   0.73796   0.73866   0.79188

 Mulliken charges:
               1
     1  N   -0.767402
     2  C    0.578150
     3  C   -0.563098
     4  H    0.364172
     5  H    0.340560
     6  O   -0.508731
     7  H    0.205404
     8  H    0.203965
     9  H    0.146981
 Sum of Mulliken charges =  -0.00000

 Dipole moment (field-independent basis, Debye):
    X=             -0.5214    Y=             -4.1713    Z=             -0.2653  Tot=              4.2121
 Quadrupole moment (field-independent basis, Debye-Ang):
   XX=            -18.9601   YY=            -26.2434   ZZ=            -24.5193
   XY=              2.3292   XZ=              0.4539   YZ=              0.3676

 Normal termination of Gaussian 16 at Fri Sep 22 16:33:15 2023.
