 Gaussian 16, Revision A.03,
 Gaussian 16:  ES64L-G16RevA.03 25-Dec-2016

 ----------------
 # 6-31g(d) wb97x
 ----------------

 -----------------------
 tmpdir/M2_conf_0_49.gjf
 -----------------------
 Symbolic Z-matrix:
 Charge =  0 Multiplicity = 1

                         Standard orientation:
 ---------------------------------------------------------------------
 Center     Atomic      Atomic             Coordinates (Angstroms)
 Number     Number       Type             X           Y           Z
 ---------------------------------------------------------------------
      1          6           0       -1.467411   -0.439913    0.010502
      2          7           0       -0.457259    0.627334   -0.048975
      3          6           0        0.870216    0.445271    0.012331
      4          1           0       -1.246303   -1.395726   -0.504044
      5          1           0       -2.387923    0.009142   -0.447153
      6          1           0       -1.702406   -0.647742    1.064818
      7          1           0       -0.916073    1.525627    0.062314
      8          8           0        1.444931   -0.658333   -0.004021
      9          1           0        1.477245    1.351881    0.062064
 ---------------------------------------------------------------------

 SCF Done:  E(RwB97X) =  -209.134991147     A.U. after   16 cycles

 The electronic state is 1-A.
 Alpha  occ. eigenvalues --  -19.17255 -14.44901 -10.36663 -10.31498  -1.14076
 Alpha  occ. eigenvalues --   -1.04919  -0.84429  -0.71758  -0.66048  -0.56376
 Alpha  occ. eigenvalues --   -0.56210  -0.51108  -0.49493  -0.47891  -0.35229
 Alpha  occ. eigenvalues --   -0.34575
 Alpha virt. eigenvalues --    0.12581   0.16339   0.21725   0.23469   0.25368
 Alpha virt. eigenvalues --    0.26514   0.30204   0.37656   0.46870   0.61317
 Alpha virt. eigenvalues --    0.62174   0.64681   0.69740   0.71933   0.77485

 Mulliken charges:
               1
     1  C   -0.335730
     2  N   -0.557109
     3  C    0.339646
     4  H    0.212806
     5  H    0.158694
     6  H    0.179842
     7  H    0.347388
     8  O   -0.477145
     9  H    0.131610
 Sum of Mulliken charges =  -0.00000

 Dipole moment (field-independent basis, Debye):
    X=             -3.2910    Y=              2.6928    Z=              0.2574  Tot=              4.2601
 Quadrupole moment (field-independent basis, Debye-Ang):
   XX=            -25.0081   YY=            -21.8495   ZZ=            -24.6099
   XY=              2.6474   XZ=             -0.0650   YZ=              0.5035

 Normal termination of Gaussian 16 at Fri Sep 22 16:30:39 2023.
