 Gaussian 16, Revision A.03,
 Gaussian 16:  ES64L-G16RevA.03 25-Dec-2016

 ----------------
 # 6-31g(d) wb97x
 ----------------

 -----------------------
 tmpdir/M2_conf_2_21.gjf
 -----------------------
 Symbolic Z-matrix:
 Charge =  0 Multiplicity = 1

                         Standard orientation:
 ---------------------------------------------------------------------
 Center     Atomic      Atomic             Coordinates (Angstroms)
 Number     Number       Type             X           Y           Z
 ---------------------------------------------------------------------
      1          6           0       -0.771542    0.000539   -0.018453
      2          6           0        0.765190   -0.000295    0.015128
      3          1           0       -1.175761    1.028671   -0.053666
      4          1           0       -1.226311   -0.518293    0.943144
      5          1           0       -1.116311   -0.599154   -0.868449
      6          1           0        1.307936   -1.020775    0.034819
      7          1           0        1.144494    0.509610   -0.909296
      8          1           0        1.104066    0.598476    0.873403
 ---------------------------------------------------------------------

 SCF Done:  E(RwB97X) =  -79.7926828737     A.U. after   12 cycles

 The electronic state is 1-A.
 Alpha  occ. eigenvalues --  -10.26787 -10.26612  -0.87306  -0.72682  -0.54309
 Alpha  occ. eigenvalues --   -0.52787  -0.46828  -0.44238  -0.42792
 Alpha virt. eigenvalues --    0.19355   0.23807   0.24096   0.26284   0.27537
 Alpha virt. eigenvalues --    0.28888   0.33461   0.61989   0.65453   0.65909
 Alpha virt. eigenvalues --    0.73807   0.77021   0.78340   0.96532   0.98274

 Mulliken charges:
               1
     1  C   -0.454674
     2  C   -0.459609
     3  H    0.161668
     4  H    0.134234
     5  H    0.161240
     6  H    0.148320
     7  H    0.150428
     8  H    0.158393
 Sum of Mulliken charges =  -0.00000

 Dipole moment (field-independent basis, Debye):
    X=              0.0132    Y=              0.0696    Z=             -0.0585  Tot=              0.0918
 Quadrupole moment (field-independent basis, Debye-Ang):
   XX=            -15.3665   YY=            -14.7304   ZZ=            -14.9444
   XY=             -0.1761   XZ=             -0.0260   YZ=              0.1268

 Normal termination of Gaussian 16 at Fri Sep 22 16:32:27 2023.
