 Gaussian 16, Revision A.03,
 Gaussian 16:  ES64L-G16RevA.03 25-Dec-2016

 ----------------
 # 6-31g(d) wb97x
 ----------------

 -----------------------
 tmpdir/M2_conf_1_70.gjf
 -----------------------
 Symbolic Z-matrix:
 Charge =  0 Multiplicity = 1

                         Standard orientation:
 ---------------------------------------------------------------------
 Center     Atomic      Atomic             Coordinates (Angstroms)
 Number     Number       Type             X           Y           Z
 ---------------------------------------------------------------------
      1          8           0       -1.239218   -0.256687   -0.118032
      2          6           0       -0.070179    0.557074    0.033329
      3          6           0        1.227777   -0.252772   -0.025264
      4          1           0       -1.459845   -0.847139    0.628966
      5          1           0       -0.130646    1.335560   -0.747848
      6          1           0       -0.126504    1.048263    1.023115
      7          1           0        1.375508   -0.810185   -0.968559
      8          1           0        1.251492   -0.946333    0.823177
      9          1           0        2.058147    0.447522    0.137012
 ---------------------------------------------------------------------

 SCF Done:  E(RwB97X) =  -154.985521309     A.U. after   13 cycles

 The electronic state is 1-A.
 Alpha  occ. eigenvalues --  -19.19878 -10.31525 -10.26023  -1.12269  -0.87115
 Alpha  occ. eigenvalues --   -0.74034  -0.60819  -0.56024  -0.52316  -0.48802
 Alpha  occ. eigenvalues --   -0.46737  -0.40985  -0.36163
 Alpha virt. eigenvalues --    0.17420   0.21600   0.24437   0.25549   0.26750
 Alpha virt. eigenvalues --    0.29056   0.32307   0.34293   0.63674   0.65433
 Alpha virt. eigenvalues --    0.67793   0.68496   0.76583   0.79009   0.92043

 Mulliken charges:
               1
     1  O   -0.645809
     2  C   -0.038079
     3  C   -0.482117
     4  H    0.398685
     5  H    0.164653
     6  H    0.130545
     7  H    0.172117
     8  H    0.148782
     9  H    0.151224
 Sum of Mulliken charges =  -0.00000

 Dipole moment (field-independent basis, Debye):
    X=              0.9066    Y=             -0.1366    Z=              1.3816  Tot=              1.6581
 Quadrupole moment (field-independent basis, Debye-Ang):
   XX=            -21.2328   YY=            -18.4774   ZZ=            -18.8153
   XY=              1.2629   XZ=             -2.3118   YZ=             -1.4390

 Normal termination of Gaussian 16 at Fri Sep 22 16:31:52 2023.
