 Gaussian 16, Revision A.03,
 Gaussian 16:  ES64L-G16RevA.03 25-Dec-2016

 ----------------
 # 6-31g(d) wb97x
 ----------------

 -----------------------
 tmpdir/M2_conf_1_38.gjf
 -----------------------
 Symbolic Z-matrix:
 Charge =  0 Multiplicity = 1

                         Standard orientation:
 ---------------------------------------------------------------------
 Center     Atomic      Atomic             Coordinates (Angstroms)
 Number     Number       Type             X           Y           Z
 ---------------------------------------------------------------------
      1          6           0       -0.709358   -0.020001    0.003073
      2          7           0        0.729121   -0.032455   -0.024657
      3          1           0       -1.246904   -0.862848   -0.474294
      4          1           0       -0.999099    0.930738   -0.517106
      5          1           0       -1.043380    0.071297    1.047149
      6          1           0        1.370800   -0.712990    0.060269
      7          1           0        1.070890    0.920995    0.038139
 ---------------------------------------------------------------------

 SCF Done:  E(RwB97X) =  -95.8017685986     A.U. after   12 cycles

 The electronic state is 1-A.
 Alpha  occ. eigenvalues --  -14.36307 -10.28393  -0.98938  -0.77936  -0.61209
 Alpha  occ. eigenvalues --   -0.53297  -0.51563  -0.46713  -0.29932
 Alpha virt. eigenvalues --    0.19375   0.23998   0.25090   0.28252   0.31298
 Alpha virt. eigenvalues --    0.35511   0.64973   0.68748   0.70409   0.85939
 Alpha virt. eigenvalues --    0.87744   0.92682   0.98842   0.99812   1.07188

 Mulliken charges:
               1
     1  C   -0.295511
     2  N   -0.790064
     3  H    0.157411
     4  H    0.146152
     5  H    0.139475
     6  H    0.330203
     7  H    0.312332
 Sum of Mulliken charges =   0.00000

 Dipole moment (field-independent basis, Debye):
    X=              0.2500    Y=              0.1957    Z=              0.2332  Tot=              0.3939
 Quadrupole moment (field-independent basis, Debye-Ang):
   XX=            -12.4148   YY=            -12.0630   ZZ=            -15.5315
   XY=              0.0036   XZ=              0.6357   YZ=             -0.0089

 Normal termination of Gaussian 16 at Fri Sep 22 16:31:38 2023.
