 Gaussian 16, Revision A.03,
 Gaussian 16:  ES64L-G16RevA.03 25-Dec-2016

 ----------------
 # 6-31g(d) wb97x
 ----------------

 ----------------------
 tmpdir/M2_conf_0_2.gjf
 ----------------------
 Symbolic Z-matrix:
 Charge =  0 Multiplicity = 1

                         Standard orientation:
 ---------------------------------------------------------------------
 Center     Atomic      Atomic             Coordinates (Angstroms)
 Number     Number       Type             X           Y           Z
 ---------------------------------------------------------------------
      1          6           0       -0.603516    0.488868   -0.000217
      2          6           0        0.591379   -0.365624   -0.005505
      3          6           0       -1.808317   -0.261947    0.000530
      4          1           0       -0.419409    1.490984    0.005413
      5          1           0        0.391092   -1.431695    0.014093
      6          6           0        1.825174    0.128822    0.001941
 ---------------------------------------------------------------------

 SCF Done:  E(RwB97X) =  -153.252758654     A.U. after   17 cycles

 The electronic state is 1-A.
 Alpha  occ. eigenvalues --  -10.37769 -10.35227 -10.32278 -10.31087  -0.97708
 Alpha  occ. eigenvalues --   -0.86340  -0.70197  -0.66421  -0.55810  -0.46620
 Alpha  occ. eigenvalues --   -0.43079  -0.40851  -0.34567
 Alpha virt. eigenvalues --   -0.02871  -0.00733   0.04108   0.14631   0.21962
 Alpha virt. eigenvalues --    0.26400   0.33789   0.41507   0.45634   0.60349
 Alpha virt. eigenvalues --    0.60870   0.62634   0.65365   0.66751   0.68594

 Mulliken charges:
               1
     1  C   -0.231047
     2  C   -0.271856
     3  C    0.027156
     4  H    0.229671
     5  H    0.238984
     6  C    0.007093
 Sum of Mulliken charges =  -0.00000

 Dipole moment (field-independent basis, Debye):
    X=             -0.4249    Y=              0.2299    Z=              0.0188  Tot=              0.4834
 Quadrupole moment (field-independent basis, Debye-Ang):
   XX=            -31.6468   YY=            -19.3694   ZZ=            -25.4480
   XY=             -3.8518   XZ=             -0.0043   YZ=             -0.0214

 Normal termination of Gaussian 16 at Fri Sep 22 16:30:25 2023.
