 Gaussian 16, Revision A.03,
 Gaussian 16:  ES64L-G16RevA.03 25-Dec-2016

 ----------------
 # 6-31g(d) wb97x
 ----------------

 ------------------------
 tmpdir/M2_conf_1_101.gjf
 ------------------------
 Symbolic Z-matrix:
 Charge =  0 Multiplicity = 1

                         Standard orientation:
 ---------------------------------------------------------------------
 Center     Atomic      Atomic             Coordinates (Angstroms)
 Number     Number       Type             X           Y           Z
 ---------------------------------------------------------------------
      1          6           0       -0.004288   -0.008920   -0.002776
      2          1           0        0.170866    0.433519    0.986090
      3          1           0        0.825226   -0.707717   -0.211336
      4          1           0       -1.002083   -0.483001   -0.028909
      5          1           0        0.031720    0.810717   -0.729189
 ---------------------------------------------------------------------

 SCF Done:  E(RwB97X) =  -40.4988266190     A.U. after   11 cycles

 The electronic state is 1-A.
 Alpha  occ. eigenvalues --  -10.25212  -0.81563  -0.49988  -0.49122  -0.48948
 Alpha virt. eigenvalues --    0.21435   0.27123   0.27325   0.27493   0.63899
 Alpha virt. eigenvalues --    0.64049   0.64920   1.00700   1.01211   1.01700
 Alpha virt. eigenvalues --    1.06308   1.20664   1.75841   1.76062   2.32541

 Mulliken charges:
               1
     1  C   -0.664737
     2  H    0.165288
     3  H    0.166144
     4  H    0.167219
     5  H    0.166087
 Sum of Mulliken charges =  -0.00000

 Dipole moment (field-independent basis, Debye):
    X=              0.0168    Y=              0.0426    Z=              0.0113  Tot=              0.0472
 Quadrupole moment (field-independent basis, Debye-Ang):
   XX=             -8.1183   YY=             -8.3223   ZZ=             -8.3741
   XY=              0.0040   XZ=             -0.0001   YZ=             -0.0029

 Normal termination of Gaussian 16 at Fri Sep 22 16:32:10 2023.
