 Gaussian 16, Revision A.03,
 Gaussian 16:  ES64L-G16RevA.03 25-Dec-2016

 ----------------
 # 6-31g(d) wb97x
 ----------------

 ------------------------
 tmpdir/M2_conf_2_110.gjf
 ------------------------
 Symbolic Z-matrix:
 Charge =  0 Multiplicity = 1

                         Standard orientation:
 ---------------------------------------------------------------------
 Center     Atomic      Atomic             Coordinates (Angstroms)
 Number     Number       Type             X           Y           Z
 ---------------------------------------------------------------------
      1          6           0       -0.007890    0.000093   -0.001087
      2          1           0        0.310626   -0.806347   -0.665079
      3          1           0       -1.109153    0.030725    0.084460
      4          1           0        0.461198   -0.177550    0.971714
      5          1           0        0.384669    0.952614   -0.384574
 ---------------------------------------------------------------------

 SCF Done:  E(RwB97X) =  -40.4990994296     A.U. after   11 cycles

 The electronic state is 1-A.
 Alpha  occ. eigenvalues --  -10.25082  -0.81646  -0.49861  -0.49365  -0.48997
 Alpha virt. eigenvalues --    0.21522   0.27270   0.27463   0.27506   0.63798
 Alpha virt. eigenvalues --    0.64082   0.64699   1.01180   1.01488   1.01646
 Alpha virt. eigenvalues --    1.06689   1.20720   1.75804   1.75972   2.33305

 Mulliken charges:
               1
     1  C   -0.665760
     2  H    0.167313
     3  H    0.166798
     4  H    0.166150
     5  H    0.165498
 Sum of Mulliken charges =   0.00000

 Dipole moment (field-independent basis, Debye):
    X=              0.0382    Y=             -0.0070    Z=              0.0041  Tot=              0.0390
 Quadrupole moment (field-independent basis, Debye-Ang):
   XX=             -8.1419   YY=             -8.2885   ZZ=             -8.3593
   XY=             -0.0047   XZ=             -0.0011   YZ=              0.0074

 Normal termination of Gaussian 16 at Fri Sep 22 16:33:14 2023.
