 Gaussian 16, Revision A.03,
 Gaussian 16:  ES64L-G16RevA.03 25-Dec-2016

 ----------------
 # 6-31g(d) wb97x
 ----------------

 ----------------------
 tmpdir/M2_conf_0_3.gjf
 ----------------------
 Symbolic Z-matrix:
 Charge = -1 Multiplicity = 1

                         Standard orientation:
 ---------------------------------------------------------------------
 Center     Atomic      Atomic             Coordinates (Angstroms)
 Number     Number       Type             X           Y           Z
 ---------------------------------------------------------------------
      1          8           0        1.097786   -0.234683    0.000187
      2          6           0       -0.005675    0.355761   -0.000799
      3          8           0       -1.106673   -0.216636    0.000208
      4          1           0        0.105154    1.475989    0.001638
 ---------------------------------------------------------------------

 SCF Done:  E(RwB97X) =  -189.125399027     A.U. after   15 cycles

 The electronic state is 1-A.
 Alpha  occ. eigenvalues --  -18.90649 -18.89820 -10.10916  -0.90170  -0.80389
 Alpha  occ. eigenvalues --   -0.42583  -0.30233  -0.25991  -0.25551  -0.09822
 Alpha  occ. eigenvalues --   -0.09799  -0.08427
 Alpha virt. eigenvalues --    0.40464   0.45700   0.63370   0.66223   0.87413
 Alpha virt. eigenvalues --    0.99481   1.02974   1.09362   1.18093   1.23336
 Alpha virt. eigenvalues --    1.23660   1.33450   1.38836   1.43645   1.44111

 Mulliken charges:
               1
     1  O   -0.612987
     2  C    0.289893
     3  O   -0.596976
     4  H   -0.079931
 Sum of Mulliken charges =  -1.00000

 Dipole moment (field-independent basis, Debye):
    X=             -0.0600    Y=              1.3681    Z=             -0.0021  Tot=              1.3694
 Quadrupole moment (field-independent basis, Debye-Ang):
   XX=            -26.5563   YY=            -19.2918   ZZ=            -17.5166
   XY=              0.1128   XZ=              0.0002   YZ=             -0.0013

 Normal termination of Gaussian 16 at Fri Sep 22 16:30:14 2023.
