 Gaussian 16, Revision A.03,
 Gaussian 16:  ES64L-G16RevA.03 25-Dec-2016

 ----------------
 # 6-31g(d) wb97x
 ----------------

 -----------------------
 tmpdir/M2_conf_0_51.gjf
 -----------------------
 Symbolic Z-matrix:
 Charge =  0 Multiplicity = 1

                         Standard orientation:
 ---------------------------------------------------------------------
 Center     Atomic      Atomic             Coordinates (Angstroms)
 Number     Number       Type             X           Y           Z
 ---------------------------------------------------------------------
      1          6           0        0.149923    0.384090    0.001836
      2          7           0       -1.077549   -0.156097   -0.022620
      3          1           0       -1.854498    0.490422    0.067833
      4          8           0        1.216452   -0.257027    0.002983
      5          1           0        0.194149    1.475397    0.002430
      6          1           0       -1.427961   -1.121468    0.053203
 ---------------------------------------------------------------------

 SCF Done:  E(RwB97X) =  -169.835123928     A.U. after   16 cycles

 The electronic state is 1-A.
 Alpha  occ. eigenvalues --  -19.17489 -14.44865 -10.37508  -1.14102  -1.03843
 Alpha  occ. eigenvalues --   -0.75702  -0.65842  -0.59912  -0.51015  -0.50289
 Alpha  occ. eigenvalues --   -0.36898  -0.34916
 Alpha virt. eigenvalues --    0.12384   0.16983   0.19289   0.27552   0.36781
 Alpha virt. eigenvalues --    0.45710   0.64335   0.64592   0.75049   0.77670
 Alpha virt. eigenvalues --    0.81869   0.84410   0.95212   0.97883   0.98889

 Mulliken charges:
               1
     1  C    0.342355
     2  N   -0.726567
     3  H    0.342264
     4  O   -0.468572
     5  H    0.138806
     6  H    0.371713
 Sum of Mulliken charges =  -0.00000

 Dipole moment (field-independent basis, Debye):
    X=             -4.2182    Y=              0.9434    Z=              0.2843  Tot=              4.3318
 Quadrupole moment (field-independent basis, Debye-Ang):
   XX=            -16.9723   YY=            -14.8040   ZZ=            -18.4688
   XY=              1.6812   XZ=             -0.5145   YZ=             -0.0689

 Normal termination of Gaussian 16 at Fri Sep 22 16:30:33 2023.
