 Gaussian 16, Revision A.03,
 Gaussian 16:  ES64L-G16RevA.03 25-Dec-2016

 ----------------
 # 6-31g(d) wb97x
 ----------------

 ------------------------
 tmpdir/M2_conf_1_116.gjf
 ------------------------
 Symbolic Z-matrix:
 Charge =  0 Multiplicity = 1

                         Standard orientation:
 ---------------------------------------------------------------------
 Center     Atomic      Atomic             Coordinates (Angstroms)
 Number     Number       Type             X           Y           Z
 ---------------------------------------------------------------------
      1          1           0       -0.370473   -0.867855   -0.556098
      2          6           0        0.008854    0.001355   -0.000178
      3          1           0       -0.410549    0.903919   -0.459681
      4          1           0        1.113672    0.021653   -0.001641
      5          1           0       -0.385771   -0.065844    1.018488
 ---------------------------------------------------------------------

 SCF Done:  E(RwB97X) =  -40.4990531564     A.U. after   11 cycles

 The electronic state is 1-A.
 Alpha  occ. eigenvalues --  -10.25127  -0.81616  -0.49908  -0.49186  -0.49073
 Alpha virt. eigenvalues --    0.21495   0.27288   0.27385   0.27463   0.63900
 Alpha virt. eigenvalues --    0.64035   0.64734   1.01183   1.01399   1.01487
 Alpha virt. eigenvalues --    1.06554   1.20723   1.75880   1.75918   2.33157

 Mulliken charges:
               1
     1  H    0.165241
     2  C   -0.665394
     3  H    0.166413
     4  H    0.167219
     5  H    0.166520
 Sum of Mulliken charges =   0.00000

 Dipole moment (field-independent basis, Debye):
    X=             -0.0401    Y=             -0.0029    Z=              0.0042  Tot=              0.0404
 Quadrupole moment (field-independent basis, Debye-Ang):
   XX=             -8.1331   YY=             -8.3224   ZZ=             -8.3429
   XY=             -0.0028   XZ=             -0.0025   YZ=             -0.0047

 Normal termination of Gaussian 16 at Fri Sep 22 16:32:11 2023.
