 Gaussian 16, Revision A.03,
 Gaussian 16:  ES64L-G16RevA.03 25-Dec-2016

 ----------------
 # 6-31g(d) wb97x
 ----------------

 -----------------------
 tmpdir/M2_conf_1_20.gjf
 -----------------------
 Symbolic Z-matrix:
 Charge =  1 Multiplicity = 1

                         Standard orientation:
 ---------------------------------------------------------------------
 Center     Atomic      Atomic             Coordinates (Angstroms)
 Number     Number       Type             X           Y           Z
 ---------------------------------------------------------------------
      1          6           0        0.806462   -0.002465   -0.000610
      2          7           0       -0.723836    0.000211   -0.001390
      3          1           0        1.128843   -1.037273   -0.217241
      4          1           0        1.213742    0.713548   -0.741331
      5          1           0        1.101756    0.310706    1.007221
      6          1           0       -1.070034    1.016459    0.067470
      7          1           0       -1.068933   -0.416377   -0.869539
      8          1           0       -1.077292   -0.573753    0.766804
 ---------------------------------------------------------------------

 SCF Done:  E(RwB97X) =  -96.1810783694     A.U. after   12 cycles

 The electronic state is 1-A.
 Alpha  occ. eigenvalues --  -14.76625 -10.53756  -1.34640  -1.05440  -0.91932
 Alpha  occ. eigenvalues --   -0.91495  -0.80600  -0.73149  -0.72773
 Alpha virt. eigenvalues --   -0.08815  -0.01609  -0.00227   0.00805   0.04828
 Alpha virt. eigenvalues --    0.06223   0.06345   0.40554   0.41557   0.42453
 Alpha virt. eigenvalues --    0.55488   0.56390   0.58610   0.69305   0.72643

 Mulliken charges:
               1
     1  C   -0.417449
     2  N   -0.754563
     3  H    0.267339
     4  H    0.273881
     5  H    0.266247
     6  H    0.457615
     7  H    0.451970
     8  H    0.454959
 Sum of Mulliken charges =   1.00000

 Dipole moment (field-independent basis, Debye):
    X=             -2.2092    Y=              0.0654    Z=             -0.0430  Tot=              2.2106
 Quadrupole moment (field-independent basis, Debye-Ang):
   XX=             -7.1669   YY=             -9.7526   ZZ=            -10.3042
   XY=              0.0509   XZ=             -0.0682   YZ=             -0.0239

 Normal termination of Gaussian 16 at Fri Sep 22 16:31:31 2023.
