 Gaussian 16, Revision A.03,
 Gaussian 16:  ES64L-G16RevA.03 25-Dec-2016

 ----------------
 # 6-31g(d) wb97x
 ----------------

 -----------------------
 tmpdir/M2_conf_2_55.gjf
 -----------------------
 Symbolic Z-matrix:
 Charge =  0 Multiplicity = 1

                         Standard orientation:
 ---------------------------------------------------------------------
 Center     Atomic      Atomic             Coordinates (Angstroms)
 Number     Number       Type             X           Y           Z
 ---------------------------------------------------------------------
      1          6           0        1.427873   -0.528935    0.049423
      2          6           0        0.528681    0.723818   -0.103298
      3          6           0       -0.926422    0.417847    0.095066
      4          1           0        1.020481   -1.337390   -0.589057
      5          1           0        2.499417   -0.153178   -0.167243
      6          1           0        1.367181   -0.840562    1.102613
      7          1           0        0.961582    1.498609    0.656756
      8          1           0        0.698744    1.120162   -1.121959
      9          8           0       -1.389096   -0.647489   -0.060980
     10          1           0       -1.615431    1.215888    0.359581
 ---------------------------------------------------------------------

 SCF Done:  E(RwB97X) =  -193.076424444     A.U. after   15 cycles

 The electronic state is 1-A.
 Alpha  occ. eigenvalues --  -19.21584 -10.35550 -10.28806 -10.27348  -1.19506
 Alpha  occ. eigenvalues --   -0.90823  -0.78021  -0.67535  -0.60985  -0.57484
 Alpha  occ. eigenvalues --   -0.55032  -0.50281  -0.47862  -0.45590  -0.44713
 Alpha  occ. eigenvalues --   -0.35388
 Alpha virt. eigenvalues --    0.08305   0.17910   0.22795   0.24112   0.24812
 Alpha virt. eigenvalues --    0.26766   0.28021   0.30204   0.38788   0.39664
 Alpha virt. eigenvalues --    0.62334   0.63153   0.67189   0.68212   0.69347

 Mulliken charges:
               1
     1  C   -0.458032
     2  C   -0.389716
     3  C    0.243798
     4  H    0.185535
     5  H    0.147858
     6  H    0.165307
     7  H    0.153863
     8  H    0.187591
     9  O   -0.357304
    10  H    0.121099
 Sum of Mulliken charges =  -0.00000

 Dipole moment (field-independent basis, Debye):
    X=              1.2911    Y=              1.9607    Z=              0.1500  Tot=              2.3524
 Quadrupole moment (field-independent basis, Debye-Ang):
   XX=            -26.8545   YY=            -25.5300   ZZ=            -23.9274
   XY=             -1.9173   XZ=             -0.2758   YZ=             -0.0936

 Normal termination of Gaussian 16 at Fri Sep 22 16:32:55 2023.
