 Gaussian 16, Revision A.03,
 Gaussian 16:  ES64L-G16RevA.03 25-Dec-2016

 ----------------
 # 6-31g(d) wb97x
 ----------------

 -----------------------
 tmpdir/M2_conf_0_99.gjf
 -----------------------
 Symbolic Z-matrix:
 Charge =  0 Multiplicity = 1

                         Standard orientation:
 ---------------------------------------------------------------------
 Center     Atomic      Atomic             Coordinates (Angstroms)
 Number     Number       Type             X           Y           Z
 ---------------------------------------------------------------------
      1          6           0       -0.752513    0.001226   -0.003189
      2          6           0        0.752284    0.004419   -0.003923
      3          1           0       -1.198569    0.753532   -0.677716
      4          1           0       -1.117596   -0.991671   -0.288934
      5          1           0       -1.123706    0.197839    1.010316
      6          1           0        1.151325   -0.679629    0.751569
      7          1           0        1.144760    1.006125    0.221932
      8          1           0        1.145159   -0.320062   -0.974494
 ---------------------------------------------------------------------

 SCF Done:  E(RwB97X) =  -79.8006794935     A.U. after   12 cycles

 The electronic state is 1-A.
 Alpha  occ. eigenvalues --  -10.25415 -10.25338  -0.88334  -0.73174  -0.54477
 Alpha  occ. eigenvalues --   -0.54290  -0.47009  -0.43929  -0.43793
 Alpha virt. eigenvalues --    0.19925   0.25481   0.25896   0.26039   0.28875
 Alpha virt. eigenvalues --    0.29171   0.34688   0.61053   0.65132   0.65620
 Alpha virt. eigenvalues --    0.73723   0.74999   0.80170   0.99560   0.99661

 Mulliken charges:
               1
     1  C   -0.465853
     2  C   -0.466283
     3  H    0.155726
     4  H    0.155181
     5  H    0.154630
     6  H    0.156341
     7  H    0.154727
     8  H    0.155533
 Sum of Mulliken charges =   0.00000

 Dipole moment (field-independent basis, Debye):
    X=              0.0038    Y=             -0.0226    Z=              0.0234  Tot=              0.0327
 Quadrupole moment (field-independent basis, Debye-Ang):
   XX=            -15.3554   YY=            -14.6450   ZZ=            -14.6977
   XY=             -0.0701   XZ=              0.0507   YZ=             -0.0033

 Normal termination of Gaussian 16 at Fri Sep 22 16:30:57 2023.
