 Gaussian 16, Revision A.03,
 Gaussian 16:  ES64L-G16RevA.03 25-Dec-2016

 ----------------
 # 6-31g(d) wb97x
 ----------------

 -----------------------
 tmpdir/M2_conf_1_46.gjf
 -----------------------
 Symbolic Z-matrix:
 Charge =  0 Multiplicity = 1

                         Standard orientation:
 ---------------------------------------------------------------------
 Center     Atomic      Atomic             Coordinates (Angstroms)
 Number     Number       Type             X           Y           Z
 ---------------------------------------------------------------------
      1          6           0        0.774710   -0.018462   -0.010357
      2          6           0       -0.774705   -0.009405    0.011815
      3          1           0       -1.158986    0.028640   -1.018180
      4          1           0        1.160063   -0.934238   -0.448586
      5          1           0        1.072575    0.957882   -0.579057
      6          1           0        1.112488    0.085958    1.037821
      7          1           0       -1.128001   -0.954893    0.468377
      8          1           0       -1.058166    0.983851    0.530877
 ---------------------------------------------------------------------

 SCF Done:  E(RwB97X) =  -79.7901373121     A.U. after   12 cycles

 The electronic state is 1-A.
 Alpha  occ. eigenvalues --  -10.26397 -10.26346  -0.87473  -0.72155  -0.55075
 Alpha  occ. eigenvalues --   -0.53586  -0.45029  -0.44690  -0.43085
 Alpha virt. eigenvalues --    0.18535   0.24843   0.25787   0.25832   0.27262
 Alpha virt. eigenvalues --    0.28613   0.32178   0.61877   0.65597   0.68245
 Alpha virt. eigenvalues --    0.72559   0.74667   0.77291   0.95223   0.98437

 Mulliken charges:
               1
     1  C   -0.457013
     2  C   -0.457628
     3  H    0.156723
     4  H    0.162704
     5  H    0.138046
     6  H    0.156081
     7  H    0.156603
     8  H    0.144484
 Sum of Mulliken charges =  -0.00000

 Dipole moment (field-independent basis, Debye):
    X=             -0.0001    Y=             -0.0551    Z=             -0.0123  Tot=              0.0564
 Quadrupole moment (field-independent basis, Debye-Ang):
   XX=            -16.0610   YY=            -14.3052   ZZ=            -14.9205
   XY=             -0.0529   XZ=              0.2000   YZ=              0.0490

 Normal termination of Gaussian 16 at Fri Sep 22 16:31:41 2023.
