 Gaussian 16, Revision A.03,
 Gaussian 16:  ES64L-G16RevA.03 25-Dec-2016

 ----------------
 # 6-31g(d) wb97x
 ----------------

 -----------------------
 tmpdir/M2_conf_2_58.gjf
 -----------------------
 Symbolic Z-matrix:
 Charge =  0 Multiplicity = 1

                         Standard orientation:
 ---------------------------------------------------------------------
 Center     Atomic      Atomic             Coordinates (Angstroms)
 Number     Number       Type             X           Y           Z
 ---------------------------------------------------------------------
      1          6           0       -0.728384   -0.338410    0.150167
      2          6           0        0.501126    0.520951    0.160337
      3          8           0        1.634116   -0.229546   -0.261912
      4          8           0       -1.786781    0.052912   -0.166079
      5          1           0       -0.669237   -1.370571    0.485888
      6          1           0        0.399480    1.390464   -0.541131
      7          1           0        0.677350    0.939749    1.168909
      8          1           0        2.177266   -0.641810    0.447234
 ---------------------------------------------------------------------

 SCF Done:  E(RwB97X) =  -228.961287608     A.U. after   16 cycles

 The electronic state is 1-A.
 Alpha  occ. eigenvalues --  -19.22751 -19.21915 -10.35650 -10.33540  -1.19886
 Alpha  occ. eigenvalues --   -1.15096  -0.85805  -0.71331  -0.64355  -0.60568
 Alpha  occ. eigenvalues --   -0.56814  -0.53141  -0.50712  -0.43714  -0.41386
 Alpha  occ. eigenvalues --   -0.35016
 Alpha virt. eigenvalues --    0.07569   0.16191   0.21514   0.22722   0.25946
 Alpha virt. eigenvalues --    0.31698   0.37664   0.40427   0.63009   0.65147
 Alpha virt. eigenvalues --    0.67242   0.74328   0.77373   0.84536   0.86083

 Mulliken charges:
               1
     1  C    0.236261
     2  C   -0.142248
     3  O   -0.637865
     4  O   -0.354542
     5  H    0.120736
     6  H    0.198758
     7  H    0.167506
     8  H    0.411395
 Sum of Mulliken charges =  -0.00000

 Dipole moment (field-independent basis, Debye):
    X=              2.1511    Y=             -0.3646    Z=              2.2745  Tot=              3.1518
 Quadrupole moment (field-independent basis, Debye-Ang):
   XX=            -27.3238   YY=            -21.6417   ZZ=            -22.3613
   XY=             -0.3051   XZ=              2.6602   YZ=             -0.9233

 Normal termination of Gaussian 16 at Fri Sep 22 16:32:55 2023.
