 Gaussian 16, Revision A.03,
 Gaussian 16:  ES64L-G16RevA.03 25-Dec-2016

 ----------------
 # 6-31g(d) wb97x
 ----------------

 -----------------------
 tmpdir/M2_conf_1_42.gjf
 -----------------------
 Symbolic Z-matrix:
 Charge =  0 Multiplicity = 1

                         Standard orientation:
 ---------------------------------------------------------------------
 Center     Atomic      Atomic             Coordinates (Angstroms)
 Number     Number       Type             X           Y           Z
 ---------------------------------------------------------------------
      1          6           0       -1.240307   -0.268692    0.011831
      2          6           0        0.001464    0.625159   -0.017384
      3          6           0        1.237665   -0.309182   -0.008363
      4          1           0       -1.275070   -0.943138   -0.863152
      5          1           0       -2.235577    0.371518   -0.003855
      6          1           0       -1.263349   -0.827220    0.954439
      7          1           0        0.160017    1.364139    0.857321
      8          1           0        0.015276    1.186629   -0.963196
      9          1           0        1.162658   -1.074115   -0.775447
     10          1           0        2.155199    0.405715   -0.119908
     11          1           0        1.287910   -0.767240    0.997292
 ---------------------------------------------------------------------

 SCF Done:  E(RwB97X) =  -119.090220695     A.U. after   12 cycles

 The electronic state is 1-A.
 Alpha  occ. eigenvalues --  -10.26958 -10.26504 -10.26123  -0.90614  -0.79237
 Alpha  occ. eigenvalues --   -0.69404  -0.57001  -0.53208  -0.49482  -0.48461
 Alpha  occ. eigenvalues --   -0.44135  -0.42561  -0.40999
 Alpha virt. eigenvalues --    0.17784   0.22629   0.23140   0.24531   0.26069
 Alpha virt. eigenvalues --    0.27867   0.28682   0.30092   0.32083   0.35157
 Alpha virt. eigenvalues --    0.61977   0.64439   0.65798   0.66624   0.68755

 Mulliken charges:
               1
     1  C   -0.454775
     2  C   -0.272309
     3  C   -0.453321
     4  H    0.156918
     5  H    0.132913
     6  H    0.155977
     7  H    0.139742
     8  H    0.149253
     9  H    0.157675
    10  H    0.136907
    11  H    0.151021
 Sum of Mulliken charges =  -0.00000

 Dipole moment (field-independent basis, Debye):
    X=             -0.0036    Y=             -0.0112    Z=             -0.0141  Tot=              0.0183
 Quadrupole moment (field-independent basis, Debye-Ang):
   XX=            -22.7582   YY=            -21.7337   ZZ=            -21.1348
   XY=              0.4020   XZ=              0.1794   YZ=              0.2256

 Normal termination of Gaussian 16 at Fri Sep 22 16:31:41 2023.
