 Gaussian 16, Revision A.03,
 Gaussian 16:  ES64L-G16RevA.03 25-Dec-2016

 ----------------
 # 6-31g(d) wb97x
 ----------------

 -----------------------
 tmpdir/M2_conf_0_31.gjf
 -----------------------
 Symbolic Z-matrix:
 Charge =  1 Multiplicity = 1

                         Standard orientation:
 ---------------------------------------------------------------------
 Center     Atomic      Atomic             Coordinates (Angstroms)
 Number     Number       Type             X           Y           Z
 ---------------------------------------------------------------------
      1          7           0       -0.002037   -0.000852   -0.002315
      2          1           0       -0.600441   -0.396138   -0.737008
      3          1           0       -0.093058    1.049378    0.014295
      4          1           0        1.032257   -0.258157   -0.148484
      5          1           0       -0.324498   -0.389118    0.887400
 ---------------------------------------------------------------------

 SCF Done:  E(RwB97X) =  -56.8735536691     A.U. after   10 cycles

 The electronic state is 1-A.
 Alpha  occ. eigenvalues --  -14.79106  -1.36537  -0.93304  -0.92894  -0.91936
 Alpha virt. eigenvalues --   -0.10764  -0.03473  -0.01998  -0.01585   0.44559
 Alpha virt. eigenvalues --    0.46068   0.46956   0.66759   0.68202   0.69715
 Alpha virt. eigenvalues --    0.71563   1.09601   1.36212   1.36680   2.04364

 Mulliken charges:
               1
     1  N   -0.886743
     2  H    0.470394
     3  H    0.472833
     4  H    0.475565
     5  H    0.467952
 Sum of Mulliken charges =   1.00000

 Dipole moment (field-independent basis, Debye):
    X=              0.0466    Y=              0.0175    Z=              0.0225  Tot=              0.0547
 Quadrupole moment (field-independent basis, Debye-Ang):
   XX=             -4.1054   YY=             -4.2658   ZZ=             -4.5680
   XY=              0.0090   XZ=              0.0060   YZ=              0.0005

 Normal termination of Gaussian 16 at Fri Sep 22 16:30:15 2023.
