 Gaussian 16, Revision A.03,
 Gaussian 16:  ES64L-G16RevA.03 25-Dec-2016

 ----------------
 # 6-31g(d) wb97x
 ----------------

 -----------------------
 tmpdir/M2_conf_2_15.gjf
 -----------------------
 Symbolic Z-matrix:
 Charge =  0 Multiplicity = 1

                         Standard orientation:
 ---------------------------------------------------------------------
 Center     Atomic      Atomic             Coordinates (Angstroms)
 Number     Number       Type             X           Y           Z
 ---------------------------------------------------------------------
      1          6           0        0.251229    0.401822   -0.011791
      2          6           0       -1.142818   -0.148329   -0.003626
      3          1           0       -1.767927    0.382483   -0.729534
      4          1           0        0.317748    1.525522   -0.002951
      5          8           0        1.199292   -0.286858    0.003912
      6          1           0       -1.200965   -1.238770   -0.174653
      7          1           0       -1.593658    0.104673    0.968340
 ---------------------------------------------------------------------

 SCF Done:  E(RwB97X) =  -153.782391852     A.U. after   14 cycles

 The electronic state is 1-A.
 Alpha  occ. eigenvalues --  -19.21598 -10.36242 -10.27686  -1.19358  -0.87985
 Alpha  occ. eigenvalues --   -0.69619  -0.59473  -0.55646  -0.54848  -0.50392
 Alpha  occ. eigenvalues --   -0.47231  -0.35469
 Alpha virt. eigenvalues --    0.08817   0.20622   0.22287   0.25357   0.25695
 Alpha virt. eigenvalues --    0.35479   0.38621   0.62886   0.65449   0.69485
 Alpha virt. eigenvalues --    0.70422   0.79164   0.85404   0.87228   0.95002

 Mulliken charges:
               1
     1  C    0.249803
     2  C   -0.564358
     3  H    0.177098
     4  H    0.109451
     5  O   -0.353930
     6  H    0.196155
     7  H    0.185780
 Sum of Mulliken charges =  -0.00000

 Dipole moment (field-independent basis, Debye):
    X=             -2.2828    Y=              1.1045    Z=              0.0365  Tot=              2.5362
 Quadrupole moment (field-independent basis, Debye-Ang):
   XX=            -20.4699   YY=            -17.6522   ZZ=            -17.6566
   XY=              0.9121   XZ=             -0.0876   YZ=              0.0580

 Normal termination of Gaussian 16 at Fri Sep 22 16:32:27 2023.
