 Gaussian 16, Revision A.03,
 Gaussian 16:  ES64L-G16RevA.03 25-Dec-2016

 ----------------
 # 6-31g(d) wb97x
 ----------------

 ------------------------
 tmpdir/M2_conf_2_104.gjf
 ------------------------
 Symbolic Z-matrix:
 Charge =  0 Multiplicity = 1

                         Standard orientation:
 ---------------------------------------------------------------------
 Center     Atomic      Atomic             Coordinates (Angstroms)
 Number     Number       Type             X           Y           Z
 ---------------------------------------------------------------------
      1          6           0        0.764750    0.007158   -0.002476
      2          6           0       -0.761019   -0.001593    0.001905
      3          1           0       -1.114161    0.966747    0.377710
      4          1           0        1.099774   -1.017535   -0.472562
      5          1           0        1.190544    0.885262   -0.527789
      6          1           0        1.118338    0.029530    1.045663
      7          1           0       -1.198956   -0.812757    0.611216
      8          1           0       -1.117925   -0.084641   -1.030813
 ---------------------------------------------------------------------

 SCF Done:  E(RwB97X) =  -79.7952982565     A.U. after   12 cycles

 The electronic state is 1-A.
 Alpha  occ. eigenvalues --  -10.26582 -10.25582  -0.87813  -0.72587  -0.54464
 Alpha  occ. eigenvalues --   -0.53880  -0.46489  -0.44104  -0.43165
 Alpha virt. eigenvalues --    0.19205   0.24911   0.25196   0.26078   0.27743
 Alpha virt. eigenvalues --    0.29055   0.33576   0.61540   0.65167   0.66692
 Alpha virt. eigenvalues --    0.72964   0.76100   0.78762   0.96680   0.99509

 Mulliken charges:
               1
     1  C   -0.455641
     2  C   -0.463190
     3  H    0.153567
     4  H    0.136504
     5  H    0.159661
     6  H    0.155261
     7  H    0.157797
     8  H    0.156042
 Sum of Mulliken charges =   0.00000

 Dipole moment (field-independent basis, Debye):
    X=             -0.0513    Y=              0.0616    Z=              0.0312  Tot=              0.0860
 Quadrupole moment (field-independent basis, Debye-Ang):
   XX=            -15.6566   YY=            -14.5680   ZZ=            -14.8021
   XY=              0.2390   XZ=             -0.0096   YZ=             -0.0891

 Normal termination of Gaussian 16 at Fri Sep 22 16:33:25 2023.
