 Gaussian 16, Revision A.03,
 Gaussian 16:  ES64L-G16RevA.03 25-Dec-2016

 ----------------
 # 6-31g(d) wb97x
 ----------------

 -----------------------
 tmpdir/M2_conf_2_23.gjf
 -----------------------
 Symbolic Z-matrix:
 Charge =  1 Multiplicity = 1

                         Standard orientation:
 ---------------------------------------------------------------------
 Center     Atomic      Atomic             Coordinates (Angstroms)
 Number     Number       Type             X           Y           Z
 ---------------------------------------------------------------------
      1          6           0        1.276300   -0.250645   -0.003624
      2          6           0        0.031957    0.634010    0.007037
      3          7           0       -1.173748   -0.267820   -0.003586
      4          1           0        2.184506    0.262288   -0.302056
      5          1           0        1.447516   -0.713741    0.973972
      6          1           0        1.130928   -1.096344   -0.693292
      7          1           0        0.018721    1.327147   -0.857026
      8          1           0       -0.046858    1.210365    0.935796
      9          1           0       -2.056273    0.332721   -0.137154
     10          1           0       -1.098698   -0.934773   -0.775512
     11          1           0       -1.213148   -0.813111    0.859894
 ---------------------------------------------------------------------

 SCF Done:  E(RwB97X) =  -135.491213413     A.U. after   12 cycles

 The electronic state is 1-A.
 Alpha  occ. eigenvalues --  -14.75591 -10.53018 -10.44954  -1.34411  -1.09007
 Alpha  occ. eigenvalues --   -0.96742  -0.91528  -0.89411  -0.80558  -0.74811
 Alpha  occ. eigenvalues --   -0.68736  -0.67254  -0.64832
 Alpha virt. eigenvalues --   -0.07761  -0.01518  -0.00645   0.01781   0.04863
 Alpha virt. eigenvalues --    0.06343   0.08218   0.12149   0.12375   0.14069
 Alpha virt. eigenvalues --    0.41305   0.42610   0.43744   0.46252   0.50505

 Mulliken charges:
               1
     1  C   -0.528238
     2  C   -0.249393
     3  N   -0.743724
     4  H    0.257648
     5  H    0.215663
     6  H    0.186634
     7  H    0.260744
     8  H    0.256477
     9  H    0.455540
    10  H    0.440544
    11  H    0.448105
 Sum of Mulliken charges =   1.00000

 Dipole moment (field-independent basis, Debye):
    X=             -3.8996    Y=             -0.6811    Z=             -0.0386  Tot=              3.9588
 Quadrupole moment (field-independent basis, Debye-Ang):
   XX=             -9.1237   YY=            -15.6986   ZZ=            -16.5289
   XY=              1.2406   XZ=             -0.0098   YZ=             -0.2587

 Normal termination of Gaussian 16 at Fri Sep 22 16:32:39 2023.
