 Gaussian 16, Revision A.03,
 Gaussian 16:  ES64L-G16RevA.03 25-Dec-2016

 ----------------
 # 6-31g(d) wb97x
 ----------------

 -----------------------
 tmpdir/M2_conf_0_70.gjf
 -----------------------
 Symbolic Z-matrix:
 Charge =  0 Multiplicity = 1

                         Standard orientation:
 ---------------------------------------------------------------------
 Center     Atomic      Atomic             Coordinates (Angstroms)
 Number     Number       Type             X           Y           Z
 ---------------------------------------------------------------------
      1          8           0       -1.251437   -0.249437   -0.118484
      2          6           0       -0.069389    0.545088    0.034038
      3          6           0        1.237230   -0.250612   -0.025801
      4          1           0       -1.479709   -0.839855    0.626239
      5          1           0       -0.119287    1.328103   -0.743349
      6          1           0       -0.115800    1.032431    1.026236
      7          1           0        1.392145   -0.802910   -0.970954
      8          1           0        1.267244   -0.947030    0.820098
      9          1           0        2.059854    0.457902    0.140185
 ---------------------------------------------------------------------

 SCF Done:  E(RwB97X) =  -154.985480628     A.U. after   13 cycles

 The electronic state is 1-A.
 Alpha  occ. eigenvalues --  -19.19973 -10.31522 -10.26042  -1.12296  -0.87195
 Alpha  occ. eigenvalues --   -0.74001  -0.60837  -0.56043  -0.52356  -0.48769
 Alpha  occ. eigenvalues --   -0.46731  -0.41018  -0.36220
 Alpha virt. eigenvalues --    0.17408   0.21542   0.24526   0.25589   0.26730
 Alpha virt. eigenvalues --    0.28954   0.32189   0.34516   0.63636   0.65497
 Alpha virt. eigenvalues --    0.67753   0.68558   0.76673   0.78689   0.91994

 Mulliken charges:
               1
     1  O   -0.645120
     2  C   -0.036739
     3  C   -0.483676
     4  H    0.399030
     5  H    0.163928
     6  H    0.129594
     7  H    0.171416
     8  H    0.149000
     9  H    0.152567
 Sum of Mulliken charges =  -0.00000

 Dipole moment (field-independent basis, Debye):
    X=              0.9113    Y=             -0.1607    Z=              1.3820  Tot=              1.6632
 Quadrupole moment (field-independent basis, Debye-Ang):
   XX=            -21.1689   YY=            -18.5293   ZZ=            -18.8337
   XY=              1.3357   XZ=             -2.3307   YZ=             -1.4284

 Normal termination of Gaussian 16 at Fri Sep 22 16:30:45 2023.
