 Gaussian 16, Revision A.03,
 Gaussian 16:  ES64L-G16RevA.03 25-Dec-2016

 ----------------
 # 6-31g(d) wb97x
 ----------------

 -----------------------
 tmpdir/M2_conf_0_12.gjf
 -----------------------
 Symbolic Z-matrix:
 Charge =  0 Multiplicity = 1

                         Standard orientation:
 ---------------------------------------------------------------------
 Center     Atomic      Atomic             Coordinates (Angstroms)
 Number     Number       Type             X           Y           Z
 ---------------------------------------------------------------------
      1          6           0        0.010518    0.010982   -0.005035
      2          1           0       -0.370541   -0.684515   -0.764431
      3          1           0       -0.534463    0.944900   -0.093320
      4          1           0        1.108615    0.118993   -0.069781
      5          1           0       -0.266722   -0.445268    0.957743
 ---------------------------------------------------------------------

 SCF Done:  E(RwB97X) =  -40.4983571654     A.U. after   11 cycles

 The electronic state is 1-A.
 Alpha  occ. eigenvalues --  -10.25064  -0.81684  -0.50273  -0.49403  -0.48545
 Alpha virt. eigenvalues --    0.21508   0.27057   0.27352   0.27821   0.63820
 Alpha virt. eigenvalues --    0.63874   0.64894   1.00581   1.01218   1.02376
 Alpha virt. eigenvalues --    1.07062   1.20942   1.75851   1.75938   2.32625

 Mulliken charges:
               1
     1  C   -0.666826
     2  H    0.164917
     3  H    0.170694
     4  H    0.168124
     5  H    0.163091
 Sum of Mulliken charges =  -0.00000

 Dipole moment (field-independent basis, Debye):
    X=             -0.0495    Y=             -0.0301    Z=              0.0164  Tot=              0.0602
 Quadrupole moment (field-independent basis, Debye-Ang):
   XX=             -8.0712   YY=             -8.2882   ZZ=             -8.4313
   XY=             -0.0208   XZ=              0.0037   YZ=              0.0013

 Normal termination of Gaussian 16 at Fri Sep 22 16:30:12 2023.
