 Gaussian 16, Revision A.03,
 Gaussian 16:  ES64L-G16RevA.03 25-Dec-2016

 ----------------
 # 6-31g(d) wb97x
 ----------------

 -----------------------
 tmpdir/M2_conf_1_51.gjf
 -----------------------
 Symbolic Z-matrix:
 Charge =  0 Multiplicity = 1

                         Standard orientation:
 ---------------------------------------------------------------------
 Center     Atomic      Atomic             Coordinates (Angstroms)
 Number     Number       Type             X           Y           Z
 ---------------------------------------------------------------------
      1          6           0        0.152005    0.385127    0.002202
      2          7           0       -1.076791   -0.152029   -0.022456
      3          1           0       -1.879504    0.462552    0.065651
      4          8           0        1.216958   -0.258605    0.002754
      5          1           0        0.198909    1.476322    0.003549
      6          1           0       -1.429561   -1.116590    0.052746
 ---------------------------------------------------------------------

 SCF Done:  E(RwB97X) =  -169.834603419     A.U. after   16 cycles

 The electronic state is 1-A.
 Alpha  occ. eigenvalues --  -19.17522 -14.44862 -10.37564  -1.14110  -1.03813
 Alpha  occ. eigenvalues --   -0.75893  -0.65832  -0.59689  -0.51010  -0.50317
 Alpha  occ. eigenvalues --   -0.36905  -0.34942
 Alpha virt. eigenvalues --    0.12371   0.16973   0.19377   0.27395   0.36794
 Alpha virt. eigenvalues --    0.45786   0.64307   0.64437   0.74616   0.77703
 Alpha virt. eigenvalues --    0.81975   0.85810   0.95246   0.98037   0.98819

 Mulliken charges:
               1
     1  C    0.345819
     2  N   -0.729589
     3  H    0.342977
     4  O   -0.468237
     5  H    0.139222
     6  H    0.369807
 Sum of Mulliken charges =   0.00000

 Dipole moment (field-independent basis, Debye):
    X=             -4.2408    Y=              0.9330    Z=              0.2810  Tot=              4.3513
 Quadrupole moment (field-independent basis, Debye-Ang):
   XX=            -16.8125   YY=            -14.8915   ZZ=            -18.4674
   XY=              1.7298   XZ=             -0.5066   YZ=             -0.0724

 Normal termination of Gaussian 16 at Fri Sep 22 16:31:41 2023.
