 Gaussian 16, Revision A.03,
 Gaussian 16:  ES64L-G16RevA.03 25-Dec-2016

 ----------------
 # 6-31g(d) wb97x
 ----------------

 -----------------------
 tmpdir/M2_conf_0_90.gjf
 -----------------------
 Symbolic Z-matrix:
 Charge =  0 Multiplicity = 1

                         Standard orientation:
 ---------------------------------------------------------------------
 Center     Atomic      Atomic             Coordinates (Angstroms)
 Number     Number       Type             X           Y           Z
 ---------------------------------------------------------------------
      1          6           0        0.003083   -0.004238   -0.008307
      2          1           0       -0.065028   -0.525024    0.948404
      3          1           0       -0.839186   -0.312250   -0.631697
      4          1           0       -0.091599    1.065780    0.194096
      5          1           0        0.977316   -0.203081   -0.460963
 ---------------------------------------------------------------------

 SCF Done:  E(RwB97X) =  -40.4991584366     A.U. after   11 cycles

 The electronic state is 1-A.
 Alpha  occ. eigenvalues --  -10.24843  -0.81807  -0.50188  -0.49187  -0.49139
 Alpha virt. eigenvalues --    0.21671   0.27375   0.27512   0.27862   0.63772
 Alpha virt. eigenvalues --    0.63858   0.64480   1.01416   1.01655   1.02628
 Alpha virt. eigenvalues --    1.07330   1.20888   1.75648   1.75947   2.34279

 Mulliken charges:
               1
     1  C   -0.668239
     2  H    0.165961
     3  H    0.168052
     4  H    0.165443
     5  H    0.168783
 Sum of Mulliken charges =  -0.00000

 Dipole moment (field-independent basis, Debye):
    X=             -0.0115    Y=              0.0148    Z=              0.0322  Tot=              0.0373
 Quadrupole moment (field-independent basis, Debye-Ang):
   XX=             -8.1111   YY=             -8.3234   ZZ=             -8.3120
   XY=              0.0001   XZ=             -0.0015   YZ=              0.0043

 Normal termination of Gaussian 16 at Fri Sep 22 16:30:49 2023.
