 Gaussian 16, Revision A.03,
 Gaussian 16:  ES64L-G16RevA.03 25-Dec-2016

 ----------------
 # 6-31g(d) wb97x
 ----------------

 -----------------------
 tmpdir/M2_conf_2_26.gjf
 -----------------------
 Symbolic Z-matrix:
 Charge =  1 Multiplicity = 1

                         Standard orientation:
 ---------------------------------------------------------------------
 Center     Atomic      Atomic             Coordinates (Angstroms)
 Number     Number       Type             X           Y           Z
 ---------------------------------------------------------------------
      1          7           0       -1.205834   -0.254313    0.004319
      2          6           0        0.029771    0.605704   -0.023663
      3          6           0        1.295179   -0.254017    0.014361
      4          1           0       -1.113059   -1.021136   -0.744497
      5          1           0       -1.301580   -0.690497    0.924585
      6          1           0       -2.038149    0.320340   -0.142383
      7          1           0       -0.029756    1.286876    0.844754
      8          1           0       -0.013470    1.153922   -0.971597
      9          1           0        1.474007   -0.996773   -0.853198
     10          1           0        2.189451    0.423170    0.002409
     11          1           0        1.323692   -0.805831    0.965506
 ---------------------------------------------------------------------

 SCF Done:  E(RwB97X) =  -135.490085051     A.U. after   12 cycles

 The electronic state is 1-A.
 Alpha  occ. eigenvalues --  -14.75403 -10.53061 -10.45756  -1.34226  -1.08770
 Alpha  occ. eigenvalues --   -0.95764  -0.91005  -0.90152  -0.79773  -0.74896
 Alpha  occ. eigenvalues --   -0.68416  -0.66081  -0.64615
 Alpha virt. eigenvalues --   -0.07785  -0.01226  -0.00126   0.02038   0.05483
 Alpha virt. eigenvalues --    0.05657   0.07993   0.09696   0.10680   0.13915
 Alpha virt. eigenvalues --    0.40723   0.43238   0.44171   0.45887   0.52326

 Mulliken charges:
               1
     1  N   -0.741285
     2  C   -0.248606
     3  C   -0.526618
     4  H    0.448123
     5  H    0.443473
     6  H    0.451305
     7  H    0.257834
     8  H    0.254415
     9  H    0.208120
    10  H    0.248906
    11  H    0.204331
 Sum of Mulliken charges =   1.00000

 Dipole moment (field-independent basis, Debye):
    X=             -3.9040    Y=             -0.7081    Z=              0.0071  Tot=              3.9677
 Quadrupole moment (field-independent basis, Debye-Ang):
   XX=             -8.9624   YY=            -15.9459   ZZ=            -16.2763
   XY=              1.3019   XZ=             -0.2984   YZ=              0.3358

 Normal termination of Gaussian 16 at Fri Sep 22 16:32:47 2023.
