 Gaussian 16, Revision A.03,
 Gaussian 16:  ES64L-G16RevA.03 25-Dec-2016

 ----------------
 # 6-31g(d) wb97x
 ----------------

 -----------------------
 tmpdir/M2_conf_2_86.gjf
 -----------------------
 Symbolic Z-matrix:
 Charge =  0 Multiplicity = 1

                         Standard orientation:
 ---------------------------------------------------------------------
 Center     Atomic      Atomic             Coordinates (Angstroms)
 Number     Number       Type             X           Y           Z
 ---------------------------------------------------------------------
      1          6           0        0.231268    0.460200   -0.003400
      2          6           0       -1.156159   -0.149532    0.000220
      3          1           0        0.274486    1.513544    0.008380
      4          8           0        1.217383   -0.298802    0.000699
      5          1           0       -1.265402   -0.758747    0.901459
      6          1           0       -1.240030   -0.819133   -0.859697
      7          1           0       -1.958772    0.590748   -0.036653
 ---------------------------------------------------------------------

 SCF Done:  E(RwB97X) =  -153.779151976     A.U. after   14 cycles

 The electronic state is 1-A.
 Alpha  occ. eigenvalues --  -19.21672 -10.36608 -10.27653  -1.15348  -0.87832
 Alpha  occ. eigenvalues --   -0.71709  -0.58723  -0.55106  -0.53476  -0.50257
 Alpha  occ. eigenvalues --   -0.45450  -0.35773
 Alpha virt. eigenvalues --    0.06179   0.21017   0.22480   0.27139   0.27289
 Alpha virt. eigenvalues --    0.33562   0.37235   0.63174   0.64128   0.68276
 Alpha virt. eigenvalues --    0.70677   0.75380   0.82446   0.88453   0.96332

 Mulliken charges:
               1
     1  C    0.222419
     2  C   -0.553860
     3  H    0.153585
     4  O   -0.395321
     5  H    0.204496
     6  H    0.204247
     7  H    0.164434
 Sum of Mulliken charges =  -0.00000

 Dipole moment (field-independent basis, Debye):
    X=             -2.3988    Y=              1.2518    Z=              0.0084  Tot=              2.7058
 Quadrupole moment (field-independent basis, Debye-Ang):
   XX=            -20.8871   YY=            -17.2589   ZZ=            -17.5332
   XY=              1.1461   XZ=             -0.0180   YZ=             -0.0015

 Normal termination of Gaussian 16 at Fri Sep 22 16:33:08 2023.
