 Gaussian 16, Revision A.03,
 Gaussian 16:  ES64L-G16RevA.03 25-Dec-2016

 ----------------
 # 6-31g(d) wb97x
 ----------------

 -----------------------
 tmpdir/M2_conf_2_16.gjf
 -----------------------
 Symbolic Z-matrix:
 Charge =  0 Multiplicity = 1

                         Standard orientation:
 ---------------------------------------------------------------------
 Center     Atomic      Atomic             Coordinates (Angstroms)
 Number     Number       Type             X           Y           Z
 ---------------------------------------------------------------------
      1          6           0        0.251725    0.401838   -0.006470
      2          6           0       -1.142473   -0.147991   -0.005118
      3          1           0       -1.635149    0.072898    0.954281
      4          1           0        0.318528    1.525375    0.013666
      5          8           0        1.199592   -0.287220    0.003072
      6          1           0       -1.200756   -1.236618   -0.187265
      7          1           0       -1.734869    0.413025   -0.735726
 ---------------------------------------------------------------------

 SCF Done:  E(RwB97X) =  -153.782223900     A.U. after   14 cycles

 The electronic state is 1-A.
 Alpha  occ. eigenvalues --  -19.21608 -10.36244 -10.27676  -1.19362  -0.87974
 Alpha  occ. eigenvalues --   -0.69643  -0.59485  -0.55561  -0.54873  -0.50443
 Alpha  occ. eigenvalues --   -0.47194  -0.35480
 Alpha virt. eigenvalues --    0.08743   0.20620   0.22268   0.25331   0.25889
 Alpha virt. eigenvalues --    0.35452   0.38627   0.62808   0.65464   0.69483
 Alpha virt. eigenvalues --    0.70561   0.79114   0.85392   0.87140   0.95068

 Mulliken charges:
               1
     1  C    0.250350
     2  C   -0.565222
     3  H    0.187472
     4  H    0.109562
     5  O   -0.353631
     6  H    0.196226
     7  H    0.175243
 Sum of Mulliken charges =  -0.00000

 Dipole moment (field-independent basis, Debye):
    X=             -2.2829    Y=              1.1013    Z=              0.0499  Tot=              2.5351
 Quadrupole moment (field-independent basis, Debye-Ang):
   XX=            -20.4583   YY=            -17.6337   ZZ=            -17.6776
   XY=              0.9256   XZ=             -0.1411   YZ=              0.0058

 Normal termination of Gaussian 16 at Fri Sep 22 16:32:34 2023.
