 Gaussian 16, Revision A.03,
 Gaussian 16:  ES64L-G16RevA.03 25-Dec-2016

 ----------------
 # 6-31g(d) wb97x
 ----------------

 -----------------------
 tmpdir/M2_conf_2_99.gjf
 -----------------------
 Symbolic Z-matrix:
 Charge =  0 Multiplicity = 1

                         Standard orientation:
 ---------------------------------------------------------------------
 Center     Atomic      Atomic             Coordinates (Angstroms)
 Number     Number       Type             X           Y           Z
 ---------------------------------------------------------------------
      1          6           0       -0.766012    0.001284   -0.003231
      2          6           0        0.765785    0.004361   -0.003881
      3          1           0       -1.211941    0.753670   -0.677754
      4          1           0       -1.131190   -0.991559   -0.289044
      5          1           0       -1.137248    0.197894    1.010258
      6          1           0        1.164700   -0.679766    0.751607
      7          1           0        1.158359    1.006013    0.222044
      8          1           0        1.158685   -0.320121   -0.974441
 ---------------------------------------------------------------------

 SCF Done:  E(RwB97X) =  -79.8009702360     A.U. after   12 cycles

 The electronic state is 1-A.
 Alpha  occ. eigenvalues --  -10.25619 -10.25544  -0.87797  -0.73389  -0.54180
 Alpha  occ. eigenvalues --   -0.53997  -0.46600  -0.44169  -0.44039
 Alpha virt. eigenvalues --    0.19964   0.25376   0.25926   0.26163   0.28847
 Alpha virt. eigenvalues --    0.29132   0.33812   0.61889   0.64703   0.65168
 Alpha virt. eigenvalues --    0.73958   0.75236   0.78625   1.00039   1.00140

 Mulliken charges:
               1
     1  C   -0.468028
     2  C   -0.468461
     3  H    0.156405
     4  H    0.155945
     5  H    0.155377
     6  H    0.156968
     7  H    0.155497
     8  H    0.156297
 Sum of Mulliken charges =  -0.00000

 Dipole moment (field-independent basis, Debye):
    X=              0.0037    Y=             -0.0228    Z=              0.0235  Tot=              0.0330
 Quadrupole moment (field-independent basis, Debye-Ang):
   XX=            -15.2769   YY=            -14.6638   ZZ=            -14.7170
   XY=             -0.0687   XZ=              0.0492   YZ=             -0.0029

 Normal termination of Gaussian 16 at Fri Sep 22 16:33:08 2023.
