 Gaussian 16, Revision A.03,
 Gaussian 16:  ES64L-G16RevA.03 25-Dec-2016

 ----------------
 # 6-31g(d) wb97x
 ----------------

 -----------------------
 tmpdir/M2_conf_0_87.gjf
 -----------------------
 Symbolic Z-matrix:
 Charge =  0 Multiplicity = 1

                         Standard orientation:
 ---------------------------------------------------------------------
 Center     Atomic      Atomic             Coordinates (Angstroms)
 Number     Number       Type             X           Y           Z
 ---------------------------------------------------------------------
      1          7           0       -1.060307   -0.163073   -0.022712
      2          6           0        0.152642    0.408952    0.002352
      3          8           0        1.197396   -0.267081    0.002776
      4          1           0       -1.385472   -1.137230    0.053198
      5          1           0       -1.855784    0.460634    0.066849
      6          1           0        0.168391    1.501040    0.002624
 ---------------------------------------------------------------------

 SCF Done:  E(RwB97X) =  -169.834585081     A.U. after   16 cycles

 The electronic state is 1-A.
 Alpha  occ. eigenvalues --  -19.17407 -14.44580 -10.37520  -1.14217  -1.03446
 Alpha  occ. eigenvalues --   -0.75718  -0.65691  -0.59877  -0.50980  -0.50301
 Alpha  occ. eigenvalues --   -0.36657  -0.34969
 Alpha virt. eigenvalues --    0.12252   0.17155   0.19410   0.27321   0.36490
 Alpha virt. eigenvalues --    0.45855   0.64283   0.64705   0.74894   0.77570
 Alpha virt. eigenvalues --    0.81947   0.84562   0.95015   0.97796   0.98903

 Mulliken charges:
               1
     1  N   -0.723387
     2  C    0.341469
     3  O   -0.471431
     4  H    0.372141
     5  H    0.337124
     6  H    0.144084
 Sum of Mulliken charges =  -0.00000

 Dipole moment (field-independent basis, Debye):
    X=             -4.1435    Y=              1.0055    Z=              0.2834  Tot=              4.2732
 Quadrupole moment (field-independent basis, Debye-Ang):
   XX=            -17.0725   YY=            -14.6542   ZZ=            -18.4643
   XY=              1.7189   XZ=             -0.5037   YZ=             -0.0775

 Normal termination of Gaussian 16 at Fri Sep 22 16:30:52 2023.
