 Gaussian 16, Revision A.03,
 Gaussian 16:  ES64L-G16RevA.03 25-Dec-2016

 ----------------
 # 6-31g(d) wb97x
 ----------------

 -----------------------
 tmpdir/M2_conf_0_34.gjf
 -----------------------
 Symbolic Z-matrix:
 Charge =  1 Multiplicity = 1

                         Standard orientation:
 ---------------------------------------------------------------------
 Center     Atomic      Atomic             Coordinates (Angstroms)
 Number     Number       Type             X           Y           Z
 ---------------------------------------------------------------------
      1          6           0        0.793866   -0.002749   -0.000197
      2          7           0       -0.711831    0.000287   -0.001552
      3          1           0       -1.072415   -0.565037    0.769733
      4          1           0        1.116042   -1.039582   -0.207215
      5          1           0        1.201618    0.706332   -0.747294
      6          1           0        1.088872    0.319565    1.004828
      7          1           0       -1.057775    1.017199    0.058041
      8          1           0       -1.056719   -0.423997   -0.866048
 ---------------------------------------------------------------------

 SCF Done:  E(RwB97X) =  -96.1812455232     A.U. after   12 cycles

 The electronic state is 1-A.
 Alpha  occ. eigenvalues --  -14.76722 -10.53541  -1.35182  -1.05582  -0.92222
 Alpha  occ. eigenvalues --   -0.91843  -0.81016  -0.73024  -0.72656
 Alpha virt. eigenvalues --   -0.08829  -0.01770  -0.00422   0.01728   0.05126
 Alpha virt. eigenvalues --    0.06199   0.06366   0.40131   0.41834   0.42782
 Alpha virt. eigenvalues --    0.55275   0.56698   0.58314   0.69288   0.72528

 Mulliken charges:
               1
     1  C   -0.422344
     2  N   -0.747465
     3  H    0.455340
     4  H    0.266240
     5  H    0.273082
     6  H    0.265185
     7  H    0.457794
     8  H    0.452167
 Sum of Mulliken charges =   1.00000

 Dipole moment (field-independent basis, Debye):
    X=             -2.2482    Y=              0.0672    Z=             -0.0467  Tot=              2.2497
 Quadrupole moment (field-independent basis, Debye-Ang):
   XX=             -7.3307   YY=             -9.7411   ZZ=            -10.2930
   XY=              0.0587   XZ=             -0.0802   YZ=             -0.0237

 Normal termination of Gaussian 16 at Fri Sep 22 16:30:21 2023.
