 Gaussian 16, Revision A.03,
 Gaussian 16:  ES64L-G16RevA.03 25-Dec-2016

 ----------------
 # 6-31g(d) wb97x
 ----------------

 -----------------------
 tmpdir/M2_conf_1_64.gjf
 -----------------------
 Symbolic Z-matrix:
 Charge =  0 Multiplicity = 1

                         Standard orientation:
 ---------------------------------------------------------------------
 Center     Atomic      Atomic             Coordinates (Angstroms)
 Number     Number       Type             X           Y           Z
 ---------------------------------------------------------------------
      1          6           0       -1.147301   -0.127440    0.007858
      2          6           0        0.256079    0.402268   -0.007411
      3          1           0        0.346002    1.485203    0.019811
      4          1           0       -1.195878   -1.171708   -0.399055
      5          1           0       -1.906380    0.482216   -0.638297
      6          1           0       -1.539654   -0.165996    1.041418
      7          8           0        1.205406   -0.284836   -0.003320
 ---------------------------------------------------------------------

 SCF Done:  E(RwB97X) =  -153.778252395     A.U. after   15 cycles

 The electronic state is 1-A.
 Alpha  occ. eigenvalues --  -19.21698 -10.36008 -10.28558  -1.19458  -0.87302
 Alpha  occ. eigenvalues --   -0.70252  -0.59341  -0.55602  -0.54920  -0.48845
 Alpha  occ. eigenvalues --   -0.47392  -0.35664
 Alpha virt. eigenvalues --    0.08258   0.19922   0.22339   0.25067   0.26006
 Alpha virt. eigenvalues --    0.36052   0.38484   0.62961   0.64921   0.70121
 Alpha virt. eigenvalues --    0.72252   0.78575   0.85521   0.86206   0.94131

 Mulliken charges:
               1
     1  C   -0.567920
     2  C    0.251925
     3  H    0.118214
     4  H    0.192220
     5  H    0.161913
     6  H    0.195780
     7  O   -0.352132
 Sum of Mulliken charges =  -0.00000

 Dipole moment (field-independent basis, Debye):
    X=             -2.2330    Y=              1.0543    Z=              0.0881  Tot=              2.4709
 Quadrupole moment (field-independent basis, Debye-Ang):
   XX=            -20.4636   YY=            -17.8558   ZZ=            -17.5098
   XY=              1.0938   XZ=             -0.0739   YZ=             -0.0041

 Normal termination of Gaussian 16 at Fri Sep 22 16:31:51 2023.
