 Gaussian 16, Revision A.03,
 Gaussian 16:  ES64L-G16RevA.03 25-Dec-2016

 ----------------
 # 6-31g(d) wb97x
 ----------------

 ----------------------
 tmpdir/M2_conf_1_7.gjf
 ----------------------
 Symbolic Z-matrix:
 Charge =  0 Multiplicity = 1

                         Standard orientation:
 ---------------------------------------------------------------------
 Center     Atomic      Atomic             Coordinates (Angstroms)
 Number     Number       Type             X           Y           Z
 ---------------------------------------------------------------------
      1          6           0        0.659105   -0.013458    0.004427
      2          6           0       -0.671975    0.001313   -0.005615
      3          1           0        1.275963    0.928173    0.001194
      4          1           0        1.231348   -0.934990   -0.013678
      5          1           0       -1.280262   -0.897927    0.017420
      6          1           0       -1.149825    0.977613    0.002196
 ---------------------------------------------------------------------

 SCF Done:  E(RwB97X) =  -78.5556516041     A.U. after   12 cycles

 The electronic state is 1-A.
 Alpha  occ. eigenvalues --  -10.27057 -10.26735  -0.88391  -0.69233  -0.57676
 Alpha  occ. eigenvalues --   -0.51837  -0.45231  -0.36823
 Alpha virt. eigenvalues --    0.11304   0.21547   0.23668   0.25816   0.34743
 Alpha virt. eigenvalues --    0.42641   0.58503   0.65578   0.67985   0.74999
 Alpha virt. eigenvalues --    0.75897   0.81758   0.95690   0.99232   1.04492

 Mulliken charges:
               1
     1  C   -0.322522
     2  C   -0.320905
     3  H    0.156165
     4  H    0.160137
     5  H    0.167322
     6  H    0.159804
 Sum of Mulliken charges =  -0.00000

 Dipole moment (field-independent basis, Debye):
    X=              0.0043    Y=             -0.0102    Z=              0.0071  Tot=              0.0131
 Quadrupole moment (field-independent basis, Debye-Ang):
   XX=            -11.9838   YY=            -12.0074   ZZ=            -15.1573
   XY=              0.1273   XZ=             -0.0434   YZ=             -0.0003

 Normal termination of Gaussian 16 at Fri Sep 22 16:31:28 2023.
