 Gaussian 16, Revision A.03,
 Gaussian 16:  ES64L-G16RevA.03 25-Dec-2016

 ----------------
 # 6-31g(d) wb97x
 ----------------

 ------------------------
 tmpdir/M2_conf_1_104.gjf
 ------------------------
 Symbolic Z-matrix:
 Charge =  0 Multiplicity = 1

                         Standard orientation:
 ---------------------------------------------------------------------
 Center     Atomic      Atomic             Coordinates (Angstroms)
 Number     Number       Type             X           Y           Z
 ---------------------------------------------------------------------
      1          6           0        0.765000    0.007435   -0.002341
      2          6           0       -0.760767   -0.001704    0.001855
      3          1           0       -1.118712    0.963457    0.381284
      4          1           0        1.100318   -1.015126   -0.476841
      5          1           0        1.190632    0.887915   -0.523793
      6          1           0        1.118483    0.025339    1.045920
      7          1           0       -1.198565   -0.815614    0.607594
      8          1           0       -1.117554   -0.080352   -1.031249
 ---------------------------------------------------------------------

 SCF Done:  E(RwB97X) =  -79.7953421468     A.U. after   12 cycles

 The electronic state is 1-A.
 Alpha  occ. eigenvalues --  -10.26587 -10.25581  -0.87808  -0.72599  -0.54457
 Alpha  occ. eigenvalues --   -0.53868  -0.46489  -0.44110  -0.43171
 Alpha virt. eigenvalues --    0.19212   0.24900   0.25193   0.26076   0.27752
 Alpha virt. eigenvalues --    0.29058   0.33588   0.61548   0.65169   0.66656
 Alpha virt. eigenvalues --    0.72986   0.76116   0.78760   0.96676   0.99509

 Mulliken charges:
               1
     1  C   -0.455563
     2  C   -0.463373
     3  H    0.153587
     4  H    0.136620
     5  H    0.159695
     6  H    0.155290
     7  H    0.157742
     8  H    0.156002
 Sum of Mulliken charges =  -0.00000

 Dipole moment (field-independent basis, Debye):
    X=             -0.0518    Y=              0.0612    Z=              0.0313  Tot=              0.0860
 Quadrupole moment (field-independent basis, Debye-Ang):
   XX=            -15.6481   YY=            -14.5706   ZZ=            -14.8037
   XY=              0.2328   XZ=             -0.0109   YZ=             -0.0892

 Normal termination of Gaussian 16 at Fri Sep 22 16:32:20 2023.
