 Gaussian 16, Revision A.03,
 Gaussian 16:  ES64L-G16RevA.03 25-Dec-2016

 ----------------
 # 6-31g(d) wb97x
 ----------------

 -----------------------
 tmpdir/M2_conf_2_22.gjf
 -----------------------
 Symbolic Z-matrix:
 Charge =  0 Multiplicity = 1

                         Standard orientation:
 ---------------------------------------------------------------------
 Center     Atomic      Atomic             Coordinates (Angstroms)
 Number     Number       Type             X           Y           Z
 ---------------------------------------------------------------------
      1          6           0       -0.015774    0.004774    0.002197
      2          1           0       -0.055868   -0.588543    0.922245
      3          1           0       -0.025441    1.089309    0.215195
      4          1           0        1.031102   -0.242513   -0.491318
      5          1           0       -0.855152   -0.286897   -0.659305
 ---------------------------------------------------------------------

 SCF Done:  E(RwB97X) =  -40.4943516368     A.U. after   11 cycles

 The electronic state is 1-A.
 Alpha  occ. eigenvalues --  -10.26180  -0.80965  -0.49905  -0.49583  -0.47450
 Alpha virt. eigenvalues --    0.20669   0.25237   0.27162   0.27516   0.64017
 Alpha virt. eigenvalues --    0.64540   0.66297   0.96193   1.00895   1.01455
 Alpha virt. eigenvalues --    1.03828   1.19869   1.76098   1.76744   2.27216

 Mulliken charges:
               1
     1  C   -0.653123
     2  H    0.170324
     3  H    0.169261
     4  H    0.144486
     5  H    0.169053
 Sum of Mulliken charges =   0.00000

 Dipole moment (field-independent basis, Debye):
    X=             -0.0216    Y=             -0.0027    Z=              0.0432  Tot=              0.0484
 Quadrupole moment (field-independent basis, Debye-Ang):
   XX=             -8.2715   YY=             -8.2699   ZZ=             -8.4513
   XY=              0.0463   XZ=              0.0943   YZ=             -0.0277

 Normal termination of Gaussian 16 at Fri Sep 22 16:32:30 2023.
