 Gaussian 16, Revision A.03,
 Gaussian 16:  ES64L-G16RevA.03 25-Dec-2016

 ----------------
 # 6-31g(d) wb97x
 ----------------

 -----------------------
 tmpdir/M2_conf_2_74.gjf
 -----------------------
 Symbolic Z-matrix:
 Charge =  0 Multiplicity = 1

                         Standard orientation:
 ---------------------------------------------------------------------
 Center     Atomic      Atomic             Coordinates (Angstroms)
 Number     Number       Type             X           Y           Z
 ---------------------------------------------------------------------
      1          6           0        0.770158   -0.016155   -0.003175
      2          6           0       -0.760708    0.003481   -0.008137
      3          1           0       -1.082817    0.969555    0.424387
      4          1           0        1.215684   -0.949900   -0.393018
      5          1           0        1.123706    0.165384    1.018334
      6          1           0        1.110479    0.844022   -0.595232
      7          1           0       -1.234199   -0.860022    0.634804
      8          1           0       -1.189549   -0.092995   -1.021404
 ---------------------------------------------------------------------

 SCF Done:  E(RwB97X) =  -79.7964171934     A.U. after   12 cycles

 The electronic state is 1-A.
 Alpha  occ. eigenvalues --  -10.26566 -10.25781  -0.87676  -0.72815  -0.54437
 Alpha  occ. eigenvalues --   -0.53478  -0.46419  -0.44387  -0.43283
 Alpha virt. eigenvalues --    0.19470   0.24460   0.25563   0.25912   0.28070
 Alpha virt. eigenvalues --    0.28803   0.33591   0.61745   0.65032   0.66149
 Alpha virt. eigenvalues --    0.74441   0.75122   0.78366   0.97068   0.99420

 Mulliken charges:
               1
     1  C   -0.462816
     2  C   -0.458081
     3  H    0.155359
     4  H    0.158214
     5  H    0.157675
     6  H    0.155785
     7  H    0.136203
     8  H    0.157661
 Sum of Mulliken charges =  -0.00000

 Dipole moment (field-independent basis, Debye):
    X=              0.0433    Y=              0.0890    Z=             -0.0161  Tot=              0.1003
 Quadrupole moment (field-independent basis, Debye-Ang):
   XX=            -15.4524   YY=            -14.6621   ZZ=            -14.8217
   XY=             -0.0140   XZ=              0.0690   YZ=              0.0894

 Normal termination of Gaussian 16 at Fri Sep 22 16:33:07 2023.
