 Gaussian 16, Revision A.03,
 Gaussian 16:  ES64L-G16RevA.03 25-Dec-2016

 ----------------
 # 6-31g(d) wb97x
 ----------------

 ------------------------
 tmpdir/M2_conf_2_123.gjf
 ------------------------
 Symbolic Z-matrix:
 Charge =  0 Multiplicity = 1

                         Standard orientation:
 ---------------------------------------------------------------------
 Center     Atomic      Atomic             Coordinates (Angstroms)
 Number     Number       Type             X           Y           Z
 ---------------------------------------------------------------------
      1          1           0       -0.303574   -0.039008    1.045364
      2          6           0        0.007499   -0.001263   -0.002589
      3          1           0       -0.510630   -0.810187   -0.529388
      4          1           0        1.106104   -0.094837   -0.084168
      5          1           0       -0.336893    0.951610   -0.416271
 ---------------------------------------------------------------------

 SCF Done:  E(RwB97X) =  -40.4991162024     A.U. after   11 cycles

 The electronic state is 1-A.
 Alpha  occ. eigenvalues --  -10.25065  -0.81658  -0.49862  -0.49258  -0.49121
 Alpha virt. eigenvalues --    0.21531   0.27366   0.27441   0.27469   0.63863
 Alpha virt. eigenvalues --    0.63958   0.64723   1.01287   1.01522   1.01581
 Alpha virt. eigenvalues --    1.06761   1.20749   1.75837   1.75905   2.33227

 Mulliken charges:
               1
     1  H    0.166197
     2  C   -0.665940
     3  H    0.166559
     4  H    0.166634
     5  H    0.166550
 Sum of Mulliken charges =   0.00000

 Dipole moment (field-independent basis, Debye):
    X=             -0.0378    Y=              0.0066    Z=              0.0122  Tot=              0.0403
 Quadrupole moment (field-independent basis, Debye-Ang):
   XX=             -8.1371   YY=             -8.3091   ZZ=             -8.3405
   XY=              0.0000   XZ=              0.0007   YZ=             -0.0001

 Normal termination of Gaussian 16 at Fri Sep 22 16:33:13 2023.
