 Gaussian 16, Revision A.03,
 Gaussian 16:  ES64L-G16RevA.03 25-Dec-2016

 ----------------
 # 6-31g(d) wb97x
 ----------------

 -----------------------
 tmpdir/M2_conf_0_66.gjf
 -----------------------
 Symbolic Z-matrix:
 Charge =  0 Multiplicity = 1

                         Standard orientation:
 ---------------------------------------------------------------------
 Center     Atomic      Atomic             Coordinates (Angstroms)
 Number     Number       Type             X           Y           Z
 ---------------------------------------------------------------------
      1          6           0       -1.230125    0.182988    0.007793
      2          8           0       -0.004302   -0.539611    0.028369
      3          6           0        1.235169    0.177915    0.003138
      4          1           0       -1.920597   -0.438535   -0.620999
      5          1           0       -1.655939    0.382150    0.986663
      6          1           0       -1.055611    1.126812   -0.542144
      7          1           0        1.443853    0.716611    0.948964
      8          1           0        2.015807   -0.560028   -0.253700
      9          1           0        1.176642    0.924463   -0.811330
 ---------------------------------------------------------------------

 SCF Done:  E(RwB97X) =  -154.970722389     A.U. after   13 cycles

 The electronic state is 1-A.
 Alpha  occ. eigenvalues --  -19.20375 -10.31130 -10.30897  -1.13647  -0.84430
 Alpha  occ. eigenvalues --   -0.75224  -0.57586  -0.57218  -0.56917  -0.50695
 Alpha  occ. eigenvalues --   -0.47931  -0.40010  -0.34705
 Alpha virt. eigenvalues --    0.18304   0.22538   0.24397   0.24699   0.26803
 Alpha virt. eigenvalues --    0.28507   0.28611   0.34519   0.61911   0.63497
 Alpha virt. eigenvalues --    0.64808   0.67928   0.70369   0.81439   0.94158

 Mulliken charges:
               1
     1  C   -0.210013
     2  O   -0.482127
     3  C   -0.211713
     4  H    0.164527
     5  H    0.155644
     6  H    0.130178
     7  H    0.144076
     8  H    0.175130
     9  H    0.134298
 Sum of Mulliken charges =  -0.00000

 Dipole moment (field-independent basis, Debye):
    X=              0.0490    Y=              1.3586    Z=             -0.1058  Tot=              1.3636
 Quadrupole moment (field-independent basis, Debye-Ang):
   XX=            -16.7442   YY=            -20.8661   ZZ=            -19.8166
   XY=             -0.1330   XZ=             -0.0758   YZ=              0.2909

 Normal termination of Gaussian 16 at Fri Sep 22 16:30:40 2023.
