 Gaussian 16, Revision A.03,
 Gaussian 16:  ES64L-G16RevA.03 25-Dec-2016

 ----------------
 # 6-31g(d) wb97x
 ----------------

 -----------------------
 tmpdir/M2_conf_2_76.gjf
 -----------------------
 Symbolic Z-matrix:
 Charge =  0 Multiplicity = 1

                         Standard orientation:
 ---------------------------------------------------------------------
 Center     Atomic      Atomic             Coordinates (Angstroms)
 Number     Number       Type             X           Y           Z
 ---------------------------------------------------------------------
      1          6           0        0.764908   -0.005101   -0.002764
      2          6           0       -0.767989   -0.005137    0.000219
      3          1           0        1.221857   -0.994171   -0.205916
      4          1           0        1.134564    0.714673   -0.742156
      5          1           0        1.147469    0.339015    0.967544
      6          1           0       -1.151130    1.017415    0.063461
      7          1           0       -1.172131   -0.565020    0.850827
      8          1           0       -1.162146   -0.450480   -0.918491
 ---------------------------------------------------------------------

 SCF Done:  E(RwB97X) =  -79.8007450439     A.U. after   12 cycles

 The electronic state is 1-A.
 Alpha  occ. eigenvalues --  -10.25671 -10.25517  -0.87762  -0.73460  -0.54119
 Alpha  occ. eigenvalues --   -0.53943  -0.46660  -0.44239  -0.43967
 Alpha virt. eigenvalues --    0.20005   0.25288   0.25745   0.25946   0.29074
 Alpha virt. eigenvalues --    0.29472   0.33844   0.61956   0.64753   0.64863
 Alpha virt. eigenvalues --    0.74143   0.75531   0.78585   0.99991   1.00094

 Mulliken charges:
               1
     1  C   -0.469431
     2  C   -0.468526
     3  H    0.155622
     4  H    0.156177
     5  H    0.155005
     6  H    0.157224
     7  H    0.156828
     8  H    0.157102
 Sum of Mulliken charges =   0.00000

 Dipole moment (field-independent basis, Debye):
    X=             -0.0063    Y=              0.0361    Z=              0.0060  Tot=              0.0371
 Quadrupole moment (field-independent basis, Debye-Ang):
   XX=            -15.2254   YY=            -14.6526   ZZ=            -14.7538
   XY=             -0.0477   XZ=              0.0002   YZ=             -0.0045

 Normal termination of Gaussian 16 at Fri Sep 22 16:33:02 2023.
