 Gaussian 16, Revision A.03,
 Gaussian 16:  ES64L-G16RevA.03 25-Dec-2016

 ----------------
 # 6-31g(d) wb97x
 ----------------

 -----------------------
 tmpdir/M2_conf_1_24.gjf
 -----------------------
 Symbolic Z-matrix:
 Charge =  0 Multiplicity = 1

                         Standard orientation:
 ---------------------------------------------------------------------
 Center     Atomic      Atomic             Coordinates (Angstroms)
 Number     Number       Type             X           Y           Z
 ---------------------------------------------------------------------
      1          6           0        1.272316   -0.263458   -0.008875
      2          6           0        0.001480    0.582632   -0.023912
      3          6           0       -1.280039   -0.252750    0.016801
      4          1           0        1.215679   -1.162420   -0.613580
      5          1           0        2.143498    0.315611   -0.333189
      6          1           0        1.507492   -0.571043    1.021688
      7          1           0        0.056344    1.307825    0.909765
      8          1           0       -0.039519    1.235668   -0.903037
      9          1           0       -2.292854    0.303878   -0.009641
     10          1           0       -1.298105   -0.925921   -0.880390
     11          1           0       -1.255084   -0.902144    0.904304
 ---------------------------------------------------------------------

 SCF Done:  E(RwB97X) =  -119.096200808     A.U. after   12 cycles

 The electronic state is 1-A.
 Alpha  occ. eigenvalues --  -10.27203 -10.26341 -10.25428  -0.90535  -0.80105
 Alpha  occ. eigenvalues --   -0.69661  -0.56147  -0.54143  -0.49649  -0.48105
 Alpha  occ. eigenvalues --   -0.44019  -0.42973  -0.41473
 Alpha virt. eigenvalues --    0.18390   0.22547   0.23785   0.24664   0.25893
 Alpha virt. eigenvalues --    0.27553   0.28472   0.30867   0.33231   0.36887
 Alpha virt. eigenvalues --    0.61812   0.62513   0.65402   0.67949   0.69301

 Mulliken charges:
               1
     1  C   -0.471589
     2  C   -0.266494
     3  C   -0.458733
     4  H    0.157324
     5  H    0.159232
     6  H    0.154581
     7  H    0.126455
     8  H    0.151944
     9  H    0.147392
    10  H    0.146051
    11  H    0.153835
 Sum of Mulliken charges =   0.00000

 Dipole moment (field-independent basis, Debye):
    X=              0.0973    Y=             -0.0297    Z=             -0.0440  Tot=              0.1108
 Quadrupole moment (field-independent basis, Debye-Ang):
   XX=            -21.6911   YY=            -21.8278   ZZ=            -21.3892
   XY=             -0.0169   XZ=              0.1478   YZ=             -0.0374

 Normal termination of Gaussian 16 at Fri Sep 22 16:31:27 2023.
