 Gaussian 16, Revision A.03,
 Gaussian 16:  ES64L-G16RevA.03 25-Dec-2016

 ----------------
 # 6-31g(d) wb97x
 ----------------

 -----------------------
 tmpdir/M2_conf_1_22.gjf
 -----------------------
 Symbolic Z-matrix:
 Charge =  0 Multiplicity = 1

                         Standard orientation:
 ---------------------------------------------------------------------
 Center     Atomic      Atomic             Coordinates (Angstroms)
 Number     Number       Type             X           Y           Z
 ---------------------------------------------------------------------
      1          6           0       -0.015767    0.004830    0.002139
      2          1           0       -0.056728   -0.601983    0.914986
      3          1           0       -0.024904    1.086301    0.230203
      4          1           0        1.031213   -0.236189   -0.494248
      5          1           0       -0.854981   -0.277108   -0.663776
 ---------------------------------------------------------------------

 SCF Done:  E(RwB97X) =  -40.4943451962     A.U. after   11 cycles

 The electronic state is 1-A.
 Alpha  occ. eigenvalues --  -10.26195  -0.80953  -0.49899  -0.49574  -0.47447
 Alpha virt. eigenvalues --    0.20662   0.25229   0.27156   0.27493   0.64047
 Alpha virt. eigenvalues --    0.64542   0.66296   0.96190   1.00879   1.01432
 Alpha virt. eigenvalues --    1.03741   1.19857   1.76105   1.76750   2.27206

 Mulliken charges:
               1
     1  C   -0.652968
     2  H    0.170007
     3  H    0.169311
     4  H    0.144542
     5  H    0.169108
 Sum of Mulliken charges =  -0.00000

 Dipole moment (field-independent basis, Debye):
    X=             -0.0215    Y=             -0.0028    Z=              0.0423  Tot=              0.0476
 Quadrupole moment (field-independent basis, Debye-Ang):
   XX=             -8.2727   YY=             -8.2702   ZZ=             -8.4526
   XY=              0.0450   XZ=              0.0950   YZ=             -0.0256

 Normal termination of Gaussian 16 at Fri Sep 22 16:31:26 2023.
