 Gaussian 16, Revision A.03,
 Gaussian 16:  ES64L-G16RevA.03 25-Dec-2016

 ----------------
 # 6-31g(d) wb97x
 ----------------

 -----------------------
 tmpdir/M2_conf_2_67.gjf
 -----------------------
 Symbolic Z-matrix:
 Charge =  0 Multiplicity = 1

                         Standard orientation:
 ---------------------------------------------------------------------
 Center     Atomic      Atomic             Coordinates (Angstroms)
 Number     Number       Type             X           Y           Z
 ---------------------------------------------------------------------
      1          6           0       -0.761584    0.003329   -0.008185
      2          6           0        0.772192   -0.015491   -0.003174
      3          1           0       -1.234693   -0.871041    0.620180
      4          1           0       -1.190134   -0.076527   -1.023014
      5          1           0       -1.094716    0.959007    0.438835
      6          1           0        1.218380   -0.942341   -0.408400
      7          1           0        1.125395    0.149237    1.021303
      8          1           0        1.112122    0.854634   -0.580754
 ---------------------------------------------------------------------

 SCF Done:  E(RwB97X) =  -79.7965069465     A.U. after   12 cycles

 The electronic state is 1-A.
 Alpha  occ. eigenvalues --  -10.26585 -10.25813  -0.87607  -0.72863  -0.54364
 Alpha  occ. eigenvalues --   -0.53445  -0.46422  -0.44402  -0.43303
 Alpha virt. eigenvalues --    0.19493   0.24463   0.25515   0.25916   0.28072
 Alpha virt. eigenvalues --    0.28827   0.33522   0.61851   0.64968   0.66021
 Alpha virt. eigenvalues --    0.74471   0.75261   0.78220   0.97095   0.99497

 Mulliken charges:
               1
     1  C   -0.458766
     2  C   -0.462874
     3  H    0.136158
     4  H    0.157639
     5  H    0.155542
     6  H    0.158531
     7  H    0.157828
     8  H    0.155940
 Sum of Mulliken charges =  -0.00000

 Dipole moment (field-independent basis, Debye):
    X=              0.0423    Y=              0.0894    Z=             -0.0146  Tot=              0.1000
 Quadrupole moment (field-independent basis, Debye-Ang):
   XX=            -15.4252   YY=            -14.6742   ZZ=            -14.8232
   XY=             -0.0296   XZ=              0.0624   YZ=              0.0891

 Normal termination of Gaussian 16 at Fri Sep 22 16:32:59 2023.
