 Gaussian 16, Revision A.03,
 Gaussian 16:  ES64L-G16RevA.03 25-Dec-2016

 ----------------
 # 6-31g(d) wb97x
 ----------------

 ------------------------
 tmpdir/M2_conf_0_104.gjf
 ------------------------
 Symbolic Z-matrix:
 Charge =  0 Multiplicity = 1

                         Standard orientation:
 ---------------------------------------------------------------------
 Center     Atomic      Atomic             Coordinates (Angstroms)
 Number     Number       Type             X           Y           Z
 ---------------------------------------------------------------------
      1          6           0        0.763654    0.005925   -0.003036
      2          6           0       -0.762121   -0.001058    0.002128
      3          1           0       -1.094205    0.980231    0.363274
      4          1           0        1.097347   -1.027186   -0.455306
      5          1           0        1.190187    0.874256   -0.543770
      6          1           0        1.117721    0.046194    1.044406
      7          1           0       -1.200687   -0.800980    0.625683
      8          1           0       -1.119565   -0.101721   -1.028836
 ---------------------------------------------------------------------

 SCF Done:  E(RwB97X) =  -79.7950546977     A.U. after   12 cycles

 The electronic state is 1-A.
 Alpha  occ. eigenvalues --  -10.26562 -10.25586  -0.87837  -0.72537  -0.54497
 Alpha  occ. eigenvalues --   -0.53930  -0.46497  -0.44076  -0.43130
 Alpha virt. eigenvalues --    0.19174   0.24951   0.25215   0.26086   0.27707
 Alpha virt. eigenvalues --    0.29041   0.33523   0.61507   0.65155   0.66855
 Alpha virt. eigenvalues --    0.72868   0.76032   0.78772   0.96693   0.99507

 Mulliken charges:
               1
     1  C   -0.456006
     2  C   -0.462405
     3  H    0.153496
     4  H    0.136005
     5  H    0.159516
     6  H    0.155138
     7  H    0.158040
     8  H    0.156216
 Sum of Mulliken charges =   0.00000

 Dipole moment (field-independent basis, Debye):
    X=             -0.0493    Y=              0.0631    Z=              0.0310  Tot=              0.0859
 Quadrupole moment (field-independent basis, Debye-Ang):
   XX=            -15.6932   YY=            -14.5569   ZZ=            -14.7955
   XY=              0.2672   XZ=             -0.0038   YZ=             -0.0888

 Normal termination of Gaussian 16 at Fri Sep 22 16:31:17 2023.
