 Gaussian 16, Revision A.03,
 Gaussian 16:  ES64L-G16RevA.03 25-Dec-2016

 ----------------
 # 6-31g(d) wb97x
 ----------------

 -----------------------
 tmpdir/M2_conf_2_46.gjf
 -----------------------
 Symbolic Z-matrix:
 Charge =  0 Multiplicity = 1

                         Standard orientation:
 ---------------------------------------------------------------------
 Center     Atomic      Atomic             Coordinates (Angstroms)
 Number     Number       Type             X           Y           Z
 ---------------------------------------------------------------------
      1          6           0        0.775362   -0.018445   -0.011056
      2          6           0       -0.774040   -0.009413    0.012025
      3          1           0       -1.170773    0.028141   -1.013255
      4          1           0        1.160477   -0.934384   -0.449152
      5          1           0        1.072870    0.957683   -0.580314
      6          1           0        1.113755    0.086393    1.036882
      7          1           0       -1.127046   -0.954730    0.469165
      8          1           0       -1.057218    0.984040    0.530864
 ---------------------------------------------------------------------

 SCF Done:  E(RwB97X) =  -79.7901841117     A.U. after   12 cycles

 The electronic state is 1-A.
 Alpha  occ. eigenvalues --  -10.26397 -10.26359  -0.87461  -0.72184  -0.55075
 Alpha  occ. eigenvalues --   -0.53540  -0.45103  -0.44703  -0.43031
 Alpha virt. eigenvalues --    0.18551   0.24838   0.25757   0.25813   0.27293
 Alpha virt. eigenvalues --    0.28611   0.32218   0.61900   0.65515   0.68254
 Alpha virt. eigenvalues --    0.72665   0.74666   0.77281   0.95228   0.98428

 Mulliken charges:
               1
     1  C   -0.456837
     2  C   -0.457935
     3  H    0.156760
     4  H    0.162773
     5  H    0.138173
     6  H    0.156347
     7  H    0.156430
     8  H    0.144289
 Sum of Mulliken charges =  -0.00000

 Dipole moment (field-independent basis, Debye):
    X=             -0.0016    Y=             -0.0548    Z=             -0.0121  Tot=              0.0562
 Quadrupole moment (field-independent basis, Debye-Ang):
   XX=            -16.0364   YY=            -14.3070   ZZ=            -14.9327
   XY=             -0.0531   XZ=              0.2166   YZ=              0.0491

 Normal termination of Gaussian 16 at Fri Sep 22 16:32:45 2023.
