 Gaussian 16, Revision A.03,
 Gaussian 16:  ES64L-G16RevA.03 25-Dec-2016

 ----------------
 # 6-31g(d) wb97x
 ----------------

 ------------------------
 tmpdir/M2_conf_0_123.gjf
 ------------------------
 Symbolic Z-matrix:
 Charge =  0 Multiplicity = 1

                         Standard orientation:
 ---------------------------------------------------------------------
 Center     Atomic      Atomic             Coordinates (Angstroms)
 Number     Number       Type             X           Y           Z
 ---------------------------------------------------------------------
      1          1           0       -0.307986   -0.102632    1.039482
      2          6           0        0.007615   -0.001096   -0.002864
      3          1           0       -0.518812   -0.769202   -0.580115
      4          1           0        1.105398   -0.101959   -0.086795
      5          1           0       -0.324292    0.980368   -0.355387
 ---------------------------------------------------------------------

 SCF Done:  E(RwB97X) =  -40.4991003749     A.U. after   11 cycles

 The electronic state is 1-A.
 Alpha  occ. eigenvalues --  -10.25065  -0.81658  -0.49873  -0.49271  -0.49098
 Alpha virt. eigenvalues --    0.21530   0.27357   0.27440   0.27478   0.63853
 Alpha virt. eigenvalues --    0.63963   0.64729   1.01268   1.01517   1.01598
 Alpha virt. eigenvalues --    1.06769   1.20751   1.75833   1.75912   2.33207

 Mulliken charges:
               1
     1  H    0.166143
     2  C   -0.665960
     3  H    0.166564
     4  H    0.166673
     5  H    0.166580
 Sum of Mulliken charges =  -0.00000

 Dipole moment (field-independent basis, Debye):
    X=             -0.0382    Y=              0.0058    Z=              0.0134  Tot=              0.0409
 Quadrupole moment (field-independent basis, Debye-Ang):
   XX=             -8.1350   YY=             -8.3070   ZZ=             -8.3447
   XY=             -0.0001   XZ=              0.0008   YZ=              0.0000

 Normal termination of Gaussian 16 at Fri Sep 22 16:31:01 2023.
