 Gaussian 16, Revision A.03,
 Gaussian 16:  ES64L-G16RevA.03 25-Dec-2016

 ----------------
 # 6-31g(d) wb97x
 ----------------

 -----------------------
 tmpdir/M2_conf_2_36.gjf
 -----------------------
 Symbolic Z-matrix:
 Charge =  1 Multiplicity = 1

                         Standard orientation:
 ---------------------------------------------------------------------
 Center     Atomic      Atomic             Coordinates (Angstroms)
 Number     Number       Type             X           Y           Z
 ---------------------------------------------------------------------
      1          1           0        1.044989    0.232615    0.023544
      2          7           0       -0.004598   -0.002051   -0.001840
      3          1           0       -0.189326   -0.661590   -0.760367
      4          1           0       -0.550628    0.890773   -0.129359
      5          1           0       -0.272846   -0.447439    0.879059
 ---------------------------------------------------------------------

 SCF Done:  E(RwB97X) =  -56.8737186723     A.U. after   10 cycles

 The electronic state is 1-A.
 Alpha  occ. eigenvalues --  -14.79091  -1.36605  -0.93355  -0.93054  -0.91913
 Alpha virt. eigenvalues --   -0.10722  -0.03528  -0.02000  -0.01397   0.44772
 Alpha virt. eigenvalues --    0.46262   0.46374   0.66737   0.68198   0.69945
 Alpha virt. eigenvalues --    0.71690   1.09738   1.36158   1.36480   2.04673

 Mulliken charges:
               1
     1  H    0.473657
     2  N   -0.886174
     3  H    0.469989
     4  H    0.473784
     5  H    0.468744
 Sum of Mulliken charges =   1.00000

 Dipole moment (field-independent basis, Debye):
    X=              0.0689    Y=              0.0423    Z=              0.0202  Tot=              0.0834
 Quadrupole moment (field-independent basis, Debye-Ang):
   XX=             -4.2038   YY=             -4.2251   ZZ=             -4.5177
   XY=             -0.0007   XZ=             -0.0010   YZ=              0.0044

 Normal termination of Gaussian 16 at Fri Sep 22 16:32:35 2023.
