 Gaussian 16, Revision A.03,
 Gaussian 16:  ES64L-G16RevA.03 25-Dec-2016

 ----------------
 # 6-31g(d) wb97x
 ----------------

 -----------------------
 tmpdir/M2_conf_0_17.gjf
 -----------------------
 Symbolic Z-matrix:
 Charge =  0 Multiplicity = 1

                         Standard orientation:
 ---------------------------------------------------------------------
 Center     Atomic      Atomic             Coordinates (Angstroms)
 Number     Number       Type             X           Y           Z
 ---------------------------------------------------------------------
      1          6           0       -0.766706    0.018443    0.000738
      2          6           0        0.760065    0.010131    0.005113
      3          1           0        1.151988   -0.618705    0.811604
      4          1           0       -1.118151   -1.024267   -0.435048
      5          1           0       -1.166782    0.862541   -0.594795
      6          1           0       -1.174036    0.066175    1.017002
      7          1           0        1.210264    0.993801    0.087083
      8          1           0        1.136565   -0.450986   -0.920952
 ---------------------------------------------------------------------

 SCF Done:  E(RwB97X) =  -79.7948556018     A.U. after   12 cycles

 The electronic state is 1-A.
 Alpha  occ. eigenvalues --  -10.26586 -10.25400  -0.87718  -0.72992  -0.54399
 Alpha  occ. eigenvalues --   -0.53602  -0.46606  -0.44353  -0.43124
 Alpha virt. eigenvalues --    0.19328   0.23668   0.24929   0.25331   0.29677
 Alpha virt. eigenvalues --    0.30786   0.33969   0.61783   0.64699   0.65927
 Alpha virt. eigenvalues --    0.74850   0.76525   0.78868   0.96201   0.99438

 Mulliken charges:
               1
     1  C   -0.458477
     2  C   -0.469309
     3  H    0.156621
     4  H    0.134831
     5  H    0.159433
     6  H    0.160977
     7  H    0.160537
     8  H    0.155387
 Sum of Mulliken charges =  -0.00000

 Dipole moment (field-independent basis, Debye):
    X=              0.0605    Y=              0.0188    Z=              0.0369  Tot=              0.0733
 Quadrupole moment (field-independent basis, Debye-Ang):
   XX=            -15.4096   YY=            -14.5883   ZZ=            -14.8595
   XY=             -0.0745   XZ=             -0.0768   YZ=             -0.0804

 Normal termination of Gaussian 16 at Fri Sep 22 16:30:27 2023.
