 Gaussian 16, Revision A.03,
 Gaussian 16:  ES64L-G16RevA.03 25-Dec-2016

 ----------------
 # 6-31g(d) wb97x
 ----------------

 -----------------------
 tmpdir/M2_conf_2_50.gjf
 -----------------------
 Symbolic Z-matrix:
 Charge =  0 Multiplicity = 1

                         Standard orientation:
 ---------------------------------------------------------------------
 Center     Atomic      Atomic             Coordinates (Angstroms)
 Number     Number       Type             X           Y           Z
 ---------------------------------------------------------------------
      1          6           0       -0.732530   -0.013627    0.003068
      2          7           0        0.737796   -0.032465   -0.024213
      3          1           0        1.212193    0.862467    0.037965
      4          1           0       -1.273285   -0.851227   -0.479862
      5          1           0       -1.017794    0.941498   -0.511502
      6          1           0       -1.066999    0.072531    1.047437
      7          1           0        1.376497   -0.716249    0.057047
 ---------------------------------------------------------------------

 SCF Done:  E(RwB97X) =  -95.8015321251     A.U. after   13 cycles

 The electronic state is 1-A.
 Alpha  occ. eigenvalues --  -14.36315 -10.28913  -0.97992  -0.78498  -0.59507
 Alpha  occ. eigenvalues --   -0.53582  -0.51376  -0.46963  -0.29975
 Alpha virt. eigenvalues --    0.19667   0.23293   0.25168   0.28125   0.31287
 Alpha virt. eigenvalues --    0.34633   0.64709   0.67082   0.69953   0.87662
 Alpha virt. eigenvalues --    0.90130   0.93173   0.98825   1.00423   1.06655

 Mulliken charges:
               1
     1  C   -0.289934
     2  N   -0.805180
     3  H    0.310100
     4  H    0.161989
     5  H    0.152032
     6  H    0.145138
     7  H    0.325855
 Sum of Mulliken charges =  -0.00000

 Dipole moment (field-independent basis, Debye):
    X=              0.2223    Y=              0.1683    Z=              0.2283  Tot=              0.3604
 Quadrupole moment (field-independent basis, Debye-Ang):
   XX=            -11.8637   YY=            -12.2924   ZZ=            -15.5321
   XY=              0.1676   XZ=              0.6191   YZ=             -0.0099

 Normal termination of Gaussian 16 at Fri Sep 22 16:32:55 2023.
