 Gaussian 16, Revision A.03,
 Gaussian 16:  ES64L-G16RevA.03 25-Dec-2016

 ----------------
 # 6-31g(d) wb97x
 ----------------

 -----------------------
 tmpdir/M2_conf_2_37.gjf
 -----------------------
 Symbolic Z-matrix:
 Charge =  1 Multiplicity = 1

                         Standard orientation:
 ---------------------------------------------------------------------
 Center     Atomic      Atomic             Coordinates (Angstroms)
 Number     Number       Type             X           Y           Z
 ---------------------------------------------------------------------
      1          1           0       -0.345351   -0.401263    0.873417
      2          7           0       -0.002026   -0.000763   -0.002970
      3          1           0       -0.585840   -0.382302   -0.750018
      4          1           0       -0.088689    1.049505    0.028226
      5          1           0        1.034063   -0.260599   -0.130838
 ---------------------------------------------------------------------

 SCF Done:  E(RwB97X) =  -56.8734845681     A.U. after   10 cycles

 The electronic state is 1-A.
 Alpha  occ. eigenvalues --  -14.79087  -1.36613  -0.93440  -0.92908  -0.91954
 Alpha virt. eigenvalues --   -0.10739  -0.03489  -0.01953  -0.01489   0.44436
 Alpha virt. eigenvalues --    0.46061   0.46964   0.66748   0.68199   0.69858
 Alpha virt. eigenvalues --    0.71784   1.09631   1.36165   1.36648   2.04336

 Mulliken charges:
               1
     1  H    0.467747
     2  N   -0.886312
     3  H    0.469925
     4  H    0.472939
     5  H    0.475701
 Sum of Mulliken charges =   1.00000

 Dipole moment (field-independent basis, Debye):
    X=              0.0480    Y=              0.0173    Z=              0.0322  Tot=              0.0604
 Quadrupole moment (field-independent basis, Debye-Ang):
   XX=             -4.0999   YY=             -4.2590   ZZ=             -4.5863
   XY=              0.0095   XZ=              0.0073   YZ=              0.0017

 Normal termination of Gaussian 16 at Fri Sep 22 16:32:37 2023.
