 Gaussian 16, Revision A.03,
 Gaussian 16:  ES64L-G16RevA.03 25-Dec-2016

 ----------------
 # 6-31g(d) wb97x
 ----------------

 -----------------------
 tmpdir/M2_conf_2_24.gjf
 -----------------------
 Symbolic Z-matrix:
 Charge =  0 Multiplicity = 1

                         Standard orientation:
 ---------------------------------------------------------------------
 Center     Atomic      Atomic             Coordinates (Angstroms)
 Number     Number       Type             X           Y           Z
 ---------------------------------------------------------------------
      1          6           0        1.272398   -0.263423   -0.008872
      2          6           0        0.001484    0.582549   -0.023914
      3          6           0       -1.280110   -0.252731    0.016800
      4          1           0        1.215844   -1.162395   -0.613572
      5          1           0        2.143526    0.315725   -0.333191
      6          1           0        1.507604   -0.570979    1.021692
      7          1           0        0.056281    1.307752    0.909758
      8          1           0       -0.039577    1.235575   -0.903043
      9          1           0       -2.292883    0.303980   -0.009650
     10          1           0       -1.298209   -0.925907   -0.880385
     11          1           0       -1.255216   -0.902120    0.904309
 ---------------------------------------------------------------------

 SCF Done:  E(RwB97X) =  -119.096199362     A.U. after   12 cycles

 The electronic state is 1-A.
 Alpha  occ. eigenvalues --  -10.27203 -10.26341 -10.25429  -0.90534  -0.80106
 Alpha  occ. eigenvalues --   -0.69661  -0.56147  -0.54142  -0.49649  -0.48106
 Alpha  occ. eigenvalues --   -0.44021  -0.42971  -0.41473
 Alpha virt. eigenvalues --    0.18390   0.22548   0.23786   0.24663   0.25894
 Alpha virt. eigenvalues --    0.27553   0.28471   0.30866   0.33230   0.36888
 Alpha virt. eigenvalues --    0.61812   0.62511   0.65402   0.67950   0.69301

 Mulliken charges:
               1
     1  C   -0.471589
     2  C   -0.266493
     3  C   -0.458734
     4  H    0.157326
     5  H    0.159237
     6  H    0.154582
     7  H    0.126450
     8  H    0.151941
     9  H    0.147396
    10  H    0.146048
    11  H    0.153834
 Sum of Mulliken charges =   0.00000

 Dipole moment (field-independent basis, Debye):
    X=              0.0973    Y=             -0.0297    Z=             -0.0440  Tot=              0.1108
 Quadrupole moment (field-independent basis, Debye-Ang):
   XX=            -21.6907   YY=            -21.8280   ZZ=            -21.3892
   XY=             -0.0171   XZ=              0.1477   YZ=             -0.0374

 Normal termination of Gaussian 16 at Fri Sep 22 16:32:31 2023.
