 Gaussian 16, Revision A.03,
 Gaussian 16:  ES64L-G16RevA.03 25-Dec-2016

 ----------------
 # 6-31g(d) wb97x
 ----------------

 -----------------------
 tmpdir/M2_conf_1_59.gjf
 -----------------------
 Symbolic Z-matrix:
 Charge =  0 Multiplicity = 1

                         Standard orientation:
 ---------------------------------------------------------------------
 Center     Atomic      Atomic             Coordinates (Angstroms)
 Number     Number       Type             X           Y           Z
 ---------------------------------------------------------------------
      1          6           0        0.252659    0.400980   -0.009294
      2          6           0       -1.152852   -0.122966    0.008571
      3          1           0       -1.506542   -0.141293    1.056543
      4          8           0        1.199188   -0.289969   -0.003864
      5          1           0        0.430168    1.473164    0.012762
      6          1           0       -1.206003   -1.168165   -0.395372
      7          1           0       -1.909964    0.487969   -0.638684
 ---------------------------------------------------------------------

 SCF Done:  E(RwB97X) =  -153.777208499     A.U. after   15 cycles

 The electronic state is 1-A.
 Alpha  occ. eigenvalues --  -19.21359 -10.35816 -10.28763  -1.19307  -0.87280
 Alpha  occ. eigenvalues --   -0.70018  -0.59316  -0.55826  -0.54666  -0.48937
 Alpha  occ. eigenvalues --   -0.47385  -0.35415
 Alpha virt. eigenvalues --    0.08503   0.19879   0.21976   0.25325   0.25761
 Alpha virt. eigenvalues --    0.36262   0.38272   0.63180   0.64220   0.70352
 Alpha virt. eigenvalues --    0.72058   0.79507   0.84958   0.86677   0.94438

 Mulliken charges:
               1
     1  C    0.244664
     2  C   -0.564116
     3  H    0.195432
     4  O   -0.353015
     5  H    0.118901
     6  H    0.194670
     7  H    0.163466
 Sum of Mulliken charges =  -0.00000

 Dipole moment (field-independent basis, Debye):
    X=             -2.2341    Y=              1.0602    Z=              0.0816  Tot=              2.4743
 Quadrupole moment (field-independent basis, Debye-Ang):
   XX=            -20.4514   YY=            -17.8732   ZZ=            -17.4608
   XY=              1.1993   XZ=             -0.0237   YZ=              0.0190

 Normal termination of Gaussian 16 at Fri Sep 22 16:31:59 2023.
