 Gaussian 16, Revision A.03,
 Gaussian 16:  ES64L-G16RevA.03 25-Dec-2016

 ----------------
 # 6-31g(d) wb97x
 ----------------

 -----------------------
 tmpdir/M2_conf_0_50.gjf
 -----------------------
 Symbolic Z-matrix:
 Charge =  0 Multiplicity = 1

                         Standard orientation:
 ---------------------------------------------------------------------
 Center     Atomic      Atomic             Coordinates (Angstroms)
 Number     Number       Type             X           Y           Z
 ---------------------------------------------------------------------
      1          6           0       -0.733633   -0.012786    0.003078
      2          7           0        0.736689   -0.032098   -0.024142
      3          1           0        1.231142    0.851923    0.037867
      4          1           0       -1.274647   -0.849659   -0.480819
      5          1           0       -1.018539    0.943013   -0.510438
      6          1           0       -1.068130    0.072318    1.047525
      7          1           0        1.375151   -0.716191    0.056389
 ---------------------------------------------------------------------

 SCF Done:  E(RwB97X) =  -95.8010860910     A.U. after   13 cycles

 The electronic state is 1-A.
 Alpha  occ. eigenvalues --  -14.36302 -10.28947  -0.97978  -0.78569  -0.59299
 Alpha  occ. eigenvalues --   -0.53726  -0.51380  -0.46930  -0.29968
 Alpha virt. eigenvalues --    0.19693   0.23230   0.25161   0.28120   0.31314
 Alpha virt. eigenvalues --    0.34633   0.64725   0.66857   0.69938   0.87649
 Alpha virt. eigenvalues --    0.90572   0.93362   0.98887   1.00635   1.06452

 Mulliken charges:
               1
     1  C   -0.288931
     2  N   -0.806265
     3  H    0.309879
     4  H    0.162334
     5  H    0.152550
     6  H    0.145385
     7  H    0.325047
 Sum of Mulliken charges =   0.00000

 Dipole moment (field-independent basis, Debye):
    X=              0.2315    Y=              0.1612    Z=              0.2256  Tot=              0.3612
 Quadrupole moment (field-independent basis, Debye-Ang):
   XX=            -11.7927   YY=            -12.3320   ZZ=            -15.5299
   XY=              0.1865   XZ=              0.6177   YZ=             -0.0098

 Normal termination of Gaussian 16 at Fri Sep 22 16:30:44 2023.
