 Gaussian 16, Revision A.03,
 Gaussian 16:  ES64L-G16RevA.03 25-Dec-2016

 ----------------
 # 6-31g(d) wb97x
 ----------------

 -----------------------
 tmpdir/M2_conf_0_62.gjf
 -----------------------
 Symbolic Z-matrix:
 Charge =  0 Multiplicity = 1

                         Standard orientation:
 ---------------------------------------------------------------------
 Center     Atomic      Atomic             Coordinates (Angstroms)
 Number     Number       Type             X           Y           Z
 ---------------------------------------------------------------------
      1          6           0        1.226323   -0.252383    0.000836
      2          6           0        0.140983    0.514869   -0.010707
      3          6           0       -1.200438   -0.156309    0.009513
      4          1           0        2.268892    0.172111    0.008215
      5          1           0        1.173911   -1.335682   -0.026175
      6          1           0        0.302260    1.589694    0.006702
      7          1           0       -1.141410   -1.202798   -0.390263
      8          1           0       -2.018392    0.367573   -0.640021
      9          1           0       -1.586469   -0.227958    1.043688
 ---------------------------------------------------------------------

 SCF Done:  E(RwB97X) =  -117.858827954     A.U. after   13 cycles

 The electronic state is 1-A.
 Alpha  occ. eigenvalues --  -10.27374 -10.27212 -10.25904  -0.91350  -0.79588
 Alpha  occ. eigenvalues --   -0.66904  -0.56936  -0.51826  -0.51457  -0.45733
 Alpha  occ. eigenvalues --   -0.44608  -0.34892
 Alpha virt. eigenvalues --    0.11669   0.20404   0.21966   0.24483   0.27142
 Alpha virt. eigenvalues --    0.28197   0.28709   0.38809   0.46137   0.59782
 Alpha virt. eigenvalues --    0.64767   0.66335   0.70720   0.74312   0.76339

 Mulliken charges:
               1
     1  C   -0.358185
     2  C   -0.077738
     3  C   -0.510680
     4  H    0.147394
     5  H    0.150962
     6  H    0.160581
     7  H    0.165583
     8  H    0.147738
     9  H    0.174346
 Sum of Mulliken charges =   0.00000

 Dipole moment (field-independent basis, Debye):
    X=             -0.2307    Y=              0.0188    Z=              0.0597  Tot=              0.2390
 Quadrupole moment (field-independent basis, Debye-Ang):
   XX=            -19.1386   YY=            -18.5886   ZZ=            -21.4107
   XY=              0.1088   XZ=             -0.0077   YZ=              0.0566

 Normal termination of Gaussian 16 at Fri Sep 22 16:30:46 2023.
