 Gaussian 16, Revision A.03,
 Gaussian 16:  ES64L-G16RevA.03 25-Dec-2016

 ----------------
 # 6-31g(d) wb97x
 ----------------

 -----------------------
 tmpdir/M2_conf_1_72.gjf
 -----------------------
 Symbolic Z-matrix:
 Charge =  0 Multiplicity = 1

                         Standard orientation:
 ---------------------------------------------------------------------
 Center     Atomic      Atomic             Coordinates (Angstroms)
 Number     Number       Type             X           Y           Z
 ---------------------------------------------------------------------
      1          8           0        0.744542    0.121636    0.016518
      2          6           0       -0.680924   -0.018690    0.005320
      3          1           0       -0.967435   -0.658981   -0.850289
      4          1           0        1.264918   -0.701263   -0.069262
      5          1           0       -1.077378   -0.492514    0.925450
      6          1           0       -1.090902    0.991811   -0.169968
 ---------------------------------------------------------------------

 SCF Done:  E(RwB97X) =  -115.676225593     A.U. after   12 cycles

 The electronic state is 1-A.
 Alpha  occ. eigenvalues --  -19.20155 -10.31156  -1.12202  -0.80258  -0.60821
 Alpha  occ. eigenvalues --   -0.54088  -0.52739  -0.42013  -0.36470
 Alpha virt. eigenvalues --    0.17619   0.22640   0.26550   0.27382   0.30733
 Alpha virt. eigenvalues --    0.64328   0.66919   0.68889   0.90387   0.96284
 Alpha virt. eigenvalues --    0.98218   1.01689   1.07096   1.09517   1.12074

 Mulliken charges:
               1
     1  O   -0.644549
     2  C   -0.214883
     3  H    0.138059
     4  H    0.402844
     5  H    0.143651
     6  H    0.174878
 Sum of Mulliken charges =   0.00000

 Dipole moment (field-independent basis, Debye):
    X=             -0.6614    Y=             -1.5334    Z=             -0.2097  Tot=              1.6831
 Quadrupole moment (field-independent basis, Debye-Ang):
   XX=            -11.9438   YY=            -12.1325   ZZ=            -13.5814
   XY=             -2.3838   XZ=             -0.2284   YZ=              0.0082

 Normal termination of Gaussian 16 at Fri Sep 22 16:31:46 2023.
