 Gaussian 16, Revision A.03,
 Gaussian 16:  ES64L-G16RevA.03 25-Dec-2016

 ----------------
 # 6-31g(d) wb97x
 ----------------

 -----------------------
 tmpdir/M2_conf_1_88.gjf
 -----------------------
 Symbolic Z-matrix:
 Charge =  0 Multiplicity = 1

                         Standard orientation:
 ---------------------------------------------------------------------
 Center     Atomic      Atomic             Coordinates (Angstroms)
 Number     Number       Type             X           Y           Z
 ---------------------------------------------------------------------
      1          7           0       -1.102078   -0.719301    0.022591
      2          6           0       -0.080087    0.149055   -0.001446
      3          6           0        1.293831   -0.474513   -0.000521
      4          1           0       -2.123503   -0.613011   -0.054052
      5          1           0       -0.862582   -1.701353   -0.067079
      6          8           0       -0.191114    1.388484   -0.003186
      7          1           0        1.824304   -0.144638    0.896749
      8          1           0        1.844769   -0.094563   -0.864795
      9          1           0        1.278003   -1.566450   -0.031672
 ---------------------------------------------------------------------

 SCF Done:  E(RwB97X) =  -209.149516865     A.U. after   15 cycles

 The electronic state is 1-A.
 Alpha  occ. eigenvalues --  -19.16299 -14.44109 -10.37377 -10.27321  -1.13760
 Alpha  occ. eigenvalues --   -1.03414  -0.86588  -0.72122  -0.63662  -0.57976
 Alpha  occ. eigenvalues --   -0.55600  -0.50726  -0.49061  -0.46651  -0.36248
 Alpha  occ. eigenvalues --   -0.33933
 Alpha virt. eigenvalues --    0.12996   0.16342   0.20044   0.23404   0.27665
 Alpha virt. eigenvalues --    0.28053   0.33982   0.40942   0.51601   0.63842
 Alpha virt. eigenvalues --    0.65168   0.67347   0.73791   0.73890   0.79174

 Mulliken charges:
               1
     1  N   -0.767273
     2  C    0.578320
     3  C   -0.563389
     4  H    0.364086
     5  H    0.340548
     6  O   -0.508730
     7  H    0.205388
     8  H    0.203934
     9  H    0.147117
 Sum of Mulliken charges =  -0.00000

 Dipole moment (field-independent basis, Debye):
    X=             -0.5022    Y=             -4.1744    Z=             -0.2653  Tot=              4.2129
 Quadrupole moment (field-independent basis, Debye-Ang):
   XX=            -18.9858   YY=            -26.2264   ZZ=            -24.5195
   XY=              2.3555   XZ=              0.4521   YZ=              0.3694

 Normal termination of Gaussian 16 at Fri Sep 22 16:32:10 2023.
