 Gaussian 16, Revision A.03,
 Gaussian 16:  ES64L-G16RevA.03 25-Dec-2016

 ----------------
 # 6-31g(d) wb97x
 ----------------

 -----------------------
 tmpdir/M2_conf_2_71.gjf
 -----------------------
 Symbolic Z-matrix:
 Charge =  0 Multiplicity = 1

                         Standard orientation:
 ---------------------------------------------------------------------
 Center     Atomic      Atomic             Coordinates (Angstroms)
 Number     Number       Type             X           Y           Z
 ---------------------------------------------------------------------
      1          8           0        1.141353   -0.386982   -0.036986
      2          6           0        0.077871    0.572043   -0.004646
      3          6           0       -1.213806   -0.239977    0.011460
      4          1           0        2.035013   -0.055333    0.179104
      5          1           0        0.125874    1.301238   -0.837894
      6          1           0        0.156860    1.131909    0.946371
      7          1           0       -1.315531   -0.895544    0.895160
      8          1           0       -1.264070   -0.844060   -0.901414
      9          1           0       -2.053362    0.465251   -0.026324
 ---------------------------------------------------------------------

 SCF Done:  E(RwB97X) =  -154.985481371     A.U. after   13 cycles

 The electronic state is 1-A.
 Alpha  occ. eigenvalues --  -19.19938 -10.31442 -10.25591  -1.12316  -0.87045
 Alpha  occ. eigenvalues --   -0.72861  -0.61985  -0.56989  -0.49780  -0.47894
 Alpha  occ. eigenvalues --   -0.46567  -0.41538  -0.36302
 Alpha virt. eigenvalues --    0.17828   0.21552   0.24891   0.26097   0.27548
 Alpha virt. eigenvalues --    0.30186   0.31265   0.33685   0.63242   0.66337
 Alpha virt. eigenvalues --    0.66955   0.69581   0.77406   0.81236   0.92126

 Mulliken charges:
               1
     1  O   -0.645453
     2  C   -0.037733
     3  C   -0.473491
     4  H    0.400422
     5  H    0.136080
     6  H    0.128740
     7  H    0.171074
     8  H    0.171645
     9  H    0.148716
 Sum of Mulliken charges =   0.00000

 Dipole moment (field-independent basis, Debye):
    X=              0.3421    Y=              1.4303    Z=              0.4039  Tot=              1.5251
 Quadrupole moment (field-independent basis, Debye-Ang):
   XX=            -16.2719   YY=            -20.3643   ZZ=            -19.7831
   XY=              1.4717   XZ=              0.9140   YZ=             -0.2090

 Normal termination of Gaussian 16 at Fri Sep 22 16:33:06 2023.
