 Gaussian 16, Revision A.03,
 Gaussian 16:  ES64L-G16RevA.03 25-Dec-2016

 ----------------
 # 6-31g(d) wb97x
 ----------------

 -----------------------
 tmpdir/M2_conf_0_92.gjf
 -----------------------
 Symbolic Z-matrix:
 Charge =  0 Multiplicity = 1

                         Standard orientation:
 ---------------------------------------------------------------------
 Center     Atomic      Atomic             Coordinates (Angstroms)
 Number     Number       Type             X           Y           Z
 ---------------------------------------------------------------------
      1          6           0       -0.003086   -0.004582   -0.008117
      2          1           0       -0.984753   -0.258014   -0.419136
      3          1           0        0.830499   -0.351123   -0.622893
      4          1           0        0.074866    1.080269    0.102900
      5          1           0        0.097903   -0.443637    0.987830
 ---------------------------------------------------------------------

 SCF Done:  E(RwB97X) =  -40.4991576000     A.U. after   11 cycles

 The electronic state is 1-A.
 Alpha  occ. eigenvalues --  -10.24881  -0.81781  -0.50172  -0.49157  -0.49139
 Alpha virt. eigenvalues --    0.21648   0.27353   0.27477   0.27837   0.63795
 Alpha virt. eigenvalues --    0.63884   0.64506   1.01366   1.01574   1.02560
 Alpha virt. eigenvalues --    1.07205   1.20862   1.75664   1.75964   2.34163

 Mulliken charges:
               1
     1  C   -0.667877
     2  H    0.168543
     3  H    0.168174
     4  H    0.165587
     5  H    0.165574
 Sum of Mulliken charges =   0.00000

 Dipole moment (field-independent basis, Debye):
    X=              0.0127    Y=              0.0170    Z=              0.0306  Tot=              0.0372
 Quadrupole moment (field-independent basis, Debye-Ang):
   XX=             -8.1132   YY=             -8.3216   ZZ=             -8.3188
   XY=             -0.0000   XZ=             -0.0007   YZ=              0.0069

 Normal termination of Gaussian 16 at Fri Sep 22 16:30:55 2023.
