 Gaussian 16, Revision A.03,
 Gaussian 16:  ES64L-G16RevA.03 25-Dec-2016

 ----------------
 # 6-31g(d) wb97x
 ----------------

 ------------------------
 tmpdir/M2_conf_1_121.gjf
 ------------------------
 Symbolic Z-matrix:
 Charge =  0 Multiplicity = 1

                         Standard orientation:
 ---------------------------------------------------------------------
 Center     Atomic      Atomic             Coordinates (Angstroms)
 Number     Number       Type             X           Y           Z
 ---------------------------------------------------------------------
      1          6           0        0.761743   -0.004722   -0.003316
      2          6           0       -0.765653   -0.005215    0.000095
      3          1           0       -1.161939   -0.600919    0.829810
      4          1           0        1.218837   -0.984643   -0.246520
      5          1           0        1.131027    0.744515   -0.713045
      6          1           0        1.144522    0.299873    0.980033
      7          1           0       -1.148989    1.013840    0.104839
      8          1           0       -1.159993   -0.413043   -0.935792
 ---------------------------------------------------------------------

 SCF Done:  E(RwB97X) =  -79.8007552487     A.U. after   12 cycles

 The electronic state is 1-A.
 Alpha  occ. eigenvalues --  -10.25621 -10.25477  -0.87874  -0.73398  -0.54198
 Alpha  occ. eigenvalues --   -0.54013  -0.46714  -0.44190  -0.43925
 Alpha virt. eigenvalues --    0.19985   0.25322   0.25760   0.25923   0.29070
 Alpha virt. eigenvalues --    0.29472   0.34004   0.61775   0.64834   0.65008
 Alpha virt. eigenvalues --    0.74035   0.75470   0.78886   0.99897   1.00007

 Mulliken charges:
               1
     1  C   -0.469146
     2  C   -0.467787
     3  H    0.156637
     4  H    0.155438
     5  H    0.155863
     6  H    0.154790
     7  H    0.157174
     8  H    0.157032
 Sum of Mulliken charges =  -0.00000

 Dipole moment (field-independent basis, Debye):
    X=             -0.0055    Y=              0.0353    Z=              0.0078  Tot=              0.0365
 Quadrupole moment (field-independent basis, Debye-Ang):
   XX=            -15.2568   YY=            -14.6456   ZZ=            -14.7445
   XY=             -0.0540   XZ=              0.0060   YZ=             -0.0038

 Normal termination of Gaussian 16 at Fri Sep 22 16:32:16 2023.
