 Gaussian 16, Revision A.03,
 Gaussian 16:  ES64L-G16RevA.03 25-Dec-2016

 ----------------
 # 6-31g(d) wb97x
 ----------------

 -----------------------
 tmpdir/M2_conf_1_73.gjf
 -----------------------
 Symbolic Z-matrix:
 Charge =  0 Multiplicity = 1

                         Standard orientation:
 ---------------------------------------------------------------------
 Center     Atomic      Atomic             Coordinates (Angstroms)
 Number     Number       Type             X           Y           Z
 ---------------------------------------------------------------------
      1          6           0        1.282583   -0.255369    0.014431
      2          6           0       -0.003679    0.574827   -0.001848
      3          6           0       -1.279261   -0.262398   -0.001551
      4          1           0        1.398707   -0.899277    0.905634
      5          1           0        2.141633    0.420199   -0.069701
      6          1           0        1.290318   -0.864960   -0.899139
      7          1           0       -0.095761    1.299081    0.920208
      8          1           0       -0.001083    1.194095   -0.918705
      9          1           0       -2.202098    0.333811   -0.119523
     10          1           0       -1.328136   -0.833494    0.932391
     11          1           0       -1.201437   -0.991812   -0.817358
 ---------------------------------------------------------------------

 SCF Done:  E(RwB97X) =  -119.099902947     A.U. after   12 cycles

 The electronic state is 1-A.
 Alpha  occ. eigenvalues --  -10.27009 -10.25712 -10.25319  -0.90668  -0.80362
 Alpha  occ. eigenvalues --   -0.69273  -0.56502  -0.54328  -0.50074  -0.48350
 Alpha  occ. eigenvalues --   -0.43789  -0.42784  -0.41710
 Alpha virt. eigenvalues --    0.18432   0.23243   0.24316   0.24879   0.26247
 Alpha virt. eigenvalues --    0.28358   0.29330   0.29681   0.32028   0.36475
 Alpha virt. eigenvalues --    0.61572   0.62164   0.65831   0.67119   0.68719

 Mulliken charges:
               1
     1  C   -0.462961
     2  C   -0.271382
     3  C   -0.457700
     4  H    0.155399
     5  H    0.159174
     6  H    0.151322
     7  H    0.125933
     8  H    0.145618
     9  H    0.156608
    10  H    0.151495
    11  H    0.146493
 Sum of Mulliken charges =   0.00000

 Dipole moment (field-independent basis, Debye):
    X=              0.0471    Y=             -0.0020    Z=             -0.0785  Tot=              0.0915
 Quadrupole moment (field-independent basis, Debye-Ang):
   XX=            -21.9001   YY=            -21.8799   ZZ=            -21.1990
   XY=             -0.1945   XZ=             -0.0908   YZ=             -0.1664

 Normal termination of Gaussian 16 at Fri Sep 22 16:31:56 2023.
