 Gaussian 16, Revision A.03,
 Gaussian 16:  ES64L-G16RevA.03 25-Dec-2016

 ----------------
 # 6-31g(d) wb97x
 ----------------

 ------------------------
 tmpdir/M2_conf_2_122.gjf
 ------------------------
 Symbolic Z-matrix:
 Charge =  0 Multiplicity = 1

                         Standard orientation:
 ---------------------------------------------------------------------
 Center     Atomic      Atomic             Coordinates (Angstroms)
 Number     Number       Type             X           Y           Z
 ---------------------------------------------------------------------
      1          6           0        0.762621   -0.005189   -0.003378
      2          6           0       -0.764775   -0.005099    0.000144
      3          1           0       -1.167687   -0.416586   -0.930475
      4          1           0        1.219335   -0.986599   -0.241250
      5          1           0        1.132130    0.740013   -0.717223
      6          1           0        1.145583    0.304638    0.978264
      7          1           0       -1.147727    1.014658    0.099337
      8          1           0       -1.168706   -0.594395    0.830751
 ---------------------------------------------------------------------

 SCF Done:  E(RwB97X) =  -79.8007749036     A.U. after   12 cycles

 The electronic state is 1-A.
 Alpha  occ. eigenvalues --  -10.25641 -10.25474  -0.87862  -0.73438  -0.54176
 Alpha  occ. eigenvalues --   -0.53964  -0.46780  -0.44193  -0.43907
 Alpha virt. eigenvalues --    0.20010   0.25315   0.25732   0.25890   0.29103
 Alpha virt. eigenvalues --    0.29484   0.34044   0.61799   0.64787   0.64940
 Alpha virt. eigenvalues --    0.74156   0.75507   0.78882   0.99893   1.00004

 Mulliken charges:
               1
     1  C   -0.468880
     2  C   -0.468445
     3  H    0.157002
     4  H    0.155557
     5  H    0.156095
     6  H    0.155056
     7  H    0.157021
     8  H    0.156595
 Sum of Mulliken charges =   0.00000

 Dipole moment (field-independent basis, Debye):
    X=             -0.0071    Y=              0.0360    Z=              0.0078  Tot=              0.0375
 Quadrupole moment (field-independent basis, Debye-Ang):
   XX=            -15.2248   YY=            -14.6507   ZZ=            -14.7576
   XY=             -0.0437   XZ=              0.0086   YZ=             -0.0040

 Normal termination of Gaussian 16 at Fri Sep 22 16:33:26 2023.
