 Gaussian 16, Revision A.03,
 Gaussian 16:  ES64L-G16RevA.03 25-Dec-2016

 ----------------
 # 6-31g(d) wb97x
 ----------------

 -----------------------
 tmpdir/M2_conf_1_67.gjf
 -----------------------
 Symbolic Z-matrix:
 Charge =  0 Multiplicity = 1

                         Standard orientation:
 ---------------------------------------------------------------------
 Center     Atomic      Atomic             Coordinates (Angstroms)
 Number     Number       Type             X           Y           Z
 ---------------------------------------------------------------------
      1          6           0       -0.764635    0.003316   -0.008179
      2          6           0        0.775243   -0.015476   -0.003179
      3          1           0       -1.237672   -0.871092    0.620186
      4          1           0       -1.193199   -0.076559   -1.023001
      5          1           0       -1.097821    0.958966    0.438857
      6          1           0        1.221484   -0.942292   -0.408424
      7          1           0        1.128455    0.149264    1.021292
      8          1           0        1.115103    0.854677   -0.580757
 ---------------------------------------------------------------------

 SCF Done:  E(RwB97X) =  -79.7964477393     A.U. after   12 cycles

 The electronic state is 1-A.
 Alpha  occ. eigenvalues --  -10.26629 -10.25858  -0.87487  -0.72911  -0.54300
 Alpha  occ. eigenvalues --   -0.53380  -0.46329  -0.44457  -0.43356
 Alpha virt. eigenvalues --    0.19501   0.24454   0.25499   0.25946   0.28066
 Alpha virt. eigenvalues --    0.28819   0.33324   0.62030   0.64875   0.65936
 Alpha virt. eigenvalues --    0.74514   0.75315   0.77902   0.97146   0.99577

 Mulliken charges:
               1
     1  C   -0.459216
     2  C   -0.463394
     3  H    0.136350
     4  H    0.157806
     5  H    0.155702
     6  H    0.158690
     7  H    0.157971
     8  H    0.156092
 Sum of Mulliken charges =   0.00000

 Dipole moment (field-independent basis, Debye):
    X=              0.0421    Y=              0.0895    Z=             -0.0145  Tot=              0.1000
 Quadrupole moment (field-independent basis, Debye-Ang):
   XX=            -15.4073   YY=            -14.6780   ZZ=            -14.8274
   XY=             -0.0295   XZ=              0.0625   YZ=              0.0891

 Normal termination of Gaussian 16 at Fri Sep 22 16:31:54 2023.
