 Gaussian 16, Revision A.03,
 Gaussian 16:  ES64L-G16RevA.03 25-Dec-2016

 ----------------
 # 6-31g(d) wb97x
 ----------------

 -----------------------
 tmpdir/M2_conf_2_68.gjf
 -----------------------
 Symbolic Z-matrix:
 Charge =  0 Multiplicity = 1

                         Standard orientation:
 ---------------------------------------------------------------------
 Center     Atomic      Atomic             Coordinates (Angstroms)
 Number     Number       Type             X           Y           Z
 ---------------------------------------------------------------------
      1          6           0        0.764547    0.006321   -0.002867
      2          6           0       -0.762327   -0.001238    0.002060
      3          1           0        1.098667   -1.024281   -0.460508
      4          1           0        1.190841    0.877631   -0.538984
      5          1           0        1.118461    0.041204    1.044817
      6          1           0       -1.200689   -0.804581    0.621347
      7          1           0       -1.119599   -0.096619   -1.029468
      8          1           0       -1.101001    0.976150    0.367640
 ---------------------------------------------------------------------

 SCF Done:  E(RwB97X) =  -79.7951496169     A.U. after   12 cycles

 The electronic state is 1-A.
 Alpha  occ. eigenvalues --  -10.26576 -10.25592  -0.87807  -0.72562  -0.54474
 Alpha  occ. eigenvalues --   -0.53902  -0.46481  -0.44091  -0.43151
 Alpha virt. eigenvalues --    0.19185   0.24937   0.25213   0.26083   0.27718
 Alpha virt. eigenvalues --    0.29044   0.33504   0.61551   0.65141   0.66786
 Alpha virt. eigenvalues --    0.72906   0.76063   0.78708   0.96696   0.99526

 Mulliken charges:
               1
     1  C   -0.455977
     2  C   -0.462753
     3  H    0.136204
     4  H    0.159588
     5  H    0.155211
     6  H    0.157986
     7  H    0.156192
     8  H    0.153549
 Sum of Mulliken charges =  -0.00000

 Dipole moment (field-independent basis, Debye):
    X=             -0.0499    Y=              0.0626    Z=              0.0311  Tot=              0.0859
 Quadrupole moment (field-independent basis, Debye-Ang):
   XX=            -15.6788   YY=            -14.5609   ZZ=            -14.7983
   XY=              0.2580   XZ=             -0.0054   YZ=             -0.0888

 Normal termination of Gaussian 16 at Fri Sep 22 16:33:04 2023.
