 Gaussian 16, Revision A.03,
 Gaussian 16:  ES64L-G16RevA.03 25-Dec-2016

 ----------------
 # 6-31g(d) wb97x
 ----------------

 -----------------------
 tmpdir/M2_conf_0_11.gjf
 -----------------------
 Symbolic Z-matrix:
 Charge =  0 Multiplicity = 1

                         Standard orientation:
 ---------------------------------------------------------------------
 Center     Atomic      Atomic             Coordinates (Angstroms)
 Number     Number       Type             X           Y           Z
 ---------------------------------------------------------------------
      1          6           0        0.742228    0.010142    0.005048
      2          6           0       -0.749243    0.018387    0.000805
      3          1           0        1.192524    0.994082    0.083113
      4          1           0        1.137522   -0.614745    0.812966
      5          1           0        1.118645   -0.454667   -0.919206
      6          1           0       -1.100806   -1.026003   -0.430847
      7          1           0       -1.149264    0.860159   -0.598046
      8          1           0       -1.156527    0.069999    1.016900
 ---------------------------------------------------------------------

 SCF Done:  E(RwB97X) =  -79.7939593781     A.U. after   12 cycles

 The electronic state is 1-A.
 Alpha  occ. eigenvalues --  -10.26315 -10.25133  -0.88436  -0.72720  -0.54777
 Alpha  occ. eigenvalues --   -0.53995  -0.47158  -0.44019  -0.42798
 Alpha virt. eigenvalues --    0.19274   0.23496   0.24712   0.25596   0.29787
 Alpha virt. eigenvalues --    0.30893   0.35120   0.60691   0.65214   0.66476
 Alpha virt. eigenvalues --    0.74616   0.76354   0.80874   0.95902   0.98791

 Mulliken charges:
               1
     1  C   -0.466498
     2  C   -0.456013
     3  H    0.159679
     4  H    0.155902
     5  H    0.154686
     6  H    0.133748
     7  H    0.158464
     8  H    0.160031
 Sum of Mulliken charges =  -0.00000

 Dipole moment (field-independent basis, Debye):
    X=              0.0644    Y=              0.0213    Z=              0.0375  Tot=              0.0775
 Quadrupole moment (field-independent basis, Debye-Ang):
   XX=            -15.5062   YY=            -14.5663   ZZ=            -14.8330
   XY=             -0.0777   XZ=             -0.0719   YZ=             -0.0795

 Normal termination of Gaussian 16 at Fri Sep 22 16:30:32 2023.
