 Gaussian 16, Revision A.03,
 Gaussian 16:  ES64L-G16RevA.03 25-Dec-2016

 ----------------
 # 6-31g(d) wb97x
 ----------------

 ------------------------
 tmpdir/M2_conf_2_121.gjf
 ------------------------
 Symbolic Z-matrix:
 Charge =  0 Multiplicity = 1

                         Standard orientation:
 ---------------------------------------------------------------------
 Center     Atomic      Atomic             Coordinates (Angstroms)
 Number     Number       Type             X           Y           Z
 ---------------------------------------------------------------------
      1          6           0        0.761356   -0.004338   -0.003816
      2          6           0       -0.766039   -0.005284   -0.000022
      3          1           0       -1.155023   -0.634530    0.808113
      4          1           0        1.218579   -0.973966   -0.285058
      5          1           0        1.130297    0.772005   -0.683975
      6          1           0        1.144343    0.261872    0.990531
      7          1           0       -1.149549    1.008848    0.144367
      8          1           0       -1.160553   -0.376497   -0.950954
 ---------------------------------------------------------------------

 SCF Done:  E(RwB97X) =  -79.8007353685     A.U. after   12 cycles

 The electronic state is 1-A.
 Alpha  occ. eigenvalues --  -10.25612 -10.25478  -0.87880  -0.73380  -0.54220
 Alpha  occ. eigenvalues --   -0.54022  -0.46688  -0.44188  -0.43932
 Alpha virt. eigenvalues --    0.19974   0.25326   0.25786   0.25920   0.29060
 Alpha virt. eigenvalues --    0.29465   0.33986   0.61765   0.64830   0.65065
 Alpha virt. eigenvalues --    0.73976   0.75460   0.78887   0.99897   1.00011

 Mulliken charges:
               1
     1  C   -0.469265
     2  C   -0.467501
     3  H    0.156599
     4  H    0.155392
     5  H    0.155706
     6  H    0.154724
     7  H    0.157242
     8  H    0.157102
 Sum of Mulliken charges =  -0.00000

 Dipole moment (field-independent basis, Debye):
    X=             -0.0047    Y=              0.0345    Z=              0.0094  Tot=              0.0361
 Quadrupole moment (field-independent basis, Debye-Ang):
   XX=            -15.2708   YY=            -14.6425   ZZ=            -14.7398
   XY=             -0.0601   XZ=              0.0110   YZ=             -0.0031

 Normal termination of Gaussian 16 at Fri Sep 22 16:33:20 2023.
