 Gaussian 16, Revision A.03,
 Gaussian 16:  ES64L-G16RevA.03 25-Dec-2016

 ----------------
 # 6-31g(d) wb97x
 ----------------

 -----------------------
 tmpdir/M2_conf_2_42.gjf
 -----------------------
 Symbolic Z-matrix:
 Charge =  0 Multiplicity = 1

                         Standard orientation:
 ---------------------------------------------------------------------
 Center     Atomic      Atomic             Coordinates (Angstroms)
 Number     Number       Type             X           Y           Z
 ---------------------------------------------------------------------
      1          6           0       -1.245483   -0.266840    0.011868
      2          6           0        0.001205    0.620136   -0.017457
      3          6           0        1.242335   -0.307635   -0.008299
      4          1           0       -1.283834   -0.941380   -0.862893
      5          1           0       -2.237203    0.378846   -0.004187
      6          1           0       -1.271750   -0.824913    0.954662
      7          1           0        0.163701    1.358526    0.857022
      8          1           0        0.018260    1.181201   -0.963458
      9          1           0        1.171331   -1.073152   -0.775189
     10          1           0        2.156060    0.412082   -0.120090
     11          1           0        1.295087   -0.765171    0.997465
 ---------------------------------------------------------------------

 SCF Done:  E(RwB97X) =  -119.090370390     A.U. after   12 cycles

 The electronic state is 1-A.
 Alpha  occ. eigenvalues --  -10.26954 -10.26517 -10.26123  -0.90583  -0.79289
 Alpha  occ. eigenvalues --   -0.69369  -0.56986  -0.53198  -0.49511  -0.48496
 Alpha  occ. eigenvalues --   -0.44076  -0.42513  -0.41069
 Alpha virt. eigenvalues --    0.17764   0.22665   0.23169   0.24526   0.26105
 Alpha virt. eigenvalues --    0.27822   0.28639   0.30045   0.32036   0.35216
 Alpha virt. eigenvalues --    0.61981   0.64381   0.65787   0.66537   0.68799

 Mulliken charges:
               1
     1  C   -0.454814
     2  C   -0.272112
     3  C   -0.453392
     4  H    0.156957
     5  H    0.133322
     6  H    0.156020
     7  H    0.139434
     8  H    0.149043
     9  H    0.157565
    10  H    0.137089
    11  H    0.150889
 Sum of Mulliken charges =  -0.00000

 Dipole moment (field-independent basis, Debye):
    X=             -0.0051    Y=             -0.0120    Z=             -0.0147  Tot=              0.0197
 Quadrupole moment (field-independent basis, Debye-Ang):
   XX=            -22.7312   YY=            -21.7471   ZZ=            -21.1377
   XY=              0.4088   XZ=              0.1785   YZ=              0.2247

 Normal termination of Gaussian 16 at Fri Sep 22 16:32:44 2023.
