 Gaussian 16, Revision A.03,
 Gaussian 16:  ES64L-G16RevA.03 25-Dec-2016

 ----------------
 # 6-31g(d) wb97x
 ----------------

 -----------------------
 tmpdir/M2_conf_0_42.gjf
 -----------------------
 Symbolic Z-matrix:
 Charge =  0 Multiplicity = 1

                         Standard orientation:
 ---------------------------------------------------------------------
 Center     Atomic      Atomic             Coordinates (Angstroms)
 Number     Number       Type             X           Y           Z
 ---------------------------------------------------------------------
      1          6           0       -1.335826   -0.231605    0.012800
      2          6           0       -0.004430    0.522171   -0.019215
      3          6           0        1.323870   -0.275773   -0.006819
      4          1           0       -1.440971   -0.905950   -0.856617
      5          1           0       -2.255812    0.512495   -0.012027
      6          1           0       -1.421946   -0.776075    0.959969
      7          1           0        0.230769    1.247254    0.849849
      8          1           0        0.072842    1.070539   -0.969648
      9          1           0        1.329147   -1.049652   -0.768569
     10          1           0        2.160257    0.531578   -0.125319
     11          1           0        1.424032   -0.718947    1.001769
 ---------------------------------------------------------------------

 SCF Done:  E(RwB97X) =  -119.085818507     A.U. after   12 cycles

 The electronic state is 1-A.
 Alpha  occ. eigenvalues --  -10.26860 -10.26797 -10.26200  -0.90238  -0.80173
 Alpha  occ. eigenvalues --   -0.68812  -0.56869  -0.53101  -0.49900  -0.49044
 Alpha  occ. eigenvalues --   -0.43917  -0.41965  -0.40938
 Alpha virt. eigenvalues --    0.17377   0.22987   0.23563   0.24534   0.26782
 Alpha virt. eigenvalues --    0.27148   0.27939   0.29395   0.31152   0.36533
 Alpha virt. eigenvalues --    0.61529   0.62549   0.66470   0.66836   0.69513

 Mulliken charges:
               1
     1  C   -0.457192
     2  C   -0.268350
     3  C   -0.456781
     4  H    0.158239
     5  H    0.140574
     6  H    0.157331
     7  H    0.134548
     8  H    0.145682
     9  H    0.156223
    10  H    0.140459
    11  H    0.149267
 Sum of Mulliken charges =   0.00000

 Dipole moment (field-independent basis, Debye):
    X=             -0.0346    Y=             -0.0293    Z=             -0.0257  Tot=              0.0521
 Quadrupole moment (field-independent basis, Debye-Ang):
   XX=            -22.3032   YY=            -21.9718   ZZ=            -21.1828
   XY=              0.5209   XZ=              0.1615   YZ=              0.2093

 Normal termination of Gaussian 16 at Fri Sep 22 16:30:33 2023.
