 Gaussian 16, Revision A.03,
 Gaussian 16:  ES64L-G16RevA.03 25-Dec-2016

 ----------------
 # 6-31g(d) wb97x
 ----------------

 ----------------------
 tmpdir/M2_conf_0_4.gjf
 ----------------------
 Symbolic Z-matrix:
 Charge =  0 Multiplicity = 1

                         Standard orientation:
 ---------------------------------------------------------------------
 Center     Atomic      Atomic             Coordinates (Angstroms)
 Number     Number       Type             X           Y           Z
 ---------------------------------------------------------------------
      1          8           0        1.751987    0.183455    0.000421
      2          6           0        0.659026   -0.426208   -0.000292
      3          6           0       -0.674462    0.373668   -0.005510
      4          1           0        0.426569   -1.418219    0.005136
      5          1           0       -0.560541    1.452400    0.013854
      6          8           0       -1.723663   -0.148323    0.001557
 ---------------------------------------------------------------------

 SCF Done:  E(RwB97X) =  -227.744214284     A.U. after   16 cycles

 The electronic state is 1-A.
 Alpha  occ. eigenvalues --  -19.26407 -19.25800 -10.39001 -10.38278  -1.23057
 Alpha  occ. eigenvalues --   -1.18573  -0.83950  -0.73486  -0.61349  -0.60362
 Alpha  occ. eigenvalues --   -0.57040  -0.56049  -0.49701  -0.44045  -0.36445
 Alpha virt. eigenvalues --   -0.01784   0.12291   0.22309   0.24956   0.28617
 Alpha virt. eigenvalues --    0.37194   0.37955   0.59635   0.66934   0.67180
 Alpha virt. eigenvalues --    0.70232   0.73274   0.82761   0.89292   0.90559

 Mulliken charges:
               1
     1  O   -0.370341
     2  C    0.185613
     3  C    0.167926
     4  H    0.185515
     5  H    0.154764
     6  O   -0.323477
 Sum of Mulliken charges =  -0.00000

 Dipole moment (field-independent basis, Debye):
    X=             -0.1908    Y=             -0.2789    Z=             -0.0038  Tot=              0.3380
 Quadrupole moment (field-independent basis, Debye-Ang):
   XX=            -30.6947   YY=            -20.1712   ZZ=            -20.8040
   XY=             -2.0697   XZ=              0.0051   YZ=              0.0054

 Normal termination of Gaussian 16 at Fri Sep 22 16:30:22 2023.
