 Gaussian 16, Revision A.03,
 Gaussian 16:  ES64L-G16RevA.03 25-Dec-2016

 ----------------
 # 6-31g(d) wb97x
 ----------------

 ----------------------
 tmpdir/M2_conf_0_6.gjf
 ----------------------
 Symbolic Z-matrix:
 Charge =  0 Multiplicity = 1

                         Standard orientation:
 ---------------------------------------------------------------------
 Center     Atomic      Atomic             Coordinates (Angstroms)
 Number     Number       Type             X           Y           Z
 ---------------------------------------------------------------------
      1          6           0        0.264681    0.403528   -0.009378
      2          6           0       -1.164786   -0.148049   -0.004270
      3          1           0        0.339780    1.526626    0.005001
      4          8           0        1.207449   -0.292446    0.003269
      5          1           0       -1.231199   -1.237155   -0.180671
      6          1           0       -1.753502    0.413603   -0.737361
      7          1           0       -1.614042    0.103619    0.968769
 ---------------------------------------------------------------------

 SCF Done:  E(RwB97X) =  -153.782156540     A.U. after   14 cycles

 The electronic state is 1-A.
 Alpha  occ. eigenvalues --  -19.21780 -10.36507 -10.27840  -1.19417  -0.87366
 Alpha  occ. eigenvalues --   -0.69635  -0.59110  -0.55365  -0.54719  -0.50619
 Alpha  occ. eigenvalues --   -0.47482  -0.35404
 Alpha virt. eigenvalues --    0.08779   0.20596   0.22138   0.25329   0.25769
 Alpha virt. eigenvalues --    0.34667   0.38046   0.62774   0.65285   0.69313
 Alpha virt. eigenvalues --    0.70213   0.78880   0.85352   0.87097   0.94936

 Mulliken charges:
               1
     1  C    0.244528
     2  C   -0.562196
     3  H    0.112121
     4  O   -0.349326
     5  H    0.195703
     6  H    0.174776
     7  H    0.184395
 Sum of Mulliken charges =  -0.00000

 Dipole moment (field-independent basis, Debye):
    X=             -2.2106    Y=              1.1349    Z=              0.0401  Tot=              2.4852
 Quadrupole moment (field-independent basis, Debye-Ang):
   XX=            -20.5639   YY=            -17.6098   ZZ=            -17.6827
   XY=              0.9593   XZ=             -0.0998   YZ=              0.0351

 Normal termination of Gaussian 16 at Fri Sep 22 16:30:16 2023.
