 Gaussian 16, Revision A.03,
 Gaussian 16:  ES64L-G16RevA.03 25-Dec-2016

 ----------------
 # 6-31g(d) wb97x
 ----------------

 ----------------------
 tmpdir/M2_conf_2_6.gjf
 ----------------------
 Symbolic Z-matrix:
 Charge =  0 Multiplicity = 1

                         Standard orientation:
 ---------------------------------------------------------------------
 Center     Atomic      Atomic             Coordinates (Angstroms)
 Number     Number       Type             X           Y           Z
 ---------------------------------------------------------------------
      1          6           0        0.255970    0.402247   -0.009392
      2          6           0       -1.152908   -0.149577   -0.004247
      3          1           0        0.325396    1.525711    0.004911
      4          8           0        1.202242   -0.288955    0.003256
      5          1           0       -1.213828   -1.239016   -0.180575
      6          1           0       -1.744487    0.409047   -0.737347
      7          1           0       -1.603385    0.099881    0.968796
 ---------------------------------------------------------------------

 SCF Done:  E(RwB97X) =  -153.782366913     A.U. after   14 cycles

 The electronic state is 1-A.
 Alpha  occ. eigenvalues --  -19.21653 -10.36330 -10.27762  -1.19364  -0.87744
 Alpha  occ. eigenvalues --   -0.69588  -0.59251  -0.55567  -0.54781  -0.50539
 Alpha  occ. eigenvalues --   -0.47353  -0.35410
 Alpha virt. eigenvalues --    0.08835   0.20552   0.22226   0.25286   0.25795
 Alpha virt. eigenvalues --    0.35100   0.38314   0.62898   0.65401   0.69289
 Alpha virt. eigenvalues --    0.70343   0.79005   0.85361   0.87164   0.95010

 Mulliken charges:
               1
     1  C    0.246402
     2  C   -0.561434
     3  H    0.110390
     4  O   -0.351992
     5  H    0.196157
     6  H    0.175186
     7  H    0.185290
 Sum of Mulliken charges =  -0.00000

 Dipole moment (field-independent basis, Debye):
    X=             -2.2456    Y=              1.1162    Z=              0.0416  Tot=              2.5080
 Quadrupole moment (field-independent basis, Debye-Ang):
   XX=            -20.5659   YY=            -17.6174   ZZ=            -17.6553
   XY=              0.9307   XZ=             -0.1022   YZ=              0.0340

 Normal termination of Gaussian 16 at Fri Sep 22 16:32:28 2023.
