 Gaussian 16, Revision A.03,
 Gaussian 16:  ES64L-G16RevA.03 25-Dec-2016

 ----------------
 # 6-31g(d) wb97x
 ----------------

 -----------------------
 tmpdir/M2_conf_1_31.gjf
 -----------------------
 Symbolic Z-matrix:
 Charge =  1 Multiplicity = 1

                         Standard orientation:
 ---------------------------------------------------------------------
 Center     Atomic      Atomic             Coordinates (Angstroms)
 Number     Number       Type             X           Y           Z
 ---------------------------------------------------------------------
      1          7           0       -0.001425   -0.000313   -0.001299
      2          1           0       -0.694427   -0.380024   -0.678363
      3          1           0        0.012538    1.052855   -0.048045
      4          1           0        0.989981   -0.370338   -0.195030
      5          1           0       -0.298119   -0.300301    0.930530
 ---------------------------------------------------------------------

 SCF Done:  E(RwB97X) =  -56.8734057105     A.U. after   10 cycles

 The electronic state is 1-A.
 Alpha  occ. eigenvalues --  -14.79159  -1.36322  -0.93109  -0.92646  -0.91869
 Alpha virt. eigenvalues --   -0.10855  -0.03430  -0.02277  -0.01719   0.44742
 Alpha virt. eigenvalues --    0.46117   0.47128   0.66790   0.68210   0.69072
 Alpha virt. eigenvalues --    0.71176   1.09448   1.36386   1.36845   2.04333

 Mulliken charges:
               1
     1  N   -0.887974
     2  H    0.471691
     3  H    0.472798
     4  H    0.475483
     5  H    0.468001
 Sum of Mulliken charges =   1.00000

 Dipole moment (field-independent basis, Debye):
    X=              0.0354    Y=              0.0063    Z=              0.0051  Tot=              0.0364
 Quadrupole moment (field-independent basis, Debye-Ang):
   XX=             -4.0932   YY=             -4.2736   ZZ=             -4.5535
   XY=              0.0073   XZ=              0.0023   YZ=             -0.0022

 Normal termination of Gaussian 16 at Fri Sep 22 16:31:22 2023.
