 Gaussian 16, Revision A.03,
 Gaussian 16:  ES64L-G16RevA.03 25-Dec-2016

 ----------------
 # 6-31g(d) wb97x
 ----------------

 -----------------------
 tmpdir/M2_conf_2_87.gjf
 -----------------------
 Symbolic Z-matrix:
 Charge =  0 Multiplicity = 1

                         Standard orientation:
 ---------------------------------------------------------------------
 Center     Atomic      Atomic             Coordinates (Angstroms)
 Number     Number       Type             X           Y           Z
 ---------------------------------------------------------------------
      1          7           0       -1.066746   -0.160421   -0.022676
      2          6           0        0.151679    0.399856    0.002173
      3          8           0        1.204575   -0.263433    0.002845
      4          1           0       -1.401288   -1.131402    0.053182
      5          1           0       -1.856138    0.470930    0.067161
      6          1           0        0.177977    1.491741    0.002589
 ---------------------------------------------------------------------

 SCF Done:  E(RwB97X) =  -169.834966553     A.U. after   16 cycles

 The electronic state is 1-A.
 Alpha  occ. eigenvalues --  -19.17439 -14.44686 -10.37516  -1.14171  -1.03595
 Alpha  occ. eigenvalues --   -0.75716  -0.65748  -0.59887  -0.50992  -0.50296
 Alpha  occ. eigenvalues --   -0.36748  -0.34958
 Alpha virt. eigenvalues --    0.12302   0.17091   0.19368   0.27403   0.36622
 Alpha virt. eigenvalues --    0.45799   0.64304   0.64662   0.74943   0.77603
 Alpha virt. eigenvalues --    0.81920   0.84529   0.95095   0.97832   0.98890

 Mulliken charges:
               1
     1  N   -0.724711
     2  C    0.341847
     3  O   -0.470295
     4  H    0.371948
     5  H    0.339075
     6  H    0.142135
 Sum of Mulliken charges =  -0.00000

 Dipole moment (field-independent basis, Debye):
    X=             -4.1726    Y=              0.9823    Z=              0.2836  Tot=              4.2961
 Quadrupole moment (field-independent basis, Debye-Ang):
   XX=            -17.0306   YY=            -14.7123   ZZ=            -18.4659
   XY=              1.7065   XZ=             -0.5076   YZ=             -0.0745

 Normal termination of Gaussian 16 at Fri Sep 22 16:33:03 2023.
