 Gaussian 16, Revision A.03,
 Gaussian 16:  ES64L-G16RevA.03 25-Dec-2016

 ----------------
 # 6-31g(d) wb97x
 ----------------

 -----------------------
 tmpdir/M2_conf_1_82.gjf
 -----------------------
 Symbolic Z-matrix:
 Charge =  0 Multiplicity = 1

                         Standard orientation:
 ---------------------------------------------------------------------
 Center     Atomic      Atomic             Coordinates (Angstroms)
 Number     Number       Type             X           Y           Z
 ---------------------------------------------------------------------
      1          6           0       -0.763815   -0.006343    0.000538
      2          6           0        0.763577   -0.004259   -0.003748
      3          1           0        1.106268    0.810339   -0.652147
      4          1           0       -1.147890    0.999634    0.192639
      5          1           0       -1.166552   -0.669528    0.774055
      6          1           0       -1.158466   -0.332627   -0.966680
      7          1           0        1.221285   -0.959289   -0.330489
      8          1           0        1.146782    0.215084    1.001886
 ---------------------------------------------------------------------

 SCF Done:  E(RwB97X) =  -79.8005945895     A.U. after   12 cycles

 The electronic state is 1-A.
 Alpha  occ. eigenvalues --  -10.25634 -10.25447  -0.87894  -0.73353  -0.54280
 Alpha  occ. eigenvalues --   -0.54015  -0.46649  -0.44186  -0.43932
 Alpha virt. eigenvalues --    0.19954   0.25318   0.25831   0.25921   0.29030
 Alpha virt. eigenvalues --    0.29468   0.33962   0.61739   0.64823   0.65180
 Alpha virt. eigenvalues --    0.73882   0.75442   0.78884   0.99895   0.99991

 Mulliken charges:
               1
     1  C   -0.468568
     2  C   -0.467955
     3  H    0.155896
     4  H    0.156855
     5  H    0.156111
     6  H    0.156800
     7  H    0.155787
     8  H    0.155074
 Sum of Mulliken charges =   0.00000

 Dipole moment (field-independent basis, Debye):
    X=             -0.0089    Y=              0.0350    Z=              0.0091  Tot=              0.0372
 Quadrupole moment (field-independent basis, Debye-Ang):
   XX=            -15.2901   YY=            -14.6332   ZZ=            -14.7392
   XY=             -0.0758   XZ=              0.0167   YZ=             -0.0022

 Normal termination of Gaussian 16 at Fri Sep 22 16:32:02 2023.
