 Gaussian 16, Revision A.03,
 Gaussian 16:  ES64L-G16RevA.03 25-Dec-2016

 ----------------
 # 6-31g(d) wb97x
 ----------------

 -----------------------
 tmpdir/M2_conf_2_33.gjf
 -----------------------
 Symbolic Z-matrix:
 Charge =  1 Multiplicity = 1

                         Standard orientation:
 ---------------------------------------------------------------------
 Center     Atomic      Atomic             Coordinates (Angstroms)
 Number     Number       Type             X           Y           Z
 ---------------------------------------------------------------------
      1          6           0        0.793594   -0.002532   -0.000599
      2          7           0       -0.712103    0.000250   -0.001449
      3          1           0       -1.058711   -0.414927   -0.869678
      4          1           0        1.115886   -1.037088   -0.218573
      5          1           0        1.200987    0.714283   -0.740477
      6          1           0        1.088862    0.309286    1.007661
      7          1           0       -1.058206    1.016439    0.068732
      8          1           0       -1.065659   -0.574549    0.766072
 ---------------------------------------------------------------------

 SCF Done:  E(RwB97X) =  -96.1812109515     A.U. after   12 cycles

 The electronic state is 1-A.
 Alpha  occ. eigenvalues --  -14.76722 -10.53539  -1.35186  -1.05566  -0.92271
 Alpha  occ. eigenvalues --   -0.91836  -0.80994  -0.73025  -0.72661
 Alpha virt. eigenvalues --   -0.08835  -0.01764  -0.00412   0.01716   0.05120
 Alpha virt. eigenvalues --    0.06196   0.06359   0.40118   0.41880   0.42789
 Alpha virt. eigenvalues --    0.55247   0.56679   0.58260   0.69285   0.72528

 Mulliken charges:
               1
     1  C   -0.422792
     2  N   -0.747168
     3  H    0.452284
     4  H    0.266227
     5  H    0.273042
     6  H    0.265131
     7  H    0.457924
     8  H    0.455351
 Sum of Mulliken charges =   1.00000

 Dipole moment (field-independent basis, Debye):
    X=             -2.2438    Y=              0.0663    Z=             -0.0433  Tot=              2.2452
 Quadrupole moment (field-independent basis, Debye-Ang):
   XX=             -7.3511   YY=             -9.7369   ZZ=            -10.2874
   XY=              0.0535   XZ=             -0.0687   YZ=             -0.0245

 Normal termination of Gaussian 16 at Fri Sep 22 16:32:27 2023.
