 Gaussian 16, Revision A.03,
 Gaussian 16:  ES64L-G16RevA.03 25-Dec-2016

 ----------------
 # 6-31g(d) wb97x
 ----------------

 -----------------------
 tmpdir/M2_conf_2_27.gjf
 -----------------------
 Symbolic Z-matrix:
 Charge =  1 Multiplicity = 1

                         Standard orientation:
 ---------------------------------------------------------------------
 Center     Atomic      Atomic             Coordinates (Angstroms)
 Number     Number       Type             X           Y           Z
 ---------------------------------------------------------------------
      1          7           0       -0.711619    0.000047   -0.002082
      2          6           0        0.794078   -0.002398   -0.000132
      3          1           0        1.077854    0.318776    1.008487
      4          1           0       -1.057988    1.016711    0.059390
      5          1           0       -1.055995   -0.422660   -0.867558
      6          1           0       -1.065602   -0.568566    0.769839
      7          1           0        1.116747   -1.038656   -0.209251
      8          1           0        1.201848    0.708457   -0.745539
 ---------------------------------------------------------------------

 SCF Done:  E(RwB97X) =  -96.1810708002     A.U. after   12 cycles

 The electronic state is 1-A.
 Alpha  occ. eigenvalues --  -14.76707 -10.53549  -1.35189  -1.05568  -0.92276
 Alpha  occ. eigenvalues --   -0.91850  -0.80940  -0.73054  -0.72689
 Alpha virt. eigenvalues --   -0.08846  -0.01766  -0.00407   0.01727   0.05075
 Alpha virt. eigenvalues --    0.06182   0.06356   0.40114   0.41949   0.42801
 Alpha virt. eigenvalues --    0.55102   0.56679   0.58271   0.69276   0.72529

 Mulliken charges:
               1
     1  N   -0.747297
     2  C   -0.421789
     3  H    0.264269
     4  H    0.457907
     5  H    0.452093
     6  H    0.455321
     7  H    0.266333
     8  H    0.273164
 Sum of Mulliken charges =   1.00000

 Dipole moment (field-independent basis, Debye):
    X=             -2.2436    Y=              0.0641    Z=             -0.0493  Tot=              2.2451
 Quadrupole moment (field-independent basis, Debye-Ang):
   XX=             -7.3825   YY=             -9.7341   ZZ=            -10.2778
   XY=              0.0468   XZ=             -0.0874   YZ=             -0.0264

 Normal termination of Gaussian 16 at Fri Sep 22 16:32:27 2023.
