 Gaussian 16, Revision A.03,
 Gaussian 16:  ES64L-G16RevA.03 25-Dec-2016

 ----------------
 # 6-31g(d) wb97x
 ----------------

 -----------------------
 tmpdir/M2_conf_0_18.gjf
 -----------------------
 Symbolic Z-matrix:
 Charge =  0 Multiplicity = 1

                         Standard orientation:
 ---------------------------------------------------------------------
 Center     Atomic      Atomic             Coordinates (Angstroms)
 Number     Number       Type             X           Y           Z
 ---------------------------------------------------------------------
      1          6           0       -0.767764    0.017911    0.000284
      2          6           0        0.759008    0.010231    0.005421
      3          1           0        1.151717   -0.437667   -0.920406
      4          1           0       -1.118493   -1.019895   -0.447608
      5          1           0       -1.167891    0.868587   -0.585776
      6          1           0       -1.175680    0.053830    1.016798
      7          1           0        1.208716    0.993105    0.098905
      8          1           0        1.154165   -0.626812    0.803857
 ---------------------------------------------------------------------

 SCF Done:  E(RwB97X) =  -79.7948371693     A.U. after   12 cycles

 The electronic state is 1-A.
 Alpha  occ. eigenvalues --  -10.26608 -10.25398  -0.87702  -0.73043  -0.54386
 Alpha  occ. eigenvalues --   -0.53517  -0.46712  -0.44347  -0.43090
 Alpha virt. eigenvalues --    0.19360   0.23655   0.24927   0.25275   0.29713
 Alpha virt. eigenvalues --    0.30786   0.34003   0.61815   0.64619   0.65883
 Alpha virt. eigenvalues --    0.75014   0.76533   0.78870   0.96243   0.99438

 Mulliken charges:
               1
     1  C   -0.458221
     2  C   -0.470149
     3  H    0.155430
     4  H    0.135081
     5  H    0.159602
     6  H    0.161357
     7  H    0.160367
     8  H    0.156534
 Sum of Mulliken charges =   0.00000

 Dipole moment (field-independent basis, Debye):
    X=              0.0622    Y=              0.0179    Z=              0.0379  Tot=              0.0750
 Quadrupole moment (field-independent basis, Debye-Ang):
   XX=            -15.3725   YY=            -14.5920   ZZ=            -14.8771
   XY=             -0.0847   XZ=             -0.0928   YZ=             -0.0819

 Normal termination of Gaussian 16 at Fri Sep 22 16:30:15 2023.
