 Gaussian 16, Revision A.03,
 Gaussian 16:  ES64L-G16RevA.03 25-Dec-2016

 ----------------
 # 6-31g(d) wb97x
 ----------------

 -----------------------
 tmpdir/M2_conf_1_32.gjf
 -----------------------
 Symbolic Z-matrix:
 Charge =  1 Multiplicity = 1

                         Standard orientation:
 ---------------------------------------------------------------------
 Center     Atomic      Atomic             Coordinates (Angstroms)
 Number     Number       Type             X           Y           Z
 ---------------------------------------------------------------------
      1          6           0        0.796222    0.000655   -0.000319
      2          7           0       -0.709477   -0.000678   -0.001528
      3          1           0       -1.109762    0.994741    0.077500
      4          1           0        1.121400   -1.030711   -0.228880
      5          1           0        1.201818    0.726325   -0.732523
      6          1           0        1.090402    0.302852    1.011177
      7          1           0       -1.053225   -0.408041   -0.874577
      8          1           0       -1.061631   -0.584351    0.759917
 ---------------------------------------------------------------------

 SCF Done:  E(RwB97X) =  -96.1817775948     A.U. after   12 cycles

 The electronic state is 1-A.
 Alpha  occ. eigenvalues --  -14.76718 -10.53558  -1.35157  -1.05671  -0.92199
 Alpha  occ. eigenvalues --   -0.91544  -0.81158  -0.73038  -0.72636
 Alpha virt. eigenvalues --   -0.08756  -0.01834  -0.00388   0.01712   0.05154
 Alpha virt. eigenvalues --    0.06230   0.06453   0.40156   0.41952   0.42318
 Alpha virt. eigenvalues --    0.55424   0.56987   0.58586   0.69403   0.72544

 Mulliken charges:
               1
     1  C   -0.418744
     2  N   -0.749635
     3  H    0.457338
     4  H    0.266448
     5  H    0.273427
     6  H    0.265298
     7  H    0.451440
     8  H    0.454428
 Sum of Mulliken charges =   1.00000

 Dipole moment (field-independent basis, Debye):
    X=             -2.2882    Y=              0.0416    Z=             -0.0458  Tot=              2.2890
 Quadrupole moment (field-independent basis, Debye-Ang):
   XX=             -7.1518   YY=             -9.8294   ZZ=            -10.2895
   XY=             -0.0335   XZ=             -0.0773   YZ=             -0.0253

 Normal termination of Gaussian 16 at Fri Sep 22 16:31:28 2023.
