 Gaussian 16, Revision A.03,
 Gaussian 16:  ES64L-G16RevA.03 25-Dec-2016

 ----------------
 # 6-31g(d) wb97x
 ----------------

 ------------------------
 tmpdir/M2_conf_1_102.gjf
 ------------------------
 Symbolic Z-matrix:
 Charge =  0 Multiplicity = 1

                         Standard orientation:
 ---------------------------------------------------------------------
 Center     Atomic      Atomic             Coordinates (Angstroms)
 Number     Number       Type             X           Y           Z
 ---------------------------------------------------------------------
      1          6           0       -1.267999   -0.264078   -0.003714
      2          6           0       -0.006156    0.593599    0.010681
      3          6           0        1.262812   -0.254496   -0.007811
      4          1           0       -1.236858   -0.914274    0.975818
      5          1           0       -2.196261    0.334080   -0.097836
      6          1           0       -1.214215   -0.952592   -0.868104
      7          1           0       -0.024449    1.236109    0.898169
      8          1           0       -0.041313    1.255970   -0.863190
      9          1           0        2.156602    0.369987   -0.103207
     10          1           0        1.258866   -0.951877   -0.857581
     11          1           0        1.365680   -0.827553    0.920996
 ---------------------------------------------------------------------

 SCF Done:  E(RwB97X) =  -119.100566575     A.U. after   12 cycles

 The electronic state is 1-A.
 Alpha  occ. eigenvalues --  -10.26310 -10.26063 -10.25405  -0.90861  -0.79891
 Alpha  occ. eigenvalues --   -0.69760  -0.56695  -0.54524  -0.49595  -0.47821
 Alpha  occ. eigenvalues --   -0.43723  -0.43085  -0.42065
 Alpha virt. eigenvalues --    0.18380   0.23433   0.24222   0.24635   0.26663
 Alpha virt. eigenvalues --    0.28245   0.29509   0.29650   0.32358   0.36395
 Alpha virt. eigenvalues --    0.62040   0.62440   0.65778   0.66516   0.69668

 Mulliken charges:
               1
     1  C   -0.451053
     2  C   -0.275932
     3  C   -0.466595
     4  H    0.131174
     5  H    0.157258
     6  H    0.149334
     7  H    0.148773
     8  H    0.145809
     9  H    0.157225
    10  H    0.151081
    11  H    0.152924
 Sum of Mulliken charges =  -0.00000

 Dipole moment (field-independent basis, Debye):
    X=              0.0658    Y=              0.1108    Z=             -0.0572  Tot=              0.1410
 Quadrupole moment (field-independent basis, Debye-Ang):
   XX=            -22.0001   YY=            -21.7925   ZZ=            -21.2072
   XY=             -0.2819   XZ=              0.2146   YZ=             -0.0001

 Normal termination of Gaussian 16 at Fri Sep 22 16:32:09 2023.
