 Gaussian 16, Revision A.03,
 Gaussian 16:  ES64L-G16RevA.03 25-Dec-2016

 ----------------
 # 6-31g(d) wb97x
 ----------------

 ----------------------
 tmpdir/M2_conf_1_5.gjf
 ----------------------
 Symbolic Z-matrix:
 Charge = -1 Multiplicity = 1

                         Standard orientation:
 ---------------------------------------------------------------------
 Center     Atomic      Atomic             Coordinates (Angstroms)
 Number     Number       Type             X           Y           Z
 ---------------------------------------------------------------------
      1          8           0       -0.617584    1.300518    0.001519
      2          6           0       -0.586742    0.060006   -0.001946
      3          6           0        0.837917   -0.563172   -0.004698
      4          8           0       -1.490553   -0.805655    0.000340
      5          1           0        0.862573   -1.647561    0.017855
      6          8           0        1.811934    0.088456    0.000892
 ---------------------------------------------------------------------

 SCF Done:  E(RwB97X) =  -302.433574185     A.U. after   17 cycles

 The electronic state is 1-A.
 Alpha  occ. eigenvalues --  -19.04074 -18.94134 -18.93857 -10.16072 -10.14089
 Alpha  occ. eigenvalues --   -1.01613  -0.93245  -0.84865  -0.57075  -0.44823
 Alpha  occ. eigenvalues --   -0.38651  -0.34833  -0.34309  -0.29228  -0.27465
 Alpha  occ. eigenvalues --   -0.20950  -0.13357  -0.12532  -0.11163
 Alpha virt. eigenvalues --    0.24386   0.41354   0.42695   0.53551   0.59872
 Alpha virt. eigenvalues --    0.64100   0.72735   0.81346   0.90954   0.91660
 Alpha virt. eigenvalues --    0.97996   1.00096   1.03056   1.07640   1.11792

 Mulliken charges:
               1
     1  O   -0.605582
     2  C    0.443267
     3  C    0.131779
     4  O   -0.631831
     5  H    0.048647
     6  O   -0.386279
 Sum of Mulliken charges =  -1.00000

 Dipole moment (field-independent basis, Debye):
    X=              2.5688    Y=             -1.9257    Z=             -0.0136  Tot=              3.2105
 Quadrupole moment (field-independent basis, Debye-Ang):
   XX=            -41.7682   YY=            -35.5078   ZZ=            -26.8398
   XY=             -2.3357   XZ=              0.0005   YZ=              0.0005

 Normal termination of Gaussian 16 at Fri Sep 22 16:31:39 2023.
