 Gaussian 16, Revision A.03,
 Gaussian 16:  ES64L-G16RevA.03 25-Dec-2016

 ----------------
 # 6-31g(d) wb97x
 ----------------

 -----------------------
 tmpdir/M2_conf_1_94.gjf
 -----------------------
 Symbolic Z-matrix:
 Charge =  0 Multiplicity = 1

                         Standard orientation:
 ---------------------------------------------------------------------
 Center     Atomic      Atomic             Coordinates (Angstroms)
 Number     Number       Type             X           Y           Z
 ---------------------------------------------------------------------
      1          6           0        0.229682    0.459592   -0.003693
      2          6           0       -1.151190   -0.148400    0.000446
      3          1           0       -1.259896   -0.823522   -0.852346
      4          1           0        0.272176    1.512967    0.008329
      5          8           0        1.216325   -0.298733   -0.000268
      6          1           0       -1.259499   -0.758064    0.901491
      7          1           0       -1.954331    0.591330   -0.035852
 ---------------------------------------------------------------------

 SCF Done:  E(RwB97X) =  -153.779145696     A.U. after   14 cycles

 The electronic state is 1-A.
 Alpha  occ. eigenvalues --  -19.21638 -10.36566 -10.27615  -1.15338  -0.87939
 Alpha  occ. eigenvalues --   -0.71739  -0.58779  -0.55076  -0.53594  -0.50199
 Alpha  occ. eigenvalues --   -0.45390  -0.35787
 Alpha virt. eigenvalues --    0.06154   0.21028   0.22449   0.27188   0.27374
 Alpha virt. eigenvalues --    0.33665   0.37413   0.63144   0.64114   0.68347
 Alpha virt. eigenvalues --    0.70786   0.75406   0.82468   0.88640   0.96314

 Mulliken charges:
               1
     1  C    0.224077
     2  C   -0.555486
     3  H    0.204796
     4  H    0.153542
     5  O   -0.395949
     6  H    0.204831
     7  H    0.164189
 Sum of Mulliken charges =  -0.00000

 Dipole moment (field-independent basis, Debye):
    X=             -2.4143    Y=              1.2419    Z=              0.0107  Tot=              2.7150
 Quadrupole moment (field-independent basis, Debye-Ang):
   XX=            -20.8555   YY=            -17.2454   ZZ=            -17.5448
   XY=              1.1766   XZ=              0.0089   YZ=             -0.0060

 Normal termination of Gaussian 16 at Fri Sep 22 16:32:08 2023.
