 Gaussian 16, Revision A.03,
 Gaussian 16:  ES64L-G16RevA.03 25-Dec-2016

 ----------------
 # 6-31g(d) wb97x
 ----------------

 -----------------------
 tmpdir/M2_conf_2_34.gjf
 -----------------------
 Symbolic Z-matrix:
 Charge =  1 Multiplicity = 1

                         Standard orientation:
 ---------------------------------------------------------------------
 Center     Atomic      Atomic             Coordinates (Angstroms)
 Number     Number       Type             X           Y           Z
 ---------------------------------------------------------------------
      1          6           0       -0.796398    0.004209    0.002231
      2          7           0        0.709289   -0.000426   -0.001927
      3          1           0        1.120051    0.502245    0.787429
      4          1           0       -1.117634    1.052715   -0.136040
      5          1           0       -1.206263   -0.654081   -0.788893
      6          1           0       -1.090139   -0.382753    0.984559
      7          1           0        1.054074   -1.019448   -0.009505
      8          1           0        1.053271    0.479050   -0.837449
 ---------------------------------------------------------------------

 SCF Done:  E(RwB97X) =  -96.1812637417     A.U. after   12 cycles

 The electronic state is 1-A.
 Alpha  occ. eigenvalues --  -14.76713 -10.53566  -1.35151  -1.05733  -0.91841
 Alpha  occ. eigenvalues --   -0.91825  -0.81210  -0.72999  -0.72624
 Alpha virt. eigenvalues --   -0.08778  -0.01845  -0.00540   0.01863   0.05169
 Alpha virt. eigenvalues --    0.06234   0.06427   0.40171   0.41470   0.42761
 Alpha virt. eigenvalues --    0.55475   0.56977   0.58797   0.69305   0.72485

 Mulliken charges:
               1
     1  C   -0.418239
     2  N   -0.750248
     3  H    0.455157
     4  H    0.266467
     5  H    0.273421
     6  H    0.265688
     7  H    0.456573
     8  H    0.451180
 Sum of Mulliken charges =   1.00000

 Dipole moment (field-independent basis, Debye):
    X=              2.2887    Y=             -0.0751    Z=             -0.0693  Tot=              2.2910
 Quadrupole moment (field-independent basis, Debye-Ang):
   XX=             -7.1355   YY=             -9.7767   ZZ=            -10.3548
   XY=              0.0960   XZ=              0.1461   YZ=              0.0189

 Normal termination of Gaussian 16 at Fri Sep 22 16:32:32 2023.
