 Gaussian 16, Revision A.03,
 Gaussian 16:  ES64L-G16RevA.03 25-Dec-2016

 ----------------
 # 6-31g(d) wb97x
 ----------------

 -----------------------
 tmpdir/M2_conf_0_10.gjf
 -----------------------
 Symbolic Z-matrix:
 Charge =  0 Multiplicity = 1

                         Standard orientation:
 ---------------------------------------------------------------------
 Center     Atomic      Atomic             Coordinates (Angstroms)
 Number     Number       Type             X           Y           Z
 ---------------------------------------------------------------------
      1          6           0       -1.214749   -0.182361   -0.002696
      2          6           0        0.135836    0.467207   -0.011659
      3          6           0        1.264734   -0.234233    0.006989
      4          1           0       -1.193846   -1.274353   -0.172409
      5          1           0       -1.846495    0.325916   -0.738917
      6          1           0       -1.682776    0.038677    0.968940
      7          1           0        0.120872    1.592786   -0.004168
      8          1           0        1.295130   -1.319374   -0.019922
      9          1           0        2.192187    0.332669    0.010669
 ---------------------------------------------------------------------

 SCF Done:  E(RwB97X) =  -117.863595517     A.U. after   13 cycles

 The electronic state is 1-A.
 Alpha  occ. eigenvalues --  -10.27416 -10.26209 -10.25460  -0.91232  -0.80498
 Alpha  occ. eigenvalues --   -0.66220  -0.57209  -0.52767  -0.51440  -0.46853
 Alpha  occ. eigenvalues --   -0.44049  -0.34717
 Alpha virt. eigenvalues --    0.12305   0.20593   0.22455   0.24764   0.27137
 Alpha virt. eigenvalues --    0.28033   0.29728   0.38129   0.46870   0.60448
 Alpha virt. eigenvalues --    0.63930   0.64627   0.71752   0.73178   0.76922

 Mulliken charges:
               1
     1  C   -0.508736
     2  C   -0.082063
     3  C   -0.364728
     4  H    0.165727
     5  H    0.163594
     6  H    0.168156
     7  H    0.150409
     8  H    0.156685
     9  H    0.150955
 Sum of Mulliken charges =   0.00000

 Dipole moment (field-independent basis, Debye):
    X=             -0.3548    Y=              0.1161    Z=              0.0219  Tot=              0.3740
 Quadrupole moment (field-independent basis, Debye-Ang):
   XX=            -19.2989   YY=            -18.2502   ZZ=            -21.4786
   XY=             -0.2628   XZ=             -0.0448   YZ=              0.0556

 Normal termination of Gaussian 16 at Fri Sep 22 16:30:26 2023.
