 Gaussian 16, Revision A.03,
 Gaussian 16:  ES64L-G16RevA.03 25-Dec-2016

 ----------------
 # 6-31g(d) wb97x
 ----------------

 -----------------------
 tmpdir/M2_conf_0_35.gjf
 -----------------------
 Symbolic Z-matrix:
 Charge =  1 Multiplicity = 1

                         Standard orientation:
 ---------------------------------------------------------------------
 Center     Atomic      Atomic             Coordinates (Angstroms)
 Number     Number       Type             X           Y           Z
 ---------------------------------------------------------------------
      1          1           0        1.029818    0.062558   -0.289333
      2          7           0       -0.005068   -0.001153   -0.002457
      3          1           0       -0.050632   -0.528823    0.872651
      4          1           0       -0.381900    0.974082    0.133423
      5          1           0       -0.561811   -0.499745   -0.699544
 ---------------------------------------------------------------------

 SCF Done:  E(RwB97X) =  -56.8735392711     A.U. after   10 cycles

 The electronic state is 1-A.
 Alpha  occ. eigenvalues --  -14.79090  -1.36608  -0.93390  -0.93142  -0.91783
 Alpha virt. eigenvalues --   -0.10731  -0.03544  -0.01993  -0.01400   0.44518
 Alpha virt. eigenvalues --    0.46236   0.46706   0.66730   0.68198   0.69932
 Alpha virt. eigenvalues --    0.71699   1.09632   1.36009   1.36794   2.04546

 Mulliken charges:
               1
     1  H    0.474126
     2  N   -0.886270
     3  H    0.468019
     4  H    0.473538
     5  H    0.470588
 Sum of Mulliken charges =   1.00000

 Dipole moment (field-independent basis, Debye):
    X=              0.0773    Y=              0.0288    Z=              0.0245  Tot=              0.0861
 Quadrupole moment (field-independent basis, Debye-Ang):
   XX=             -4.1465   YY=             -4.2367   ZZ=             -4.5636
   XY=              0.0057   XZ=              0.0140   YZ=              0.0031

 Normal termination of Gaussian 16 at Fri Sep 22 16:30:23 2023.
