 Gaussian 16, Revision A.03,
 Gaussian 16:  ES64L-G16RevA.03 25-Dec-2016

 ----------------
 # 6-31g(d) wb97x
 ----------------

 -----------------------
 tmpdir/M2_conf_1_55.gjf
 -----------------------
 Symbolic Z-matrix:
 Charge =  0 Multiplicity = 1

                         Standard orientation:
 ---------------------------------------------------------------------
 Center     Atomic      Atomic             Coordinates (Angstroms)
 Number     Number       Type             X           Y           Z
 ---------------------------------------------------------------------
      1          6           0        1.421152   -0.532017    0.049616
      2          6           0        0.530517    0.726795   -0.103418
      3          6           0       -0.924126    0.418902    0.095378
      4          1           0        1.008963   -1.337454   -0.589599
      5          1           0        2.495395   -0.163355   -0.165871
      6          1           0        1.357373   -0.843678    1.102613
      7          1           0        0.967875    1.498346    0.657380
      8          1           0        0.704201    1.122424   -1.121746
      9          8           0       -1.385645   -0.646775   -0.061681
     10          1           0       -1.613909    1.215839    0.361212
 ---------------------------------------------------------------------

 SCF Done:  E(RwB97X) =  -193.076325124     A.U. after   15 cycles

 The electronic state is 1-A.
 Alpha  occ. eigenvalues --  -19.21601 -10.35557 -10.28803 -10.27321  -1.19525
 Alpha  occ. eigenvalues --   -0.90827  -0.77988  -0.67539  -0.61016  -0.57484
 Alpha  occ. eigenvalues --   -0.55051  -0.50265  -0.47817  -0.45589  -0.44717
 Alpha  occ. eigenvalues --   -0.35401
 Alpha virt. eigenvalues --    0.08284   0.17929   0.22813   0.24119   0.24828
 Alpha virt. eigenvalues --    0.26787   0.28029   0.30198   0.38769   0.39669
 Alpha virt. eigenvalues --    0.62327   0.63160   0.67198   0.68299   0.69383

 Mulliken charges:
               1
     1  C   -0.458195
     2  C   -0.390146
     3  C    0.243987
     4  H    0.185729
     5  H    0.147463
     6  H    0.165131
     7  H    0.154256
     8  H    0.187827
     9  O   -0.357210
    10  H    0.121158
 Sum of Mulliken charges =  -0.00000

 Dipole moment (field-independent basis, Debye):
    X=              1.2843    Y=              1.9613    Z=              0.1517  Tot=              2.3493
 Quadrupole moment (field-independent basis, Debye-Ang):
   XX=            -26.8492   YY=            -25.5298   ZZ=            -23.9262
   XY=             -1.8978   XZ=             -0.2775   YZ=             -0.0948

 Normal termination of Gaussian 16 at Fri Sep 22 16:31:51 2023.
