 Gaussian 16, Revision A.03,
 Gaussian 16:  ES64L-G16RevA.03 25-Dec-2016

 ----------------
 # 6-31g(d) wb97x
 ----------------

 ------------------------
 tmpdir/M2_conf_0_100.gjf
 ------------------------
 Symbolic Z-matrix:
 Charge =  0 Multiplicity = 1

                         Standard orientation:
 ---------------------------------------------------------------------
 Center     Atomic      Atomic             Coordinates (Angstroms)
 Number     Number       Type             X           Y           Z
 ---------------------------------------------------------------------
      1          6           0       -0.004300   -0.008779   -0.003565
      2          1           0        0.033813    0.889882   -0.634864
      3          1           0        0.824750   -0.680751   -0.288262
      4          1           0       -1.002536   -0.475725   -0.084249
      5          1           0        0.169772    0.319267    1.028768
 ---------------------------------------------------------------------

 SCF Done:  E(RwB97X) =  -40.4988148331     A.U. after   11 cycles

 The electronic state is 1-A.
 Alpha  occ. eigenvalues --  -10.25243  -0.81542  -0.49990  -0.49083  -0.48947
 Alpha virt. eigenvalues --    0.21418   0.27111   0.27271   0.27491   0.63925
 Alpha virt. eigenvalues --    0.64091   0.64913   1.00686   1.01095   1.01691
 Alpha virt. eigenvalues --    1.06181   1.20643   1.75854   1.76076   2.32546

 Mulliken charges:
               1
     1  C   -0.664424
     2  H    0.165368
     3  H    0.166248
     4  H    0.167324
     5  H    0.165484
 Sum of Mulliken charges =  -0.00000

 Dipole moment (field-independent basis, Debye):
    X=              0.0168    Y=              0.0393    Z=              0.0176  Tot=              0.0462
 Quadrupole moment (field-independent basis, Debye-Ang):
   XX=             -8.1209   YY=             -8.3234   ZZ=             -8.3762
   XY=              0.0038   XZ=              0.0006   YZ=              0.0021

 Normal termination of Gaussian 16 at Fri Sep 22 16:30:59 2023.
