 Gaussian 16, Revision A.03,
 Gaussian 16:  ES64L-G16RevA.03 25-Dec-2016

 ----------------
 # 6-31g(d) wb97x
 ----------------

 -----------------------
 tmpdir/M2_conf_1_25.gjf
 -----------------------
 Symbolic Z-matrix:
 Charge =  0 Multiplicity = 1

                         Standard orientation:
 ---------------------------------------------------------------------
 Center     Atomic      Atomic             Coordinates (Angstroms)
 Number     Number       Type             X           Y           Z
 ---------------------------------------------------------------------
      1          6           0        0.758593    0.010095    0.003676
      2          6           0       -0.768182    0.018395    0.001107
      3          1           0       -1.151070    0.074195    1.026429
      4          1           0        1.208897    0.994370    0.077452
      5          1           0        1.154897   -0.611813    0.813391
      6          1           0        1.133957   -0.458054   -0.919322
      7          1           0       -1.120165   -1.027589   -0.426319
      8          1           0       -1.168983    0.857950   -0.600330
 ---------------------------------------------------------------------

 SCF Done:  E(RwB97X) =  -79.7947475189     A.U. after   12 cycles

 The electronic state is 1-A.
 Alpha  occ. eigenvalues --  -10.26591 -10.25370  -0.87736  -0.72945  -0.54420
 Alpha  occ. eigenvalues --   -0.53659  -0.46502  -0.44348  -0.43169
 Alpha virt. eigenvalues --    0.19302   0.23665   0.24914   0.25393   0.29641
 Alpha virt. eigenvalues --    0.30819   0.33903   0.61742   0.64809   0.65954
 Alpha virt. eigenvalues --    0.74612   0.76554   0.78907   0.96227   0.99446

 Mulliken charges:
               1
     1  C   -0.469831
     2  C   -0.457653
     3  H    0.160855
     4  H    0.160369
     5  H    0.156393
     6  H    0.154829
     7  H    0.135200
     8  H    0.159839
 Sum of Mulliken charges =  -0.00000

 Dipole moment (field-independent basis, Debye):
    X=              0.0634    Y=              0.0200    Z=              0.0370  Tot=              0.0760
 Quadrupole moment (field-independent basis, Debye-Ang):
   XX=            -15.4513   YY=            -14.5878   ZZ=            -14.8357
   XY=             -0.0747   XZ=             -0.0417   YZ=             -0.0807

 Normal termination of Gaussian 16 at Fri Sep 22 16:31:33 2023.
