 Gaussian 16, Revision A.03,
 Gaussian 16:  ES64L-G16RevA.03 25-Dec-2016

 ----------------
 # 6-31g(d) wb97x
 ----------------

 -----------------------
 tmpdir/M2_conf_2_48.gjf
 -----------------------
 Symbolic Z-matrix:
 Charge =  0 Multiplicity = 1

                         Standard orientation:
 ---------------------------------------------------------------------
 Center     Atomic      Atomic             Coordinates (Angstroms)
 Number     Number       Type             X           Y           Z
 ---------------------------------------------------------------------
      1          7           0        0.014923   -0.025155   -0.016907
      2          1           0       -0.048203    0.995009    0.032316
      3          1           0       -0.932514   -0.424695    0.039842
      4          1           0        0.876257   -0.394227    0.046193
 ---------------------------------------------------------------------

 SCF Done:  E(RwB97X) =  -56.5104779024     A.U. after   12 cycles

 The electronic state is 1-A.
 Alpha  occ. eigenvalues --  -14.36195  -0.95156  -0.60674  -0.54839  -0.32374
 Alpha virt. eigenvalues --    0.19277   0.27400   0.30062   0.77209   0.83735
 Alpha virt. eigenvalues --    0.89386   0.94123   1.03747   1.10732   1.21788
 Alpha virt. eigenvalues --    1.79760   1.82639   2.26509   2.37326   2.56419

 Mulliken charges:
               1
     1  N   -0.986786
     2  H    0.312342
     3  H    0.332398
     4  H    0.342047
 Sum of Mulliken charges =   0.00000

 Dipole moment (field-independent basis, Debye):
    X=             -0.1298    Y=              0.2035    Z=              0.3370  Tot=              0.4145
 Quadrupole moment (field-independent basis, Debye-Ang):
   XX=             -5.0323   YY=             -5.9005   ZZ=             -9.2717
   XY=             -0.0590   XZ=              0.0163   YZ=             -0.0185

 Normal termination of Gaussian 16 at Fri Sep 22 16:32:38 2023.
