 Gaussian 16, Revision A.03,
 Gaussian 16:  ES64L-G16RevA.03 25-Dec-2016

 ----------------
 # 6-31g(d) wb97x
 ----------------

 -----------------------
 tmpdir/M2_conf_0_76.gjf
 -----------------------
 Symbolic Z-matrix:
 Charge =  0 Multiplicity = 1

                         Standard orientation:
 ---------------------------------------------------------------------
 Center     Atomic      Atomic             Coordinates (Angstroms)
 Number     Number       Type             X           Y           Z
 ---------------------------------------------------------------------
      1          6           0        0.746709   -0.005033   -0.002758
      2          6           0       -0.749788   -0.005206    0.000213
      3          1           0        1.203741   -0.994067   -0.205899
      4          1           0        1.116268    0.714754   -0.742186
      5          1           0        1.129276    0.339148    0.967525
      6          1           0       -1.133022    1.017313    0.063441
      7          1           0       -1.153845   -0.565101    0.850854
      8          1           0       -1.143941   -0.450612   -0.918468
 ---------------------------------------------------------------------

 SCF Done:  E(RwB97X) =  -79.8002275258     A.U. after   12 cycles

 The electronic state is 1-A.
 Alpha  occ. eigenvalues --  -10.25395 -10.25238  -0.88488  -0.73171  -0.54517
 Alpha  occ. eigenvalues --   -0.54342  -0.47221  -0.43909  -0.43629
 Alpha virt. eigenvalues --    0.19954   0.25346   0.25661   0.25901   0.29120
 Alpha virt. eigenvalues --    0.29530   0.35029   0.60831   0.65336   0.65445
 Alpha virt. eigenvalues --    0.73837   0.75215   0.80694   0.99339   0.99457

 Mulliken charges:
               1
     1  C   -0.466606
     2  C   -0.465590
     3  H    0.154689
     4  H    0.155203
     5  H    0.154025
     6  H    0.156364
     7  H    0.155817
     8  H    0.156098
 Sum of Mulliken charges =  -0.00000

 Dipole moment (field-independent basis, Debye):
    X=             -0.0060    Y=              0.0356    Z=              0.0058  Tot=              0.0366
 Quadrupole moment (field-independent basis, Debye-Ang):
   XX=            -15.3317   YY=            -14.6264   ZZ=            -14.7274
   XY=             -0.0500   XZ=             -0.0003   YZ=             -0.0044

 Normal termination of Gaussian 16 at Fri Sep 22 16:30:51 2023.
