 Gaussian 16, Revision A.03,
 Gaussian 16:  ES64L-G16RevA.03 25-Dec-2016

 ----------------
 # 6-31g(d) wb97x
 ----------------

 -----------------------
 tmpdir/M2_conf_1_29.gjf
 -----------------------
 Symbolic Z-matrix:
 Charge =  1 Multiplicity = 1

                         Standard orientation:
 ---------------------------------------------------------------------
 Center     Atomic      Atomic             Coordinates (Angstroms)
 Number     Number       Type             X           Y           Z
 ---------------------------------------------------------------------
      1          7           0        0.000867    0.002583   -0.003767
      2          1           0       -0.218180    0.955638   -0.300042
      3          1           0       -0.899063   -0.535364    0.107100
      4          1           0        0.497291    0.032091    0.890109
      5          1           0        0.613886   -0.470444   -0.670798
 ---------------------------------------------------------------------

 SCF Done:  E(RwB97X) =  -56.8752592321     A.U. after   10 cycles

 The electronic state is 1-A.
 Alpha  occ. eigenvalues --  -14.78904  -1.37402  -0.94229  -0.93205  -0.92874
 Alpha virt. eigenvalues --   -0.10248  -0.02618  -0.01723  -0.01263   0.44290
 Alpha virt. eigenvalues --    0.45338   0.46205   0.67984   0.69680   0.70087
 Alpha virt. eigenvalues --    0.72431   1.10267   1.35493   1.35983   2.07324

 Mulliken charges:
               1
     1  N   -0.881853
     2  H    0.470815
     3  H    0.472989
     4  H    0.467973
     5  H    0.470076
 Sum of Mulliken charges =   1.00000

 Dipole moment (field-independent basis, Debye):
    X=             -0.0226    Y=             -0.0372    Z=              0.0452  Tot=              0.0628
 Quadrupole moment (field-independent basis, Debye-Ang):
   XX=             -4.1833   YY=             -4.3177   ZZ=             -4.5259
   XY=             -0.0119   XZ=             -0.0016   YZ=              0.0002

 Normal termination of Gaussian 16 at Fri Sep 22 16:31:31 2023.
