 Gaussian 16, Revision A.03,
 Gaussian 16:  ES64L-G16RevA.03 25-Dec-2016

 ----------------
 # 6-31g(d) wb97x
 ----------------

 ------------------------
 tmpdir/M2_conf_0_119.gjf
 ------------------------
 Symbolic Z-matrix:
 Charge =  0 Multiplicity = 1

                         Standard orientation:
 ---------------------------------------------------------------------
 Center     Atomic      Atomic             Coordinates (Angstroms)
 Number     Number       Type             X           Y           Z
 ---------------------------------------------------------------------
      1          6           0        0.007408   -0.001451   -0.002216
      2          1           0       -0.361229    0.918475   -0.469551
      3          1           0        1.107081   -0.076668   -0.088344
      4          1           0       -0.294288    0.017311    1.048984
      5          1           0       -0.496013   -0.850414   -0.477790
 ---------------------------------------------------------------------

 SCF Done:  E(RwB97X) =  -40.4991302305     A.U. after   11 cycles

 The electronic state is 1-A.
 Alpha  occ. eigenvalues --  -10.25079  -0.81647  -0.49850  -0.49227  -0.49149
 Alpha virt. eigenvalues --    0.21524   0.27370   0.27415   0.27462   0.63879
 Alpha virt. eigenvalues --    0.63975   0.64716   1.01305   1.01457   1.01567
 Alpha virt. eigenvalues --    1.06697   1.20736   1.75848   1.75905   2.33240

 Mulliken charges:
               1
     1  C   -0.665779
     2  H    0.166220
     3  H    0.166633
     4  H    0.166322
     5  H    0.166604
 Sum of Mulliken charges =  -0.00000

 Dipole moment (field-independent basis, Debye):
    X=             -0.0371    Y=              0.0061    Z=              0.0113  Tot=              0.0393
 Quadrupole moment (field-independent basis, Debye-Ang):
   XX=             -8.1406   YY=             -8.3122   ZZ=             -8.3363
   XY=              0.0010   XZ=              0.0000   YZ=              0.0012

 Normal termination of Gaussian 16 at Fri Sep 22 16:31:04 2023.
