 Gaussian 16, Revision A.03,
 Gaussian 16:  ES64L-G16RevA.03 25-Dec-2016

 ----------------
 # 6-31g(d) wb97x
 ----------------

 ------------------------
 tmpdir/M2_conf_1_115.gjf
 ------------------------
 Symbolic Z-matrix:
 Charge =  0 Multiplicity = 1

                         Standard orientation:
 ---------------------------------------------------------------------
 Center     Atomic      Atomic             Coordinates (Angstroms)
 Number     Number       Type             X           Y           Z
 ---------------------------------------------------------------------
      1          1           0        0.472650   -0.484489   -0.858218
      2          6           0       -0.006449   -0.001161   -0.001021
      3          1           0        0.156893    1.080513   -0.071341
      4          1           0       -1.088625   -0.222292    0.030870
      5          1           0        0.497777   -0.366768    0.904815
 ---------------------------------------------------------------------

 SCF Done:  E(RwB97X) =  -40.4991989262     A.U. after   11 cycles

 The electronic state is 1-A.
 Alpha  occ. eigenvalues --  -10.25127  -0.81611  -0.49808  -0.49309  -0.49057
 Alpha virt. eigenvalues --    0.21502   0.27278   0.27345   0.27524   0.63938
 Alpha virt. eigenvalues --    0.64056   0.64666   1.01175   1.01309   1.01691
 Alpha virt. eigenvalues --    1.06428   1.20660   1.75838   1.75974   2.33423

 Mulliken charges:
               1
     1  H    0.166921
     2  C   -0.665187
     3  H    0.166372
     4  H    0.166554
     5  H    0.165341
 Sum of Mulliken charges =  -0.00000

 Dipole moment (field-independent basis, Debye):
    X=              0.0315    Y=              0.0061    Z=             -0.0004  Tot=              0.0320
 Quadrupole moment (field-independent basis, Debye-Ang):
   XX=             -8.1595   YY=             -8.2983   ZZ=             -8.3398
   XY=              0.0001   XZ=             -0.0055   YZ=              0.0047

 Normal termination of Gaussian 16 at Fri Sep 22 16:32:09 2023.
