 Gaussian 16, Revision A.03,
 Gaussian 16:  ES64L-G16RevA.03 25-Dec-2016

 ----------------
 # 6-31g(d) wb97x
 ----------------

 ------------------------
 tmpdir/M2_conf_1_123.gjf
 ------------------------
 Symbolic Z-matrix:
 Charge =  0 Multiplicity = 1

                         Standard orientation:
 ---------------------------------------------------------------------
 Center     Atomic      Atomic             Coordinates (Angstroms)
 Number     Number       Type             X           Y           Z
 ---------------------------------------------------------------------
      1          1           0       -0.299198    0.056419    1.046098
      2          6           0        0.007384   -0.001471   -0.002260
      3          1           0       -0.502360   -0.861596   -0.450235
      4          1           0        1.106659   -0.090288   -0.080044
      5          1           0       -0.349407    0.904293   -0.502257
 ---------------------------------------------------------------------

 SCF Done:  E(RwB97X) =  -40.4991302772     A.U. after   11 cycles

 The electronic state is 1-A.
 Alpha  occ. eigenvalues --  -10.25065  -0.81657  -0.49852  -0.49246  -0.49144
 Alpha virt. eigenvalues --    0.21532   0.27375   0.27440   0.27462   0.63872
 Alpha virt. eigenvalues --    0.63954   0.64716   1.01305   1.01521   1.01570
 Alpha virt. eigenvalues --    1.06753   1.20746   1.75841   1.75899   2.33247

 Mulliken charges:
               1
     1  H    0.166253
     2  C   -0.665926
     3  H    0.166555
     4  H    0.166595
     5  H    0.166522
 Sum of Mulliken charges =  -0.00000

 Dipole moment (field-independent basis, Debye):
    X=             -0.0375    Y=              0.0075    Z=              0.0108  Tot=              0.0397
 Quadrupole moment (field-independent basis, Debye-Ang):
   XX=             -8.1391   YY=             -8.3109   ZZ=             -8.3365
   XY=              0.0001   XZ=              0.0006   YZ=             -0.0002

 Normal termination of Gaussian 16 at Fri Sep 22 16:32:10 2023.
