 Gaussian 16, Revision A.03,
 Gaussian 16:  ES64L-G16RevA.03 25-Dec-2016

 ----------------
 # 6-31g(d) wb97x
 ----------------

 ------------------------
 tmpdir/M2_conf_1_114.gjf
 ------------------------
 Symbolic Z-matrix:
 Charge =  0 Multiplicity = 1

                         Standard orientation:
 ---------------------------------------------------------------------
 Center     Atomic      Atomic             Coordinates (Angstroms)
 Number     Number       Type             X           Y           Z
 ---------------------------------------------------------------------
      1          1           0        0.455991   -0.148972    0.979626
      2          6           0       -0.007736    0.000018   -0.000521
      3          1           0        0.336165    0.970171   -0.386525
      4          1           0       -1.110193   -0.027886    0.069014
      5          1           0        0.364453   -0.793424   -0.658988
 ---------------------------------------------------------------------

 SCF Done:  E(RwB97X) =  -40.4991202684     A.U. after   11 cycles

 The electronic state is 1-A.
 Alpha  occ. eigenvalues --  -10.25127  -0.81614  -0.49847  -0.49300  -0.49023
 Alpha virt. eigenvalues --    0.21498   0.27274   0.27393   0.27475   0.63852
 Alpha virt. eigenvalues --    0.64126   0.64688   1.01189   1.01421   1.01502
 Alpha virt. eigenvalues --    1.06500   1.20685   1.75829   1.75982   2.33312

 Mulliken charges:
               1
     1  H    0.166422
     2  C   -0.665286
     3  H    0.165643
     4  H    0.166879
     5  H    0.166341
 Sum of Mulliken charges =  -0.00000

 Dipole moment (field-independent basis, Debye):
    X=              0.0366    Y=             -0.0032    Z=              0.0047  Tot=              0.0370
 Quadrupole moment (field-independent basis, Debye-Ang):
   XX=             -8.1482   YY=             -8.2932   ZZ=             -8.3566
   XY=             -0.0021   XZ=              0.0012   YZ=              0.0021

 Normal termination of Gaussian 16 at Fri Sep 22 16:32:06 2023.
