 Gaussian 16, Revision A.03,
 Gaussian 16:  ES64L-G16RevA.03 25-Dec-2016

 ----------------
 # 6-31g(d) wb97x
 ----------------

 ------------------------
 tmpdir/M2_conf_2_105.gjf
 ------------------------
 Symbolic Z-matrix:
 Charge =  0 Multiplicity = 1

                         Standard orientation:
 ---------------------------------------------------------------------
 Center     Atomic      Atomic             Coordinates (Angstroms)
 Number     Number       Type             X           Y           Z
 ---------------------------------------------------------------------
      1          6           0        0.762763    0.004619   -0.003870
      2          6           0       -0.763633    0.001081   -0.003286
      3          1           0       -1.122695   -0.999880   -0.267723
      4          1           0        1.161826   -0.662716    0.766416
      5          1           0        1.154998    1.011131    0.199980
      6          1           0        1.155856   -0.340861   -0.967085
      7          1           0       -1.209738    0.738293   -0.694248
      8          1           0       -1.135025    0.219834    1.005597
 ---------------------------------------------------------------------

 SCF Done:  E(RwB97X) =  -79.8009426475     A.U. after   12 cycles

 The electronic state is 1-A.
 Alpha  occ. eigenvalues --  -10.25579 -10.25497  -0.87908  -0.73332  -0.54262
 Alpha  occ. eigenvalues --   -0.54056  -0.46661  -0.44121  -0.43992
 Alpha virt. eigenvalues --    0.19946   0.25412   0.25916   0.26157   0.28841
 Alpha virt. eigenvalues --    0.29133   0.33972   0.61711   0.64790   0.65304
 Alpha virt. eigenvalues --    0.73868   0.75172   0.78920   0.99945   1.00048

 Mulliken charges:
               1
     1  C   -0.468141
     2  C   -0.467365
     3  H    0.155765
     4  H    0.156809
     5  H    0.155216
     6  H    0.156096
     7  H    0.156338
     8  H    0.155282
 Sum of Mulliken charges =   0.00000

 Dipole moment (field-independent basis, Debye):
    X=              0.0043    Y=             -0.0225    Z=              0.0238  Tot=              0.0330
 Quadrupole moment (field-independent basis, Debye-Ang):
   XX=            -15.3038   YY=            -14.6550   ZZ=            -14.7123
   XY=             -0.0758   XZ=              0.0491   YZ=             -0.0032

 Normal termination of Gaussian 16 at Fri Sep 22 16:33:10 2023.
