 Gaussian 16, Revision A.03,
 Gaussian 16:  ES64L-G16RevA.03 25-Dec-2016

 ----------------
 # 6-31g(d) wb97x
 ----------------

 ------------------------
 tmpdir/M2_conf_0_110.gjf
 ------------------------
 Symbolic Z-matrix:
 Charge =  0 Multiplicity = 1

                         Standard orientation:
 ---------------------------------------------------------------------
 Center     Atomic      Atomic             Coordinates (Angstroms)
 Number     Number       Type             X           Y           Z
 ---------------------------------------------------------------------
      1          6           0       -0.007934    0.000116   -0.001028
      2          1           0        0.320213   -0.825694   -0.638630
      3          1           0       -1.109761    0.024699    0.079032
      4          1           0        0.458334   -0.142746    0.978832
      5          1           0        0.378815    0.943043   -0.413067
 ---------------------------------------------------------------------

 SCF Done:  E(RwB97X) =  -40.4990996960     A.U. after   11 cycles

 The electronic state is 1-A.
 Alpha  occ. eigenvalues --  -10.25099  -0.81634  -0.49860  -0.49348  -0.48994
 Alpha virt. eigenvalues --    0.21513   0.27268   0.27453   0.27479   0.63817
 Alpha virt. eigenvalues --    0.64099   0.64698   1.01174   1.01486   1.01571
 Alpha virt. eigenvalues --    1.06619   1.20708   1.75812   1.75980   2.33297

 Mulliken charges:
               1
     1  C   -0.665587
     2  H    0.166955
     3  H    0.166857
     4  H    0.166215
     5  H    0.165560
 Sum of Mulliken charges =  -0.00000

 Dipole moment (field-independent basis, Debye):
    X=              0.0379    Y=             -0.0058    Z=              0.0051  Tot=              0.0387
 Quadrupole moment (field-independent basis, Debye-Ang):
   XX=             -8.1432   YY=             -8.2891   ZZ=             -8.3608
   XY=             -0.0038   XZ=             -0.0002   YZ=              0.0055

 Normal termination of Gaussian 16 at Fri Sep 22 16:31:01 2023.
