 Gaussian 16, Revision A.03,
 Gaussian 16:  ES64L-G16RevA.03 25-Dec-2016

 ----------------
 # 6-31g(d) wb97x
 ----------------

 -----------------------
 tmpdir/M2_conf_0_16.gjf
 -----------------------
 Symbolic Z-matrix:
 Charge =  0 Multiplicity = 1

                         Standard orientation:
 ---------------------------------------------------------------------
 Center     Atomic      Atomic             Coordinates (Angstroms)
 Number     Number       Type             X           Y           Z
 ---------------------------------------------------------------------
      1          6           0        0.248798    0.401093   -0.010109
      2          6           0       -1.144328   -0.151414   -0.003926
      3          1           0       -1.585277    0.103249    0.972136
      4          1           0        0.313435    1.524867    0.002447
      5          8           0        1.198009   -0.286048    0.003267
      6          1           0       -1.200644   -1.241348   -0.178729
      7          1           0       -1.738405    0.403546   -0.737786
 ---------------------------------------------------------------------

 SCF Done:  E(RwB97X) =  -153.782232071     A.U. after   14 cycles

 The electronic state is 1-A.
 Alpha  occ. eigenvalues --  -19.21542 -10.36181 -10.27707  -1.19316  -0.88054
 Alpha  occ. eigenvalues --   -0.69531  -0.59335  -0.55776  -0.54806  -0.50481
 Alpha  occ. eigenvalues --   -0.47264  -0.35395
 Alpha virt. eigenvalues --    0.08912   0.20489   0.22279   0.25230   0.25805
 Alpha virt. eigenvalues --    0.35390   0.38510   0.63031   0.65500   0.69200
 Alpha virt. eigenvalues --    0.70437   0.79124   0.85352   0.87277   0.95064

 Mulliken charges:
               1
     1  C    0.247136
     2  C   -0.559727
     3  H    0.185622
     4  H    0.108974
     5  O   -0.354143
     6  H    0.196562
     7  H    0.175576
 Sum of Mulliken charges =   0.00000

 Dipole moment (field-independent basis, Debye):
    X=             -2.2694    Y=              1.1021    Z=              0.0408  Tot=              2.5232
 Quadrupole moment (field-independent basis, Debye-Ang):
   XX=            -20.5930   YY=            -17.6200   ZZ=            -17.6238
   XY=              0.9059   XZ=             -0.0937   YZ=              0.0404

 Normal termination of Gaussian 16 at Fri Sep 22 16:30:22 2023.
