 Gaussian 16, Revision A.03,
 Gaussian 16:  ES64L-G16RevA.03 25-Dec-2016

 ----------------
 # 6-31g(d) wb97x
 ----------------

 -----------------------
 tmpdir/M2_conf_2_39.gjf
 -----------------------
 Symbolic Z-matrix:
 Charge =  0 Multiplicity = 1

                         Standard orientation:
 ---------------------------------------------------------------------
 Center     Atomic      Atomic             Coordinates (Angstroms)
 Number     Number       Type             X           Y           Z
 ---------------------------------------------------------------------
      1          6           0        0.768858   -0.009362   -0.010678
      2          6           0       -0.763408   -0.018551    0.007382
      3          1           0        1.123473   -0.955619   -0.464625
      4          1           0        1.053464    0.983090   -0.530658
      5          1           0        1.101504    0.030919    1.037049
      6          1           0       -1.149712   -0.933587    0.446301
      7          1           0       -1.062882    0.958778    0.573548
      8          1           0       -1.098547    0.083897   -1.041842
 ---------------------------------------------------------------------

 SCF Done:  E(RwB97X) =  -79.7894796171     A.U. after   12 cycles

 The electronic state is 1-A.
 Alpha  occ. eigenvalues --  -10.26280 -10.26177  -0.87884  -0.71892  -0.55273
 Alpha  occ. eigenvalues --   -0.53974  -0.44936  -0.44505  -0.43162
 Alpha virt. eigenvalues --    0.18429   0.24840   0.25676   0.26118   0.27131
 Alpha virt. eigenvalues --    0.28634   0.32554   0.61280   0.66240   0.68531
 Alpha virt. eigenvalues --    0.72012   0.74523   0.78236   0.95185   0.98251

 Mulliken charges:
               1
     1  C   -0.454720
     2  C   -0.456166
     3  H    0.156676
     4  H    0.144708
     5  H    0.156148
     6  H    0.161908
     7  H    0.136955
     8  H    0.154491
 Sum of Mulliken charges =   0.00000

 Dipole moment (field-independent basis, Debye):
    X=             -0.0072    Y=             -0.0575    Z=              0.0129  Tot=              0.0594
 Quadrupole moment (field-independent basis, Debye-Ang):
   XX=            -16.2062   YY=            -14.2910   ZZ=            -14.8641
   XY=              0.0526   XZ=              0.1267   YZ=             -0.0486

 Normal termination of Gaussian 16 at Fri Sep 22 16:32:40 2023.
