 Gaussian 16, Revision A.03,
 Gaussian 16:  ES64L-G16RevA.03 25-Dec-2016

 ----------------
 # 6-31g(d) wb97x
 ----------------

 -----------------------
 tmpdir/M2_conf_0_97.gjf
 -----------------------
 Symbolic Z-matrix:
 Charge =  0 Multiplicity = 1

                         Standard orientation:
 ---------------------------------------------------------------------
 Center     Atomic      Atomic             Coordinates (Angstroms)
 Number     Number       Type             X           Y           Z
 ---------------------------------------------------------------------
      1          1           0        0.139085    1.043687   -0.276044
      2          6           0       -0.003535   -0.006222   -0.006497
      3          1           0       -0.989340   -0.342936   -0.335681
      4          1           0        0.816836   -0.588201   -0.432162
      5          1           0        0.054631   -0.075221    1.082871
 ---------------------------------------------------------------------

 SCF Done:  E(RwB97X) =  -40.4991937655     A.U. after   11 cycles

 The electronic state is 1-A.
 Alpha  occ. eigenvalues --  -10.24864  -0.81792  -0.50160  -0.49212  -0.49119
 Alpha virt. eigenvalues --    0.21660   0.27385   0.27475   0.27847   0.63804
 Alpha virt. eigenvalues --    0.63891   0.64450   1.01432   1.01585   1.02588
 Alpha virt. eigenvalues --    1.07241   1.20876   1.75671   1.75934   2.34365

 Mulliken charges:
               1
     1  H    0.165722
     2  C   -0.667998
     3  H    0.168847
     4  H    0.168005
     5  H    0.165424
 Sum of Mulliken charges =   0.00000

 Dipole moment (field-independent basis, Debye):
    X=              0.0130    Y=              0.0225    Z=              0.0243  Tot=              0.0356
 Quadrupole moment (field-independent basis, Debye-Ang):
   XX=             -8.1186   YY=             -8.3055   ZZ=             -8.3263
   XY=              0.0001   XZ=              0.0018   YZ=              0.0075

 Normal termination of Gaussian 16 at Fri Sep 22 16:30:56 2023.
