 Gaussian 16, Revision A.03,
 Gaussian 16:  ES64L-G16RevA.03 25-Dec-2016

 ----------------
 # 6-31g(d) wb97x
 ----------------

 -----------------------
 tmpdir/M2_conf_2_29.gjf
 -----------------------
 Symbolic Z-matrix:
 Charge =  1 Multiplicity = 1

                         Standard orientation:
 ---------------------------------------------------------------------
 Center     Atomic      Atomic             Coordinates (Angstroms)
 Number     Number       Type             X           Y           Z
 ---------------------------------------------------------------------
      1          7           0        0.000804    0.001731   -0.003252
      2          1           0       -0.418447    0.925447   -0.220453
      3          1           0       -0.770209   -0.713370    0.072391
      4          1           0        0.505474    0.059862    0.884582
      5          1           0        0.677555   -0.284055   -0.713753
 ---------------------------------------------------------------------

 SCF Done:  E(RwB97X) =  -56.8751846635     A.U. after   10 cycles

 The electronic state is 1-A.
 Alpha  occ. eigenvalues --  -14.78962  -1.37164  -0.93926  -0.93132  -0.92668
 Alpha virt. eigenvalues --   -0.10362  -0.02729  -0.01757  -0.01521   0.44355
 Alpha virt. eigenvalues --    0.45609   0.46314   0.67991   0.69221   0.69782
 Alpha virt. eigenvalues --    0.72068   1.10092   1.35686   1.36170   2.07136

 Mulliken charges:
               1
     1  N   -0.883389
     2  H    0.472412
     3  H    0.472959
     4  H    0.467974
     5  H    0.470044
 Sum of Mulliken charges =   1.00000

 Dipole moment (field-independent basis, Debye):
    X=             -0.0231    Y=             -0.0233    Z=              0.0374  Tot=              0.0498
 Quadrupole moment (field-independent basis, Debye-Ang):
   XX=             -4.1896   YY=             -4.2780   ZZ=             -4.5381
   XY=             -0.0098   XZ=             -0.0035   YZ=              0.0024

 Normal termination of Gaussian 16 at Fri Sep 22 16:32:35 2023.
