 Gaussian 16, Revision A.03,
 Gaussian 16:  ES64L-G16RevA.03 25-Dec-2016

 ----------------
 # 6-31g(d) wb97x
 ----------------

 -----------------------
 tmpdir/M2_conf_1_35.gjf
 -----------------------
 Symbolic Z-matrix:
 Charge =  1 Multiplicity = 1

                         Standard orientation:
 ---------------------------------------------------------------------
 Center     Atomic      Atomic             Coordinates (Angstroms)
 Number     Number       Type             X           Y           Z
 ---------------------------------------------------------------------
      1          1           0        1.032923    0.044421   -0.281982
      2          7           0       -0.004940   -0.001083   -0.002492
      3          1           0       -0.067313   -0.526771    0.872773
      4          1           0       -0.365819    0.980665    0.129740
      5          1           0       -0.565208   -0.490733   -0.703085
 ---------------------------------------------------------------------

 SCF Done:  E(RwB97X) =  -56.8735435444     A.U. after   10 cycles

 The electronic state is 1-A.
 Alpha  occ. eigenvalues --  -14.79090  -1.36608  -0.93385  -0.93136  -0.91793
 Alpha virt. eigenvalues --   -0.10731  -0.03541  -0.01992  -0.01403   0.44519
 Alpha virt. eigenvalues --    0.46230   0.46709   0.66731   0.68198   0.69930
 Alpha virt. eigenvalues --    0.71702   1.09635   1.36014   1.36785   2.04538

 Mulliken charges:
               1
     1  H    0.474192
     2  N   -0.886270
     3  H    0.468014
     4  H    0.473506
     5  H    0.470558
 Sum of Mulliken charges =   1.00000

 Dipole moment (field-independent basis, Debye):
    X=              0.0762    Y=              0.0277    Z=              0.0249  Tot=              0.0848
 Quadrupole moment (field-independent basis, Debye-Ang):
   XX=             -4.1458   YY=             -4.2375   ZZ=             -4.5634
   XY=              0.0061   XZ=              0.0137   YZ=              0.0028

 Normal termination of Gaussian 16 at Fri Sep 22 16:31:31 2023.
