 Gaussian 16, Revision A.03,
 Gaussian 16:  ES64L-G16RevA.03 25-Dec-2016

 ----------------
 # 6-31g(d) wb97x
 ----------------

 -----------------------
 tmpdir/M2_conf_1_40.gjf
 -----------------------
 Symbolic Z-matrix:
 Charge =  0 Multiplicity = 1

                         Standard orientation:
 ---------------------------------------------------------------------
 Center     Atomic      Atomic             Coordinates (Angstroms)
 Number     Number       Type             X           Y           Z
 ---------------------------------------------------------------------
      1          6           0       -0.008285   -0.007183   -0.015437
      2          1           0       -0.151755   -0.835675    0.682581
      3          1           0       -0.912513    0.091114   -0.647837
      4          1           0        1.012353   -0.136238   -0.542667
      5          1           0        0.101622    0.923898    0.600548
 ---------------------------------------------------------------------

 SCF Done:  E(RwB97X) =  -40.4946201368     A.U. after   11 cycles

 The electronic state is 1-A.
 Alpha  occ. eigenvalues --  -10.26035  -0.81073  -0.50244  -0.49092  -0.47671
 Alpha virt. eigenvalues --    0.20758   0.25621   0.27174   0.27303   0.63806
 Alpha virt. eigenvalues --    0.64420   0.66613   0.97228   1.00339   1.01131
 Alpha virt. eigenvalues --    1.04741   1.20055   1.76036   1.76905   2.26669

 Mulliken charges:
               1
     1  C   -0.657367
     2  H    0.169641
     3  H    0.170631
     4  H    0.157152
     5  H    0.159944
 Sum of Mulliken charges =   0.00000

 Dipole moment (field-independent basis, Debye):
    X=             -0.0163    Y=              0.0100    Z=              0.0813  Tot=              0.0835
 Quadrupole moment (field-independent basis, Debye-Ang):
   XX=             -8.0256   YY=             -8.4513   ZZ=             -8.4926
   XY=              0.0095   XZ=              0.0556   YZ=             -0.0526

 Normal termination of Gaussian 16 at Fri Sep 22 16:31:39 2023.
