 Gaussian 16, Revision A.03,
 Gaussian 16:  ES64L-G16RevA.03 25-Dec-2016

 ----------------
 # 6-31g(d) wb97x
 ----------------

 -----------------------
 tmpdir/M2_conf_0_19.gjf
 -----------------------
 Symbolic Z-matrix:
 Charge =  0 Multiplicity = 1

                         Standard orientation:
 ---------------------------------------------------------------------
 Center     Atomic      Atomic             Coordinates (Angstroms)
 Number     Number       Type             X           Y           Z
 ---------------------------------------------------------------------
      1          1           0       -0.357232   -0.663362   -0.785763
      2          6           0        0.010231    0.010969   -0.004922
      3          1           0       -0.264665   -0.477738    0.942482
      4          1           0       -0.546584    0.940044   -0.066428
      5          1           0        1.107097    0.135241   -0.060757
 ---------------------------------------------------------------------

 SCF Done:  E(RwB97X) =  -40.4983805713     A.U. after   11 cycles

 The electronic state is 1-A.
 Alpha  occ. eigenvalues --  -10.25033  -0.81704  -0.50271  -0.49412  -0.48576
 Alpha virt. eigenvalues --    0.21526   0.27079   0.27396   0.27824   0.63791
 Alpha virt. eigenvalues --    0.63848   0.64890   1.00633   1.01298   1.02395
 Alpha virt. eigenvalues --    1.07176   1.20959   1.75834   1.75925   2.32654

 Mulliken charges:
               1
     1  H    0.165588
     2  C   -0.667115
     3  H    0.162966
     4  H    0.170562
     5  H    0.167998
 Sum of Mulliken charges =   0.00000

 Dipole moment (field-independent basis, Debye):
    X=             -0.0495    Y=             -0.0319    Z=              0.0141  Tot=              0.0605
 Quadrupole moment (field-independent basis, Debye-Ang):
   XX=             -8.0692   YY=             -8.2890   ZZ=             -8.4266
   XY=             -0.0194   XZ=              0.0052   YZ=              0.0064

 Normal termination of Gaussian 16 at Fri Sep 22 16:30:18 2023.
