 Gaussian 16, Revision A.03,
 Gaussian 16:  ES64L-G16RevA.03 25-Dec-2016

 ----------------
 # 6-31g(d) wb97x
 ----------------

 ------------------------
 tmpdir/M2_conf_0_111.gjf
 ------------------------
 Symbolic Z-matrix:
 Charge =  0 Multiplicity = 1

                         Standard orientation:
 ---------------------------------------------------------------------
 Center     Atomic      Atomic             Coordinates (Angstroms)
 Number     Number       Type             X           Y           Z
 ---------------------------------------------------------------------
      1          6           0       -0.763194    0.001460   -0.003297
      2          6           0        0.763203    0.004457   -0.003710
      3          1           0        1.159881   -0.702269    0.731891
      4          1           0       -1.209017    0.773451   -0.655371
      5          1           0       -1.128397   -0.982547   -0.318145
      6          1           0       -1.134516    0.168093    1.015518
      7          1           0        1.155810    0.999030    0.251538
      8          1           0        1.156179   -0.291261   -0.983387
 ---------------------------------------------------------------------

 SCF Done:  E(RwB97X) =  -79.8009828036     A.U. after   12 cycles

 The electronic state is 1-A.
 Alpha  occ. eigenvalues --  -10.25576 -10.25503  -0.87904  -0.73341  -0.54239
 Alpha  occ. eigenvalues --   -0.54064  -0.46669  -0.44126  -0.43993
 Alpha virt. eigenvalues --    0.19953   0.25419   0.25914   0.26136   0.28851
 Alpha virt. eigenvalues --    0.29135   0.33981   0.61717   0.64806   0.65255
 Alpha virt. eigenvalues --    0.73909   0.75166   0.78920   0.99945   1.00046

 Mulliken charges:
               1
     1  C   -0.467638
     2  C   -0.467941
     3  H    0.156826
     4  H    0.156225
     5  H    0.155780
     6  H    0.155210
     7  H    0.155369
     8  H    0.156169
 Sum of Mulliken charges =  -0.00000

 Dipole moment (field-independent basis, Debye):
    X=              0.0035    Y=             -0.0236    Z=              0.0229  Tot=              0.0330
 Quadrupole moment (field-independent basis, Debye-Ang):
   XX=            -15.2971   YY=            -14.6585   ZZ=            -14.7123
   XY=             -0.0683   XZ=              0.0452   YZ=             -0.0029

 Normal termination of Gaussian 16 at Fri Sep 22 16:31:00 2023.
