 Gaussian 16, Revision A.03,
 Gaussian 16:  ES64L-G16RevA.03 25-Dec-2016

 ----------------
 # 6-31g(d) wb97x
 ----------------

 -----------------------
 tmpdir/M2_conf_1_41.gjf
 -----------------------
 Symbolic Z-matrix:
 Charge =  0 Multiplicity = 1

                         Standard orientation:
 ---------------------------------------------------------------------
 Center     Atomic      Atomic             Coordinates (Angstroms)
 Number     Number       Type             X           Y           Z
 ---------------------------------------------------------------------
      1          6           0       -1.260101   -0.243535   -0.050977
      2          6           0        0.033700    0.564853    0.069058
      3          7           0        1.226812   -0.290621   -0.018089
      4          1           0       -2.151418    0.408327   -0.002917
      5          1           0       -1.360372   -1.033449    0.824610
      6          1           0       -1.237086   -0.829980   -0.976474
      7          1           0        0.075220    1.302812   -0.774825
      8          1           0        0.006257    1.146419    1.002348
      9          1           0        1.430635   -1.149306    0.303192
     10          1           0        2.007486    0.261616   -0.357795
 ---------------------------------------------------------------------

 SCF Done:  E(RwB97X) =  -135.106550981     A.U. after   12 cycles

 The electronic state is 1-A.
 Alpha  occ. eigenvalues --  -14.36403 -10.29293 -10.26134  -0.98798  -0.84841
 Alpha  occ. eigenvalues --   -0.72218  -0.59811  -0.56082  -0.53798  -0.46514
 Alpha  occ. eigenvalues --   -0.45736  -0.43487  -0.30319
 Alpha virt. eigenvalues --    0.19103   0.21691   0.23569   0.26341   0.27367
 Alpha virt. eigenvalues --    0.28321   0.31019   0.33315   0.36129   0.64154
 Alpha virt. eigenvalues --    0.65518   0.68160   0.70298   0.78501   0.79616

 Mulliken charges:
               1
     1  C   -0.464816
     2  C   -0.099451
     3  N   -0.802046
     4  H    0.154001
     5  H    0.129715
     6  H    0.165919
     7  H    0.141380
     8  H    0.134460
     9  H    0.329728
    10  H    0.311110
 Sum of Mulliken charges =  -0.00000

 Dipole moment (field-independent basis, Debye):
    X=              0.3625    Y=              0.1279    Z=              0.0689  Tot=              0.3905
 Quadrupole moment (field-independent basis, Debye-Ang):
   XX=            -18.8905   YY=            -19.2141   ZZ=            -21.5255
   XY=             -0.4039   XZ=             -0.2779   YZ=             -1.2268

 Normal termination of Gaussian 16 at Fri Sep 22 16:31:48 2023.
