 Gaussian 16, Revision A.03,
 Gaussian 16:  ES64L-G16RevA.03 25-Dec-2016

 ----------------
 # 6-31g(d) wb97x
 ----------------

 -----------------------
 tmpdir/M2_conf_1_33.gjf
 -----------------------
 Symbolic Z-matrix:
 Charge =  1 Multiplicity = 1

                         Standard orientation:
 ---------------------------------------------------------------------
 Center     Atomic      Atomic             Coordinates (Angstroms)
 Number     Number       Type             X           Y           Z
 ---------------------------------------------------------------------
      1          6           0        0.793982   -0.002713   -0.001009
      2          7           0       -0.711715    0.000312   -0.001339
      3          1           0       -1.066054   -0.406896   -0.870220
      4          1           0        1.116037   -1.035594   -0.227120
      5          1           0        1.201244    0.719765   -0.735431
      6          1           0        1.089631    0.301217    1.009545
      7          1           0       -1.057633    1.015979    0.076848
      8          1           0       -1.065109   -0.580377    0.761810
 ---------------------------------------------------------------------

 SCF Done:  E(RwB97X) =  -96.1812705535     A.U. after   12 cycles

 The electronic state is 1-A.
 Alpha  occ. eigenvalues --  -14.76722 -10.53542  -1.35181  -1.05589  -0.92257
 Alpha  occ. eigenvalues --   -0.91790  -0.81020  -0.73021  -0.72662
 Alpha virt. eigenvalues --   -0.08827  -0.01765  -0.00417   0.01720   0.05122
 Alpha virt. eigenvalues --    0.06210   0.06362   0.40129   0.41833   0.42777
 Alpha virt. eigenvalues --    0.55277   0.56770   0.58261   0.69279   0.72516

 Mulliken charges:
               1
     1  C   -0.422122
     2  N   -0.747559
     3  H    0.452212
     4  H    0.266295
     5  H    0.273045
     6  H    0.265162
     7  H    0.457758
     8  H    0.455208
 Sum of Mulliken charges =   1.00000

 Dipole moment (field-independent basis, Debye):
    X=             -2.2501    Y=              0.0677    Z=             -0.0399  Tot=              2.2515
 Quadrupole moment (field-independent basis, Debye-Ang):
   XX=             -7.3227   YY=             -9.7395   ZZ=            -10.2983
   XY=              0.0593   XZ=             -0.0572   YZ=             -0.0250

 Normal termination of Gaussian 16 at Fri Sep 22 16:31:23 2023.
