 Gaussian 16, Revision A.03,
 Gaussian 16:  ES64L-G16RevA.03 25-Dec-2016

 ----------------
 # 6-31g(d) wb97x
 ----------------

 -----------------------
 tmpdir/M2_conf_0_13.gjf
 -----------------------
 Symbolic Z-matrix:
 Charge =  0 Multiplicity = 1

                         Standard orientation:
 ---------------------------------------------------------------------
 Center     Atomic      Atomic             Coordinates (Angstroms)
 Number     Number       Type             X           Y           Z
 ---------------------------------------------------------------------
      1          6           0        0.010644    0.011594   -0.004121
      2          1           0       -0.285584   -0.559214    0.895569
      3          1           0       -0.533048    0.950313    0.010536
      4          1           0        1.109709    0.124681   -0.034954
      5          1           0       -0.354939   -0.585343   -0.846423
 ---------------------------------------------------------------------

 SCF Done:  E(RwB97X) =  -40.4983150595     A.U. after   11 cycles

 The electronic state is 1-A.
 Alpha  occ. eigenvalues --  -10.25089  -0.81667  -0.50277  -0.49417  -0.48500
 Alpha virt. eigenvalues --    0.21495   0.26960   0.27397   0.27820   0.63782
 Alpha virt. eigenvalues --    0.63961   0.64892   1.00402   1.01287   1.02367
 Alpha virt. eigenvalues --    1.06976   1.20927   1.75859   1.75951   2.32617

 Mulliken charges:
               1
     1  C   -0.666562
     2  H    0.161787
     3  H    0.170785
     4  H    0.168211
     5  H    0.165780
 Sum of Mulliken charges =   0.00000

 Dipole moment (field-independent basis, Debye):
    X=             -0.0494    Y=             -0.0309    Z=              0.0070  Tot=              0.0587
 Quadrupole moment (field-independent basis, Debye-Ang):
   XX=             -8.0732   YY=             -8.2922   ZZ=             -8.4299
   XY=             -0.0217   XZ=              0.0070   YZ=              0.0164

 Normal termination of Gaussian 16 at Fri Sep 22 16:30:15 2023.
