 Gaussian 16, Revision A.03,
 Gaussian 16:  ES64L-G16RevA.03 25-Dec-2016

 ----------------
 # 6-31g(d) wb97x
 ----------------

 ------------------------
 tmpdir/M2_conf_0_113.gjf
 ------------------------
 Symbolic Z-matrix:
 Charge =  0 Multiplicity = 1

                         Standard orientation:
 ---------------------------------------------------------------------
 Center     Atomic      Atomic             Coordinates (Angstroms)
 Number     Number       Type             X           Y           Z
 ---------------------------------------------------------------------
      1          6           0       -0.763332    0.001309   -0.003253
      2          6           0        0.763065    0.004409   -0.003811
      3          1           0        1.156368   -0.309661   -0.977629
      4          1           0       -1.209249    0.760832   -0.669742
      5          1           0       -1.128481   -0.988494   -0.299470
      6          1           0       -1.134609    0.187098    1.012254
      7          1           0        1.161965   -0.687727    0.744363
      8          1           0        1.155612    1.003646    0.232609
 ---------------------------------------------------------------------

 SCF Done:  E(RwB97X) =  -79.8009792991     A.U. after   12 cycles

 The electronic state is 1-A.
 Alpha  occ. eigenvalues --  -10.25579 -10.25503  -0.87902  -0.73347  -0.54237
 Alpha  occ. eigenvalues --   -0.54054  -0.46683  -0.44122  -0.43989
 Alpha virt. eigenvalues --    0.19957   0.25408   0.25912   0.26137   0.28853
 Alpha virt. eigenvalues --    0.29141   0.33988   0.61722   0.64787   0.65254
 Alpha virt. eigenvalues --    0.73912   0.75191   0.78922   0.99946   1.00046

 Mulliken charges:
               1
     1  C   -0.467601
     2  C   -0.468052
     3  H    0.156149
     4  H    0.156279
     5  H    0.155799
     6  H    0.155240
     7  H    0.156843
     8  H    0.155344
 Sum of Mulliken charges =  -0.00000

 Dipole moment (field-independent basis, Debye):
    X=              0.0038    Y=             -0.0230    Z=              0.0233  Tot=              0.0330
 Quadrupole moment (field-independent basis, Debye-Ang):
   XX=            -15.2921   YY=            -14.6598   ZZ=            -14.7139
   XY=             -0.0696   XZ=              0.0481   YZ=             -0.0030

 Normal termination of Gaussian 16 at Fri Sep 22 16:31:11 2023.
