 Gaussian 16, Revision A.03,
 Gaussian 16:  ES64L-G16RevA.03 25-Dec-2016

 ----------------
 # 6-31g(d) wb97x
 ----------------

 -----------------------
 tmpdir/M2_conf_1_34.gjf
 -----------------------
 Symbolic Z-matrix:
 Charge =  1 Multiplicity = 1

                         Standard orientation:
 ---------------------------------------------------------------------
 Center     Atomic      Atomic             Coordinates (Angstroms)
 Number     Number       Type             X           Y           Z
 ---------------------------------------------------------------------
      1          6           0        0.795096   -0.003512    0.000979
      2          7           0       -0.710597    0.000397   -0.001782
      3          1           0       -1.095610   -0.534900    0.779058
      4          1           0        1.116789   -1.046550   -0.172981
      5          1           0        1.203935    0.681425   -0.767738
      6          1           0        1.089452    0.350135    0.995604
      7          1           0       -1.055944    1.018892    0.025434
      8          1           0       -1.055019   -0.450710   -0.852778
 ---------------------------------------------------------------------

 SCF Done:  E(RwB97X) =  -96.1813277856     A.U. after   12 cycles

 The electronic state is 1-A.
 Alpha  occ. eigenvalues --  -14.76718 -10.53552  -1.35166  -1.05653  -0.92038
 Alpha  occ. eigenvalues --   -0.91837  -0.81110  -0.73011  -0.72642
 Alpha virt. eigenvalues --   -0.08803  -0.01801  -0.00472   0.01786   0.05148
 Alpha virt. eigenvalues --    0.06217   0.06396   0.40170   0.41642   0.42764
 Alpha virt. eigenvalues --    0.55382   0.56834   0.58527   0.69296   0.72514

 Mulliken charges:
               1
     1  C   -0.420321
     2  N   -0.748803
     3  H    0.455229
     4  H    0.266337
     5  H    0.273236
     6  H    0.265418
     7  H    0.457210
     8  H    0.451695
 Sum of Mulliken charges =   1.00000

 Dipole moment (field-independent basis, Debye):
    X=             -2.2680    Y=              0.0712    Z=             -0.0572  Tot=              2.2699
 Quadrupole moment (field-independent basis, Debye-Ang):
   XX=             -7.2373   YY=             -9.7587   ZZ=            -10.3212
   XY=              0.0785   XZ=             -0.1124   YZ=             -0.0215

 Normal termination of Gaussian 16 at Fri Sep 22 16:31:28 2023.
