 Gaussian 16, Revision A.03,
 Gaussian 16:  ES64L-G16RevA.03 25-Dec-2016

 ----------------
 # 6-31g(d) wb97x
 ----------------

 -----------------------
 tmpdir/M2_conf_1_68.gjf
 -----------------------
 Symbolic Z-matrix:
 Charge =  0 Multiplicity = 1

                         Standard orientation:
 ---------------------------------------------------------------------
 Center     Atomic      Atomic             Coordinates (Angstroms)
 Number     Number       Type             X           Y           Z
 ---------------------------------------------------------------------
      1          6           0        0.766497    0.006337   -0.002874
      2          6           0       -0.764277   -0.001255    0.002067
      3          1           0        1.100627   -1.024263   -0.460509
      4          1           0        1.192782    0.877649   -0.538996
      5          1           0        1.120411    0.041230    1.044810
      6          1           0       -1.202631   -0.804599    0.621358
      7          1           0       -1.121549   -0.096644   -1.029460
      8          1           0       -1.102960    0.976131    0.367641
 ---------------------------------------------------------------------

 SCF Done:  E(RwB97X) =  -79.7951726899     A.U. after   12 cycles

 The electronic state is 1-A.
 Alpha  occ. eigenvalues --  -10.26605 -10.25621  -0.87728  -0.72593  -0.54432
 Alpha  occ. eigenvalues --   -0.53859  -0.46439  -0.44113  -0.43182
 Alpha virt. eigenvalues --    0.19191   0.24925   0.25230   0.26083   0.27718
 Alpha virt. eigenvalues --    0.29038   0.33380   0.61669   0.65077   0.66723
 Alpha virt. eigenvalues --    0.72933   0.76099   0.78494   0.96719   0.99593

 Mulliken charges:
               1
     1  C   -0.456294
     2  C   -0.463124
     3  H    0.136359
     4  H    0.159687
     5  H    0.155335
     6  H    0.158066
     7  H    0.156299
     8  H    0.153672
 Sum of Mulliken charges =   0.00000

 Dipole moment (field-independent basis, Debye):
    X=             -0.0497    Y=              0.0624    Z=              0.0310  Tot=              0.0856
 Quadrupole moment (field-independent basis, Debye-Ang):
   XX=            -15.6677   YY=            -14.5631   ZZ=            -14.8009
   XY=              0.2574   XZ=             -0.0051   YZ=             -0.0887

 Normal termination of Gaussian 16 at Fri Sep 22 16:31:59 2023.
