 Gaussian 16, Revision A.03,
 Gaussian 16:  ES64L-G16RevA.03 25-Dec-2016

 ----------------
 # 6-31g(d) wb97x
 ----------------

 -----------------------
 tmpdir/M2_conf_2_14.gjf
 -----------------------
 Symbolic Z-matrix:
 Charge =  0 Multiplicity = 1

                         Standard orientation:
 ---------------------------------------------------------------------
 Center     Atomic      Atomic             Coordinates (Angstroms)
 Number     Number       Type             X           Y           Z
 ---------------------------------------------------------------------
      1          6           0       -0.935793    0.407056    0.047432
      2          6           0        0.521722    0.744486   -0.041406
      3          6           0        1.393639   -0.506890    0.028795
      4          1           0       -1.621210    1.292151    0.165798
      5          8           0       -1.332832   -0.692624   -0.032682
      6          1           0        0.755619    1.471455    0.743631
      7          1           0        0.679140    1.289774   -0.984731
      8          1           0        2.460161   -0.210657   -0.390095
      9          1           0        0.950328   -1.343825   -0.545857
     10          1           0        1.561201   -0.825818    1.063785
 ---------------------------------------------------------------------

 SCF Done:  E(RwB97X) =  -193.082742847     A.U. after   14 cycles

 The electronic state is 1-A.
 Alpha  occ. eigenvalues --  -19.21743 -10.35842 -10.27951 -10.27228  -1.19529
 Alpha  occ. eigenvalues --   -0.91207  -0.78435  -0.67011  -0.60723  -0.57808
 Alpha  occ. eigenvalues --   -0.55289  -0.49904  -0.47474  -0.46586  -0.44885
 Alpha  occ. eigenvalues --   -0.35383
 Alpha virt. eigenvalues --    0.08820   0.18815   0.21921   0.22734   0.25025
 Alpha virt. eigenvalues --    0.27299   0.29750   0.31259   0.38319   0.40271
 Alpha virt. eigenvalues --    0.61899   0.63825   0.67270   0.69567   0.70100

 Mulliken charges:
               1
     1  C    0.244490
     2  C   -0.383248
     3  C   -0.468032
     4  H    0.111710
     5  O   -0.356915
     6  H    0.173385
     7  H    0.183103
     8  H    0.135152
     9  H    0.189943
    10  H    0.170411
 Sum of Mulliken charges =  -0.00000

 Dipole moment (field-independent basis, Debye):
    X=              1.1638    Y=              2.0622    Z=              0.0996  Tot=              2.3700
 Quadrupole moment (field-independent basis, Debye-Ang):
   XX=            -27.0010   YY=            -25.0468   ZZ=            -24.0081
   XY=             -2.2056   XZ=             -0.0415   YZ=             -0.0772

 Normal termination of Gaussian 16 at Fri Sep 22 16:32:39 2023.
