 Gaussian 16, Revision A.03,
 Gaussian 16:  ES64L-G16RevA.03 25-Dec-2016

 ----------------
 # 6-31g(d) wb97x
 ----------------

 -----------------------
 tmpdir/M2_conf_2_93.gjf
 -----------------------
 Symbolic Z-matrix:
 Charge =  0 Multiplicity = 1

                         Standard orientation:
 ---------------------------------------------------------------------
 Center     Atomic      Atomic             Coordinates (Angstroms)
 Number     Number       Type             X           Y           Z
 ---------------------------------------------------------------------
      1          6           0        0.228862    0.459636   -0.003195
      2          6           0       -1.151608   -0.149273    0.000076
      3          1           0       -1.272684   -0.761770    0.897566
      4          1           0        0.270649    1.513038    0.008576
      5          8           0        1.216003   -0.298028    0.001167
      6          1           0       -1.234294   -0.819144   -0.859751
      7          1           0       -1.955216    0.589920   -0.037014
 ---------------------------------------------------------------------

 SCF Done:  E(RwB97X) =  -153.779155879     A.U. after   14 cycles

 The electronic state is 1-A.
 Alpha  occ. eigenvalues --  -19.21634 -10.36555 -10.27617  -1.15337  -0.87948
 Alpha  occ. eigenvalues --   -0.71713  -0.58783  -0.55122  -0.53548  -0.50216
 Alpha  occ. eigenvalues --   -0.45393  -0.35780
 Alpha virt. eigenvalues --    0.06167   0.21020   0.22465   0.27158   0.27375
 Alpha virt. eigenvalues --    0.33658   0.37396   0.63171   0.64104   0.68358
 Alpha virt. eigenvalues --    0.70735   0.75418   0.82498   0.88535   0.96304

 Mulliken charges:
               1
     1  C    0.223375
     2  C   -0.554574
     3  H    0.204997
     4  H    0.153357
     5  O   -0.396049
     6  H    0.204613
     7  H    0.164280
 Sum of Mulliken charges =  -0.00000

 Dipole moment (field-independent basis, Debye):
    X=             -2.4123    Y=              1.2425    Z=              0.0076  Tot=              2.7135
 Quadrupole moment (field-independent basis, Debye-Ang):
   XX=            -20.8724   YY=            -17.2517   ZZ=            -17.5348
   XY=              1.1550   XZ=             -0.0323   YZ=              0.0000

 Normal termination of Gaussian 16 at Fri Sep 22 16:33:06 2023.
