 Gaussian 16, Revision A.03,
 Gaussian 16:  ES64L-G16RevA.03 25-Dec-2016

 ----------------
 # 6-31g(d) wb97x
 ----------------

 -----------------------
 tmpdir/M2_conf_2_54.gjf
 -----------------------
 Symbolic Z-matrix:
 Charge =  0 Multiplicity = 1

                         Standard orientation:
 ---------------------------------------------------------------------
 Center     Atomic      Atomic             Coordinates (Angstroms)
 Number     Number       Type             X           Y           Z
 ---------------------------------------------------------------------
      1          6           0       -0.017025   -0.011090   -0.003082
      2          1           0       -0.178612    0.253779    1.049961
      3          1           0        0.150258    0.948600   -0.559355
      4          1           0       -0.870127   -0.554972   -0.397529
      5          1           0        1.000634   -0.580868   -0.074585
 ---------------------------------------------------------------------

 SCF Done:  E(RwB97X) =  -40.4947649047     A.U. after   11 cycles

 The electronic state is 1-A.
 Alpha  occ. eigenvalues --  -10.25988  -0.81101  -0.50474  -0.48972  -0.47696
 Alpha virt. eigenvalues --    0.20818   0.25481   0.26998   0.27790   0.63853
 Alpha virt. eigenvalues --    0.64516   0.66112   0.96917   1.00108   1.02348
 Alpha virt. eigenvalues --    1.04536   1.20261   1.76196   1.76445   2.27705

 Mulliken charges:
               1
     1  C   -0.656355
     2  H    0.168492
     3  H    0.161283
     4  H    0.175876
     5  H    0.150703
 Sum of Mulliken charges =  -0.00000

 Dipole moment (field-independent basis, Debye):
    X=             -0.0165    Y=              0.0544    Z=              0.0244  Tot=              0.0619
 Quadrupole moment (field-independent basis, Debye-Ang):
   XX=             -8.1358   YY=             -8.4251   ZZ=             -8.3996
   XY=              0.1037   XZ=              0.0353   YZ=              0.0401

 Normal termination of Gaussian 16 at Fri Sep 22 16:32:42 2023.
