 Gaussian 16, Revision A.03,
 Gaussian 16:  ES64L-G16RevA.03 25-Dec-2016

 ----------------
 # 6-31g(d) wb97x
 ----------------

 -----------------------
 tmpdir/M2_conf_2_81.gjf
 -----------------------
 Symbolic Z-matrix:
 Charge =  0 Multiplicity = 1

                         Standard orientation:
 ---------------------------------------------------------------------
 Center     Atomic      Atomic             Coordinates (Angstroms)
 Number     Number       Type             X           Y           Z
 ---------------------------------------------------------------------
      1          6           0       -0.760094    0.003309   -0.008158
      2          6           0        0.770783   -0.015476   -0.003203
      3          1           0        1.109974    0.855629   -0.579728
      4          1           0       -1.233191   -0.871914    0.619026
      5          1           0       -1.188657   -0.075168   -1.023098
      6          1           0       -1.093223    0.958378    0.440172
      7          1           0        1.216968   -0.941781   -0.409696
      8          1           0        1.123999    0.147857    1.021486
 ---------------------------------------------------------------------

 SCF Done:  E(RwB97X) =  -79.7965136745     A.U. after   12 cycles

 The electronic state is 1-A.
 Alpha  occ. eigenvalues --  -10.26563 -10.25792  -0.87665  -0.72838  -0.54395
 Alpha  occ. eigenvalues --   -0.53479  -0.46464  -0.44377  -0.43278
 Alpha virt. eigenvalues --    0.19488   0.24470   0.25523   0.25901   0.28072
 Alpha virt. eigenvalues --    0.28830   0.33614   0.61765   0.65013   0.66067
 Alpha virt. eigenvalues --    0.74447   0.75232   0.78375   0.97069   0.99456

 Mulliken charges:
               1
     1  C   -0.458561
     2  C   -0.462595
     3  H    0.155867
     4  H    0.136047
     5  H    0.157553
     6  H    0.155459
     7  H    0.158462
     8  H    0.157768
 Sum of Mulliken charges =   0.00000

 Dipole moment (field-independent basis, Debye):
    X=              0.0423    Y=              0.0895    Z=             -0.0146  Tot=              0.1000
 Quadrupole moment (field-independent basis, Debye-Ang):
   XX=            -15.4351   YY=            -14.6722   ZZ=            -14.8207
   XY=             -0.0307   XZ=              0.0629   YZ=              0.0891

 Normal termination of Gaussian 16 at Fri Sep 22 16:33:01 2023.
