 Gaussian 16, Revision A.03,
 Gaussian 16:  ES64L-G16RevA.03 25-Dec-2016

 ----------------
 # 6-31g(d) wb97x
 ----------------

 -----------------------
 tmpdir/M2_conf_0_78.gjf
 -----------------------
 Symbolic Z-matrix:
 Charge =  0 Multiplicity = 1

                         Standard orientation:
 ---------------------------------------------------------------------
 Center     Atomic      Atomic             Coordinates (Angstroms)
 Number     Number       Type             X           Y           Z
 ---------------------------------------------------------------------
      1          6           0       -0.006463   -0.011255   -0.002256
      2          1           0        0.210746    0.524044    0.933017
      3          1           0        0.811005   -0.742414   -0.161881
      4          1           0       -1.016867   -0.458273    0.037833
      5          1           0        0.033893    0.744173   -0.795433
 ---------------------------------------------------------------------

 SCF Done:  E(RwB97X) =  -40.4984429608     A.U. after   11 cycles

 The electronic state is 1-A.
 Alpha  occ. eigenvalues --  -10.25285  -0.81525  -0.50090  -0.49116  -0.48750
 Alpha virt. eigenvalues --    0.21376   0.27037   0.27246   0.27479   0.63842
 Alpha virt. eigenvalues --    0.64123   0.65076   1.00455   1.00977   1.01655
 Alpha virt. eigenvalues --    1.06253   1.20693   1.75899   1.76078   2.31951

 Mulliken charges:
               1
     1  C   -0.664385
     2  H    0.164705
     3  H    0.165644
     4  H    0.168038
     5  H    0.165999
 Sum of Mulliken charges =  -0.00000

 Dipole moment (field-independent basis, Debye):
    X=              0.0218    Y=              0.0531    Z=              0.0078  Tot=              0.0580
 Quadrupole moment (field-independent basis, Debye-Ang):
   XX=             -8.0931   YY=             -8.3196   ZZ=             -8.4168
   XY=              0.0091   XZ=             -0.0012   YZ=             -0.0061

 Normal termination of Gaussian 16 at Fri Sep 22 16:30:43 2023.
