 Gaussian 16, Revision A.03,
 Gaussian 16:  ES64L-G16RevA.03 25-Dec-2016

 ----------------
 # 6-31g(d) wb97x
 ----------------

 -----------------------
 tmpdir/M2_conf_2_91.gjf
 -----------------------
 Symbolic Z-matrix:
 Charge =  0 Multiplicity = 1

                         Standard orientation:
 ---------------------------------------------------------------------
 Center     Atomic      Atomic             Coordinates (Angstroms)
 Number     Number       Type             X           Y           Z
 ---------------------------------------------------------------------
      1          6           0        0.003175   -0.002677   -0.009194
      2          1           0       -0.096140    1.010827    0.394891
      3          1           0       -0.836117   -0.187931   -0.683113
      4          1           0       -0.066291   -0.698414    0.831303
      5          1           0        0.979497   -0.108422   -0.487918
 ---------------------------------------------------------------------

 SCF Done:  E(RwB97X) =  -40.4991596408     A.U. after   11 cycles

 The electronic state is 1-A.
 Alpha  occ. eigenvalues --  -10.24892  -0.81773  -0.50194  -0.49162  -0.49100
 Alpha virt. eigenvalues --    0.21644   0.27335   0.27445   0.27862   0.63801
 Alpha virt. eigenvalues --    0.63932   0.64471   1.01335   1.01508   1.02625
 Alpha virt. eigenvalues --    1.07138   1.20857   1.75668   1.75971   2.34280

 Mulliken charges:
               1
     1  C   -0.667763
     2  H    0.164948
     3  H    0.168227
     4  H    0.165631
     5  H    0.168957
 Sum of Mulliken charges =  -0.00000

 Dipole moment (field-independent basis, Debye):
    X=             -0.0115    Y=              0.0076    Z=              0.0328  Tot=              0.0356
 Quadrupole moment (field-independent basis, Debye-Ang):
   XX=             -8.1147   YY=             -8.3270   ZZ=             -8.3140
   XY=              0.0008   XZ=             -0.0009   YZ=              0.0017

 Normal termination of Gaussian 16 at Fri Sep 22 16:33:03 2023.
