 Gaussian 16, Revision A.03,
 Gaussian 16:  ES64L-G16RevA.03 25-Dec-2016

 ----------------
 # 6-31g(d) wb97x
 ----------------

 ----------------------
 tmpdir/M2_conf_2_2.gjf
 ----------------------
 Symbolic Z-matrix:
 Charge =  0 Multiplicity = 1

                         Standard orientation:
 ---------------------------------------------------------------------
 Center     Atomic      Atomic             Coordinates (Angstroms)
 Number     Number       Type             X           Y           Z
 ---------------------------------------------------------------------
      1          6           0       -0.626248    0.493358   -0.000218
      2          6           0        0.612631   -0.370270   -0.005514
      3          6           0       -1.821937   -0.271885    0.000526
      4          1           0       -0.454201    1.497616    0.005338
      5          1           0        0.425172   -1.438670    0.014161
      6          6           0        1.840392    0.138972    0.001956
 ---------------------------------------------------------------------

 SCF Done:  E(RwB97X) =  -153.252579903     A.U. after   18 cycles

 The electronic state is 1-A.
 Alpha  occ. eigenvalues --  -10.37826 -10.35244 -10.32612 -10.31370  -0.96978
 Alpha  occ. eigenvalues --   -0.86473  -0.69915  -0.66196  -0.55624  -0.46119
 Alpha  occ. eigenvalues --   -0.43058  -0.40886  -0.34880
 Alpha virt. eigenvalues --   -0.03181  -0.00570   0.04320   0.14259   0.21975
 Alpha virt. eigenvalues --    0.26271   0.32815   0.41143   0.45383   0.59198
 Alpha virt. eigenvalues --    0.60973   0.62469   0.65240   0.66724   0.68621

 Mulliken charges:
               1
     1  C   -0.235597
     2  C   -0.276109
     3  C    0.030826
     4  H    0.231341
     5  H    0.239765
     6  C    0.009774
 Sum of Mulliken charges =   0.00000

 Dipole moment (field-independent basis, Debye):
    X=             -0.4386    Y=              0.2270    Z=              0.0193  Tot=              0.4943
 Quadrupole moment (field-independent basis, Debye-Ang):
   XX=            -31.6545   YY=            -19.3602   ZZ=            -25.5145
   XY=             -3.9858   XZ=             -0.0033   YZ=             -0.0226

 Normal termination of Gaussian 16 at Fri Sep 22 16:32:36 2023.
