 Gaussian 16, Revision A.03,
 Gaussian 16:  ES64L-G16RevA.03 25-Dec-2016

 ----------------
 # 6-31g(d) wb97x
 ----------------

 -----------------------
 tmpdir/M2_conf_2_63.gjf
 -----------------------
 Symbolic Z-matrix:
 Charge =  0 Multiplicity = 1

                         Standard orientation:
 ---------------------------------------------------------------------
 Center     Atomic      Atomic             Coordinates (Angstroms)
 Number     Number       Type             X           Y           Z
 ---------------------------------------------------------------------
      1          6           0        0.660182   -0.011402    0.004427
      2          6           0       -0.668919    0.001347   -0.005560
      3          1           0       -1.181158    0.960055    0.001946
      4          1           0        1.275622    0.931158    0.001300
      5          1           0        1.233811   -0.932072   -0.013819
      6          1           0       -1.275850   -0.898807    0.017369
 ---------------------------------------------------------------------

 SCF Done:  E(RwB97X) =  -78.5561227227     A.U. after   12 cycles

 The electronic state is 1-A.
 Alpha  occ. eigenvalues --  -10.27069 -10.26721  -0.88397  -0.69327  -0.57515
 Alpha  occ. eigenvalues --   -0.52067  -0.45150  -0.36864
 Alpha virt. eigenvalues --    0.11330   0.21696   0.23616   0.25737   0.34801
 Alpha virt. eigenvalues --    0.42874   0.58480   0.65547   0.67667   0.75003
 Alpha virt. eigenvalues --    0.76013   0.81742   0.95647   0.99184   1.04593

 Mulliken charges:
               1
     1  C   -0.321972
     2  C   -0.320925
     3  H    0.160092
     4  H    0.156257
     5  H    0.160938
     6  H    0.165610
 Sum of Mulliken charges =   0.00000

 Dipole moment (field-independent basis, Debye):
    X=             -0.0024    Y=             -0.0118    Z=              0.0065  Tot=              0.0137
 Quadrupole moment (field-independent basis, Debye-Ang):
   XX=            -11.9193   YY=            -12.0534   ZZ=            -15.1489
   XY=              0.0849   XZ=             -0.0431   YZ=             -0.0001

 Normal termination of Gaussian 16 at Fri Sep 22 16:32:47 2023.
