 Gaussian 16, Revision A.03,
 Gaussian 16:  ES64L-G16RevA.03 25-Dec-2016

 ----------------
 # 6-31g(d) wb97x
 ----------------

 -----------------------
 tmpdir/M2_conf_2_47.gjf
 -----------------------
 Symbolic Z-matrix:
 Charge =  0 Multiplicity = 1

                         Standard orientation:
 ---------------------------------------------------------------------
 Center     Atomic      Atomic             Coordinates (Angstroms)
 Number     Number       Type             X           Y           Z
 ---------------------------------------------------------------------
      1          7           0       -1.083176   -0.155253   -0.022613
      2          6           0        0.154249    0.385143    0.001880
      3          1           0       -1.436311   -1.119626    0.053276
      4          1           0       -1.860227    0.491166    0.067698
      5          8           0        1.218964   -0.258994    0.002950
      6          1           0        0.201561    1.476322    0.002433
 ---------------------------------------------------------------------

 SCF Done:  E(RwB97X) =  -169.835190937     A.U. after   16 cycles

 The electronic state is 1-A.
 Alpha  occ. eigenvalues --  -19.17653 -14.44814 -10.37658  -1.14085  -1.03655
 Alpha  occ. eigenvalues --   -0.75606  -0.65648  -0.59910  -0.50896  -0.50406
 Alpha  occ. eigenvalues --   -0.36922  -0.35022
 Alpha virt. eigenvalues --    0.12214   0.17001   0.19366   0.27468   0.36697
 Alpha virt. eigenvalues --    0.45191   0.64388   0.64653   0.74925   0.77594
 Alpha virt. eigenvalues --    0.81924   0.84510   0.95259   0.97826   0.98904

 Mulliken charges:
               1
     1  N   -0.731843
     2  C    0.344367
     3  H    0.371232
     4  H    0.341939
     5  O   -0.465886
     6  H    0.140192
 Sum of Mulliken charges =  -0.00000

 Dipole moment (field-independent basis, Debye):
    X=             -4.1759    Y=              0.9625    Z=              0.2853  Tot=              4.2949
 Quadrupole moment (field-independent basis, Debye-Ang):
   XX=            -16.9577   YY=            -14.8053   ZZ=            -18.4886
   XY=              1.6926   XZ=             -0.5167   YZ=             -0.0687

 Normal termination of Gaussian 16 at Fri Sep 22 16:32:51 2023.
