 Gaussian 16, Revision A.03,
 Gaussian 16:  ES64L-G16RevA.03 25-Dec-2016

 ----------------
 # 6-31g(d) wb97x
 ----------------

 ----------------------
 tmpdir/M2_conf_0_7.gjf
 ----------------------
 Symbolic Z-matrix:
 Charge =  0 Multiplicity = 1

                         Standard orientation:
 ---------------------------------------------------------------------
 Center     Atomic      Atomic             Coordinates (Angstroms)
 Number     Number       Type             X           Y           Z
 ---------------------------------------------------------------------
      1          6           0        0.758242   -0.012184    0.004443
      2          6           0       -0.771076   -0.000001   -0.005619
      3          1           0        1.372146    0.931373    0.000653
      4          1           0        1.333349   -0.931920   -0.014251
      5          1           0       -1.376522   -0.901141    0.017966
      6          1           0       -1.251971    0.974798    0.002693
 ---------------------------------------------------------------------

 SCF Done:  E(RwB97X) =  -78.5205696676     A.U. after   13 cycles

 The electronic state is 1-A.
 Alpha  occ. eigenvalues --  -10.29808 -10.29523  -0.84588  -0.71090  -0.55945
 Alpha  occ. eigenvalues --   -0.49509  -0.47541  -0.33682
 Alpha virt. eigenvalues --    0.07145   0.21582   0.23400   0.25156   0.33101
 Alpha virt. eigenvalues --    0.36201   0.63613   0.64510   0.67453   0.70547
 Alpha virt. eigenvalues --    0.73210   0.76215   0.97059   1.00344   1.02138

 Mulliken charges:
               1
     1  C   -0.342663
     2  C   -0.342470
     3  H    0.166119
     4  H    0.171271
     5  H    0.177055
     6  H    0.170688
 Sum of Mulliken charges =  -0.00000

 Dipole moment (field-independent basis, Debye):
    X=              0.0096    Y=             -0.0033    Z=              0.0073  Tot=              0.0125
 Quadrupole moment (field-independent basis, Debye-Ang):
   XX=            -11.4179   YY=            -12.1321   ZZ=            -15.6860
   XY=              0.1207   XZ=             -0.0494   YZ=             -0.0007

 Normal termination of Gaussian 16 at Fri Sep 22 16:30:20 2023.
