 Gaussian 16, Revision A.03,
 Gaussian 16:  ES64L-G16RevA.03 25-Dec-2016

 ----------------
 # 6-31g(d) wb97x
 ----------------

 -----------------------
 tmpdir/M2_conf_1_90.gjf
 -----------------------
 Symbolic Z-matrix:
 Charge =  0 Multiplicity = 1

                         Standard orientation:
 ---------------------------------------------------------------------
 Center     Atomic      Atomic             Coordinates (Angstroms)
 Number     Number       Type             X           Y           Z
 ---------------------------------------------------------------------
      1          6           0        0.003054   -0.007236   -0.005667
      2          1           0       -0.062090   -0.100012    1.077316
      3          1           0       -0.840234   -0.539775   -0.450829
      4          1           0       -0.092512    1.054020   -0.249539
      5          1           0        0.976510   -0.370816   -0.342949
 ---------------------------------------------------------------------

 SCF Done:  E(RwB97X) =  -40.4991467363     A.U. after   11 cycles

 The electronic state is 1-A.
 Alpha  occ. eigenvalues --  -10.24815  -0.81826  -0.50185  -0.49225  -0.49136
 Alpha virt. eigenvalues --    0.21686   0.27383   0.27565   0.27862   0.63729
 Alpha virt. eigenvalues --    0.63843   0.64485   1.01427   1.01768   1.02630
 Alpha virt. eigenvalues --    1.07444   1.20907   1.75637   1.75934   2.34277

 Mulliken charges:
               1
     1  C   -0.668506
     2  H    0.166526
     3  H    0.167953
     4  H    0.165342
     5  H    0.168685
 Sum of Mulliken charges =  -0.00000

 Dipole moment (field-independent basis, Debye):
    X=             -0.0116    Y=              0.0263    Z=              0.0253  Tot=              0.0383
 Quadrupole moment (field-independent basis, Debye-Ang):
   XX=             -8.1089   YY=             -8.3162   ZZ=             -8.3162
   XY=             -0.0004   XZ=             -0.0018   YZ=              0.0072

 Normal termination of Gaussian 16 at Fri Sep 22 16:31:58 2023.
