 Gaussian 16, Revision A.03,
 Gaussian 16:  ES64L-G16RevA.03 25-Dec-2016

 ----------------
 # 6-31g(d) wb97x
 ----------------

 -----------------------
 tmpdir/M2_conf_0_48.gjf
 -----------------------
 Symbolic Z-matrix:
 Charge =  0 Multiplicity = 1

                         Standard orientation:
 ---------------------------------------------------------------------
 Center     Atomic      Atomic             Coordinates (Angstroms)
 Number     Number       Type             X           Y           Z
 ---------------------------------------------------------------------
      1          7           0        0.014780   -0.024187   -0.016874
      2          1           0       -0.044365    0.986080    0.032488
      3          1           0       -0.933978   -0.420612    0.039654
      4          1           0        0.874884   -0.396158    0.045976
 ---------------------------------------------------------------------

 SCF Done:  E(RwB97X) =  -56.5107118100     A.U. after   12 cycles

 The electronic state is 1-A.
 Alpha  occ. eigenvalues --  -14.36100  -0.95287  -0.60704  -0.55026  -0.32394
 Alpha virt. eigenvalues --    0.19377   0.27596   0.30083   0.77060   0.83739
 Alpha virt. eigenvalues --    0.89434   0.94344   1.04248   1.10828   1.21869
 Alpha virt. eigenvalues --    1.79725   1.82524   2.26915   2.37567   2.56930

 Mulliken charges:
               1
     1  N   -0.987416
     2  H    0.313768
     3  H    0.331969
     4  H    0.341679
 Sum of Mulliken charges =   0.00000

 Dipole moment (field-independent basis, Debye):
    X=             -0.1284    Y=              0.2004    Z=              0.3368  Tot=              0.4124
 Quadrupole moment (field-independent basis, Debye-Ang):
   XX=             -5.0243   YY=             -5.9131   ZZ=             -9.2607
   XY=             -0.0605   XZ=              0.0162   YZ=             -0.0172

 Normal termination of Gaussian 16 at Fri Sep 22 16:30:27 2023.
