 Gaussian 16, Revision A.03,
 Gaussian 16:  ES64L-G16RevA.03 25-Dec-2016

 ----------------
 # 6-31g(d) wb97x
 ----------------

 ------------------------
 tmpdir/M2_conf_0_112.gjf
 ------------------------
 Symbolic Z-matrix:
 Charge =  0 Multiplicity = 1

                         Standard orientation:
 ---------------------------------------------------------------------
 Center     Atomic      Atomic             Coordinates (Angstroms)
 Number     Number       Type             X           Y           Z
 ---------------------------------------------------------------------
      1          6           0       -0.763541    0.001586   -0.003137
      2          6           0        0.762856    0.004394   -0.003774
      3          1           0        1.159742    0.998714    0.245783
      4          1           0       -1.209359    0.770069   -0.659341
      5          1           0       -1.128908   -0.984022   -0.312738
      6          1           0       -1.134704    0.173811    1.014803
      7          1           0        1.161677   -0.697923    0.734895
      8          1           0        1.155662   -0.296532   -0.981935
 ---------------------------------------------------------------------

 SCF Done:  E(RwB97X) =  -79.8009896965     A.U. after   12 cycles

 The electronic state is 1-A.
 Alpha  occ. eigenvalues --  -10.25583 -10.25503  -0.87899  -0.73356  -0.54221
 Alpha  occ. eigenvalues --   -0.54054  -0.46696  -0.44121  -0.43989
 Alpha virt. eigenvalues --    0.19963   0.25406   0.25910   0.26124   0.28860
 Alpha virt. eigenvalues --    0.29145   0.33997   0.61728   0.64787   0.65225
 Alpha virt. eigenvalues --    0.73934   0.75206   0.78921   0.99946   1.00045

 Mulliken charges:
               1
     1  C   -0.467536
     2  C   -0.468209
     3  H    0.155371
     4  H    0.156306
     5  H    0.155890
     6  H    0.155265
     7  H    0.156809
     8  H    0.156104
 Sum of Mulliken charges =  -0.00000

 Dipole moment (field-independent basis, Debye):
    X=              0.0041    Y=             -0.0236    Z=              0.0228  Tot=              0.0331
 Quadrupole moment (field-independent basis, Debye-Ang):
   XX=            -15.2846   YY=            -14.6639   ZZ=            -14.7140
   XY=             -0.0648   XZ=              0.0491   YZ=             -0.0029

 Normal termination of Gaussian 16 at Fri Sep 22 16:31:06 2023.
