 Gaussian 16, Revision A.03,
 Gaussian 16:  ES64L-G16RevA.03 25-Dec-2016

 ----------------
 # 6-31g(d) wb97x
 ----------------

 -----------------------
 tmpdir/M2_conf_2_97.gjf
 -----------------------
 Symbolic Z-matrix:
 Charge =  0 Multiplicity = 1

                         Standard orientation:
 ---------------------------------------------------------------------
 Center     Atomic      Atomic             Coordinates (Angstroms)
 Number     Number       Type             X           Y           Z
 ---------------------------------------------------------------------
      1          1           0       -0.009858   -0.642461    0.876722
      2          6           0        0.002731   -0.002417   -0.009556
      3          1           0        0.968742   -0.106023   -0.509195
      4          1           0       -0.849520   -0.265773   -0.639805
      5          1           0       -0.125748    1.028759    0.329614
 ---------------------------------------------------------------------

 SCF Done:  E(RwB97X) =  -40.4991232971     A.U. after   10 cycles

 The electronic state is 1-A.
 Alpha  occ. eigenvalues --  -10.24864  -0.81793  -0.50224  -0.49155  -0.49109
 Alpha virt. eigenvalues --    0.21658   0.27343   0.27478   0.27879   0.63768
 Alpha virt. eigenvalues --    0.63885   0.64505   1.01350   1.01576   1.02668
 Alpha virt. eigenvalues --    1.07253   1.20872   1.75647   1.75981   2.34198

 Mulliken charges:
               1
     1  H    0.165363
     2  C   -0.668077
     3  H    0.168878
     4  H    0.168231
     5  H    0.165604
 Sum of Mulliken charges =  -0.00000

 Dipole moment (field-independent basis, Debye):
    X=             -0.0101    Y=              0.0089    Z=              0.0352  Tot=              0.0377
 Quadrupole moment (field-independent basis, Debye-Ang):
   XX=             -8.1065   YY=             -8.3236   ZZ=             -8.3207
   XY=              0.0016   XZ=             -0.0016   YZ=              0.0059

 Normal termination of Gaussian 16 at Fri Sep 22 16:33:07 2023.
