 Gaussian 16, Revision A.03,
 Gaussian 16:  ES64L-G16RevA.03 25-Dec-2016

 ----------------
 # 6-31g(d) wb97x
 ----------------

 -----------------------
 tmpdir/M2_conf_0_43.gjf
 -----------------------
 Symbolic Z-matrix:
 Charge =  0 Multiplicity = 1

                         Standard orientation:
 ---------------------------------------------------------------------
 Center     Atomic      Atomic             Coordinates (Angstroms)
 Number     Number       Type             X           Y           Z
 ---------------------------------------------------------------------
      1          6           0       -0.758002   -0.017067   -0.023563
      2          6           0        0.771448    0.012041    0.018315
      3          1           0        0.918848    0.940455    0.589558
      4          1           0       -1.169160    0.908348   -0.466566
      5          1           0       -1.219427   -0.116929    1.061695
      6          1           0       -1.089252   -0.908368   -0.568396
      7          1           0        1.321234   -0.910994    0.445015
      8          1           0        1.157077    0.117641   -1.029817
 ---------------------------------------------------------------------

 SCF Done:  E(RwB97X) =  -79.7877793578     A.U. after   12 cycles

 The electronic state is 1-A.
 Alpha  occ. eigenvalues --  -10.26589 -10.26571  -0.87693  -0.72209  -0.55157
 Alpha  occ. eigenvalues --   -0.52954  -0.46885  -0.43453  -0.42747
 Alpha virt. eigenvalues --    0.19013   0.23823   0.24003   0.27113   0.27130
 Alpha virt. eigenvalues --    0.28595   0.33231   0.61595   0.65487   0.67738
 Alpha virt. eigenvalues --    0.72439   0.76942   0.78594   0.96169   0.98202

 Mulliken charges:
               1
     1  C   -0.459323
     2  C   -0.453188
     3  H    0.158802
     4  H    0.160567
     5  H    0.133040
     6  H    0.157433
     7  H    0.150918
     8  H    0.151752
 Sum of Mulliken charges =  -0.00000

 Dipole moment (field-independent basis, Debye):
    X=             -0.0091    Y=              0.0367    Z=             -0.0768  Tot=              0.0856
 Quadrupole moment (field-independent basis, Debye-Ang):
   XX=            -15.6666   YY=            -14.5860   ZZ=            -14.9615
   XY=             -0.4307   XZ=             -0.1026   YZ=              0.0452

 Normal termination of Gaussian 16 at Fri Sep 22 16:30:38 2023.
