 Gaussian 16, Revision A.03,
 Gaussian 16:  ES64L-G16RevA.03 25-Dec-2016

 ----------------
 # 6-31g(d) wb97x
 ----------------

 ----------------------
 tmpdir/M2_conf_2_7.gjf
 ----------------------
 Symbolic Z-matrix:
 Charge =  0 Multiplicity = 1

                         Standard orientation:
 ---------------------------------------------------------------------
 Center     Atomic      Atomic             Coordinates (Angstroms)
 Number     Number       Type             X           Y           Z
 ---------------------------------------------------------------------
      1          6           0        0.661456   -0.013422    0.004427
      2          6           0       -0.674325    0.001276   -0.005616
      3          1           0        1.278226    0.928267    0.001179
      4          1           0        1.233785   -0.934901   -0.013693
      5          1           0       -1.282527   -0.898021    0.017435
      6          1           0       -1.152266    0.977531    0.002209
 ---------------------------------------------------------------------

 SCF Done:  E(RwB97X) =  -78.5555877992     A.U. after   12 cycles

 The electronic state is 1-A.
 Alpha  occ. eigenvalues --  -10.27130 -10.26808  -0.88288  -0.69281  -0.57625
 Alpha  occ. eigenvalues --   -0.51787  -0.45295  -0.36737
 Alpha virt. eigenvalues --    0.11193   0.21549   0.23691   0.25785   0.34699
 Alpha virt. eigenvalues --    0.42519   0.58641   0.65648   0.67867   0.74940
 Alpha virt. eigenvalues --    0.75897   0.81417   0.95793   0.99188   1.04438

 Mulliken charges:
               1
     1  C   -0.323054
     2  C   -0.321518
     3  H    0.156442
     4  H    0.160444
     5  H    0.167590
     6  H    0.160096
 Sum of Mulliken charges =   0.00000

 Dipole moment (field-independent basis, Debye):
    X=              0.0045    Y=             -0.0101    Z=              0.0071  Tot=              0.0131
 Quadrupole moment (field-independent basis, Debye-Ang):
   XX=            -11.9714   YY=            -12.0110   ZZ=            -15.1717
   XY=              0.1272   XZ=             -0.0435   YZ=             -0.0003

 Normal termination of Gaussian 16 at Fri Sep 22 16:32:32 2023.
