 Gaussian 16, Revision A.03,
 Gaussian 16:  ES64L-G16RevA.03 25-Dec-2016

 ----------------
 # 6-31g(d) wb97x
 ----------------

 ----------------------
 tmpdir/M2_conf_1_2.gjf
 ----------------------
 Symbolic Z-matrix:
 Charge =  0 Multiplicity = 1

                         Standard orientation:
 ---------------------------------------------------------------------
 Center     Atomic      Atomic             Coordinates (Angstroms)
 Number     Number       Type             X           Y           Z
 ---------------------------------------------------------------------
      1          6           0       -0.644328    0.496713   -0.000219
      2          6           0        0.629562   -0.373757   -0.005522
      3          6           0       -1.832817   -0.279664    0.000523
      4          1           0       -0.481667    1.502533    0.005281
      5          1           0        0.452088   -1.443860    0.014213
      6          6           0        1.852514    0.146929    0.001968
 ---------------------------------------------------------------------

 SCF Done:  E(RwB97X) =  -153.251220527     A.U. after   18 cycles

 The electronic state is 1-A.
 Alpha  occ. eigenvalues --  -10.37870 -10.35257 -10.32865 -10.31584  -0.96443
 Alpha  occ. eigenvalues --   -0.86582  -0.69712  -0.66035  -0.55438  -0.45750
 Alpha  occ. eigenvalues --   -0.43046  -0.40908  -0.35120
 Alpha virt. eigenvalues --   -0.03433  -0.00441   0.04478   0.13984   0.21944
 Alpha virt. eigenvalues --    0.26173   0.31973   0.40853   0.45172   0.58363
 Alpha virt. eigenvalues --    0.61026   0.62401   0.65133   0.66702   0.68624

 Mulliken charges:
               1
     1  C   -0.238882
     2  C   -0.279034
     3  C    0.033463
     4  H    0.232527
     5  H    0.240267
     6  C    0.011659
 Sum of Mulliken charges =  -0.00000

 Dipole moment (field-independent basis, Debye):
    X=             -0.4493    Y=              0.2250    Z=              0.0196  Tot=              0.5028
 Quadrupole moment (field-independent basis, Debye-Ang):
   XX=            -31.6569   YY=            -19.3549   ZZ=            -25.5638
   XY=             -4.0936   XZ=             -0.0025   YZ=             -0.0234

 Normal termination of Gaussian 16 at Fri Sep 22 16:31:33 2023.
