 Gaussian 16, Revision A.03,
 Gaussian 16:  ES64L-G16RevA.03 25-Dec-2016

 ----------------
 # 6-31g(d) wb97x
 ----------------

 ------------------------
 tmpdir/M2_conf_1_103.gjf
 ------------------------
 Symbolic Z-matrix:
 Charge =  0 Multiplicity = 1

                         Standard orientation:
 ---------------------------------------------------------------------
 Center     Atomic      Atomic             Coordinates (Angstroms)
 Number     Number       Type             X           Y           Z
 ---------------------------------------------------------------------
      1          6           0        0.764107    0.006293   -0.002966
      2          6           0       -0.761666   -0.001226    0.002098
      3          1           0       -1.121024   -0.096546   -1.028702
      4          1           0        1.098162   -1.024317   -0.460637
      5          1           0        1.190371    0.877495   -0.539272
      6          1           0        1.118118    0.041358    1.044678
      7          1           0       -1.199989   -0.804548    0.621429
      8          1           0       -1.100285    0.976161    0.367711
 ---------------------------------------------------------------------

 SCF Done:  E(RwB97X) =  -79.7951600178     A.U. after   12 cycles

 The electronic state is 1-A.
 Alpha  occ. eigenvalues --  -10.26570 -10.25584  -0.87828  -0.72558  -0.54484
 Alpha  occ. eigenvalues --   -0.53907  -0.46500  -0.44089  -0.43139
 Alpha virt. eigenvalues --    0.19187   0.24940   0.25208   0.26075   0.27724
 Alpha virt. eigenvalues --    0.29047   0.33544   0.61521   0.65147   0.66801
 Alpha virt. eigenvalues --    0.72913   0.76053   0.78768   0.96694   0.99507

 Mulliken charges:
               1
     1  C   -0.455850
     2  C   -0.462721
     3  H    0.156166
     4  H    0.136177
     5  H    0.159568
     6  H    0.155223
     7  H    0.157940
     8  H    0.153497
 Sum of Mulliken charges =  -0.00000

 Dipole moment (field-independent basis, Debye):
    X=             -0.0502    Y=              0.0627    Z=              0.0311  Tot=              0.0861
 Quadrupole moment (field-independent basis, Debye-Ang):
   XX=            -15.6780   YY=            -14.5607   ZZ=            -14.7991
   XY=              0.2584   XZ=             -0.0028   YZ=             -0.0889

 Normal termination of Gaussian 16 at Fri Sep 22 16:32:15 2023.
