 Gaussian 16, Revision A.03,
 Gaussian 16:  ES64L-G16RevA.03 25-Dec-2016

 ----------------
 # 6-31g(d) wb97x
 ----------------

 ----------------------
 tmpdir/M2_conf_2_5.gjf
 ----------------------
 Symbolic Z-matrix:
 Charge = -1 Multiplicity = 1

                         Standard orientation:
 ---------------------------------------------------------------------
 Center     Atomic      Atomic             Coordinates (Angstroms)
 Number     Number       Type             X           Y           Z
 ---------------------------------------------------------------------
      1          8           0       -0.671248    1.299608    0.001523
      2          6           0       -0.584593    0.061742   -0.001923
      3          6           0        0.845877   -0.547978   -0.004670
      4          8           0       -1.448518   -0.843728    0.000299
      5          1           0        0.880763   -1.632086    0.017924
      6          8           0        1.813708    0.112808    0.000883
 ---------------------------------------------------------------------

 SCF Done:  E(RwB97X) =  -302.433483236     A.U. after   17 cycles

 The electronic state is 1-A.
 Alpha  occ. eigenvalues --  -19.04027 -18.94071 -18.93970 -10.16038 -10.14102
 Alpha  occ. eigenvalues --   -1.01578  -0.93285  -0.84912  -0.56985  -0.44863
 Alpha  occ. eigenvalues --   -0.38618  -0.34822  -0.34318  -0.29266  -0.27481
 Alpha  occ. eigenvalues --   -0.20957  -0.13393  -0.12581  -0.11131
 Alpha virt. eigenvalues --    0.24447   0.41343   0.42645   0.53643   0.59996
 Alpha virt. eigenvalues --    0.64109   0.72610   0.81374   0.91003   0.91634
 Alpha virt. eigenvalues --    0.97847   0.99944   1.03014   1.07899   1.11746

 Mulliken charges:
               1
     1  O   -0.607993
     2  C    0.444171
     3  C    0.128985
     4  O   -0.629967
     5  H    0.052293
     6  O   -0.387490
 Sum of Mulliken charges =  -1.00000

 Dipole moment (field-independent basis, Debye):
    X=              2.5927    Y=             -1.8675    Z=             -0.0131  Tot=              3.1953
 Quadrupole moment (field-independent basis, Debye-Ang):
   XX=            -41.6254   YY=            -35.6650   ZZ=            -26.8433
   XY=             -2.3218   XZ=              0.0009   YZ=             -0.0001

 Normal termination of Gaussian 16 at Fri Sep 22 16:32:43 2023.
