 Gaussian 16, Revision A.03,
 Gaussian 16:  ES64L-G16RevA.03 25-Dec-2016

 ----------------
 # 6-31g(d) wb97x
 ----------------

 -----------------------
 tmpdir/M2_conf_1_14.gjf
 -----------------------
 Symbolic Z-matrix:
 Charge =  0 Multiplicity = 1

                         Standard orientation:
 ---------------------------------------------------------------------
 Center     Atomic      Atomic             Coordinates (Angstroms)
 Number     Number       Type             X           Y           Z
 ---------------------------------------------------------------------
      1          6           0       -0.931732    0.408029    0.047670
      2          6           0        0.524797    0.749600   -0.041523
      3          6           0        1.383151   -0.511106    0.028925
      4          1           0       -1.619563    1.291108    0.167089
      5          8           0       -1.325736   -0.692686   -0.033203
      6          1           0        0.757011    1.476554    0.744027
      7          1           0        0.680275    1.296125   -0.984454
      8          1           0        2.453088   -0.226260   -0.389129
      9          1           0        0.931255   -1.343063   -0.546281
     10          1           0        1.546529   -0.832119    1.063941
 ---------------------------------------------------------------------

 SCF Done:  E(RwB97X) =  -193.082530974     A.U. after   14 cycles

 The electronic state is 1-A.
 Alpha  occ. eigenvalues --  -19.21749 -10.35832 -10.27952 -10.27193  -1.19546
 Alpha  occ. eigenvalues --   -0.91210  -0.78408  -0.67000  -0.60746  -0.57809
 Alpha  occ. eigenvalues --   -0.55310  -0.49866  -0.47499  -0.46502  -0.44910
 Alpha  occ. eigenvalues --   -0.35384
 Alpha virt. eigenvalues --    0.08817   0.18882   0.21896   0.22744   0.25025
 Alpha virt. eigenvalues --    0.27318   0.29810   0.31286   0.38233   0.40285
 Alpha virt. eigenvalues --    0.61886   0.63867   0.67253   0.69602   0.70321

 Mulliken charges:
               1
     1  C    0.244350
     2  C   -0.383509
     3  C   -0.468381
     4  H    0.111750
     5  O   -0.356960
     6  H    0.173731
     7  H    0.183316
     8  H    0.134654
     9  H    0.190668
    10  H    0.170382
 Sum of Mulliken charges =  -0.00000

 Dipole moment (field-independent basis, Debye):
    X=              1.1472    Y=              2.0640    Z=              0.1016  Tot=              2.3635
 Quadrupole moment (field-independent basis, Debye-Ang):
   XX=            -27.0164   YY=            -25.0250   ZZ=            -24.0062
   XY=             -2.1876   XZ=             -0.0386   YZ=             -0.0794

 Normal termination of Gaussian 16 at Fri Sep 22 16:31:35 2023.
