 Gaussian 16, Revision A.03,
 Gaussian 16:  ES64L-G16RevA.03 25-Dec-2016

 ----------------
 # 6-31g(d) wb97x
 ----------------

 ------------------------
 tmpdir/M2_conf_0_121.gjf
 ------------------------
 Symbolic Z-matrix:
 Charge =  0 Multiplicity = 1

                         Standard orientation:
 ---------------------------------------------------------------------
 Center     Atomic      Atomic             Coordinates (Angstroms)
 Number     Number       Type             X           Y           Z
 ---------------------------------------------------------------------
      1          6           0        0.762631   -0.005460   -0.002122
      2          6           0       -0.764767   -0.005075    0.000349
      3          1           0       -1.177809   -0.525633    0.871417
      4          1           0        1.219442   -1.002507   -0.161962
      5          1           0        1.132669    0.681447   -0.771976
      6          1           0        1.144953    0.380416    0.952447
      7          1           0       -1.147719    1.019323    0.018981
      8          1           0       -1.158723   -0.489834   -0.898272
 ---------------------------------------------------------------------

 SCF Done:  E(RwB97X) =  -79.8007599358     A.U. after   12 cycles

 The electronic state is 1-A.
 Alpha  occ. eigenvalues --  -10.25641 -10.25474  -0.87862  -0.73438  -0.54157
 Alpha  occ. eigenvalues --   -0.53984  -0.46781  -0.44191  -0.43906
 Alpha virt. eigenvalues --    0.20011   0.25310   0.25699   0.25930   0.29091
 Alpha virt. eigenvalues --    0.29491   0.34044   0.61799   0.64843   0.64884
 Alpha virt. eigenvalues --    0.74165   0.75499   0.78884   0.99896   0.99994

 Mulliken charges:
               1
     1  C   -0.468886
     2  C   -0.468464
     3  H    0.156736
     4  H    0.155547
     5  H    0.156229
     6  H    0.154948
     7  H    0.157019
     8  H    0.156871
 Sum of Mulliken charges =  -0.00000

 Dipole moment (field-independent basis, Debye):
    X=             -0.0071    Y=              0.0367    Z=              0.0040  Tot=              0.0376
 Quadrupole moment (field-independent basis, Debye-Ang):
   XX=            -15.2244   YY=            -14.6522   ZZ=            -14.7565
   XY=             -0.0421   XZ=             -0.0071   YZ=             -0.0052

 Normal termination of Gaussian 16 at Fri Sep 22 16:31:09 2023.
