 Gaussian 16, Revision A.03,
 Gaussian 16:  ES64L-G16RevA.03 25-Dec-2016

 ----------------
 # 6-31g(d) wb97x
 ----------------

 -----------------------
 tmpdir/M2_conf_1_63.gjf
 -----------------------
 Symbolic Z-matrix:
 Charge =  0 Multiplicity = 1

                         Standard orientation:
 ---------------------------------------------------------------------
 Center     Atomic      Atomic             Coordinates (Angstroms)
 Number     Number       Type             X           Y           Z
 ---------------------------------------------------------------------
      1          6           0        0.660906   -0.010716    0.004427
      2          6           0       -0.668201    0.001437   -0.005540
      3          1           0       -1.192377    0.953671    0.001858
      4          1           0        1.275923    0.932121    0.001336
      5          1           0        1.234948   -0.931126   -0.013872
      6          1           0       -1.274727   -0.898990    0.017354
 ---------------------------------------------------------------------

 SCF Done:  E(RwB97X) =  -78.5562192913     A.U. after   12 cycles

 The electronic state is 1-A.
 Alpha  occ. eigenvalues --  -10.27084 -10.26728  -0.88385  -0.69369  -0.57451
 Alpha  occ. eigenvalues --   -0.52142  -0.45126  -0.36866
 Alpha virt. eigenvalues --    0.11322   0.21747   0.23599   0.25704   0.34813
 Alpha virt. eigenvalues --    0.42936   0.58495   0.65546   0.67537   0.74995
 Alpha virt. eigenvalues --    0.76066   0.81689   0.95646   0.99160   1.04605

 Mulliken charges:
               1
     1  C   -0.321913
     2  C   -0.321012
     3  H    0.160272
     4  H    0.156332
     5  H    0.161266
     6  H    0.165055
 Sum of Mulliken charges =   0.00000

 Dipole moment (field-independent basis, Debye):
    X=             -0.0048    Y=             -0.0124    Z=              0.0063  Tot=              0.0148
 Quadrupole moment (field-independent basis, Debye-Ang):
   XX=            -11.8942   YY=            -12.0709   ZZ=            -15.1481
   XY=              0.0707   XZ=             -0.0430   YZ=             -0.0000

 Normal termination of Gaussian 16 at Fri Sep 22 16:31:43 2023.
