 Gaussian 16, Revision A.03,
 Gaussian 16:  ES64L-G16RevA.03 25-Dec-2016

 ----------------
 # 6-31g(d) wb97x
 ----------------

 -----------------------
 tmpdir/M2_conf_0_95.gjf
 -----------------------
 Symbolic Z-matrix:
 Charge =  0 Multiplicity = 1

                         Standard orientation:
 ---------------------------------------------------------------------
 Center     Atomic      Atomic             Coordinates (Angstroms)
 Number     Number       Type             X           Y           Z
 ---------------------------------------------------------------------
      1          6           0        0.228164    0.459692   -0.003413
      2          6           0       -1.151981   -0.149952    0.000224
      3          1           0       -1.957532    0.587127   -0.036626
      4          1           0        0.269390    1.513121    0.008339
      5          8           0        1.215713   -0.297451    0.000703
      6          1           0       -1.260063   -0.759347    0.901471
      7          1           0       -1.234596   -0.819734   -0.859673
 ---------------------------------------------------------------------

 SCF Done:  E(RwB97X) =  -153.779149223     A.U. after   14 cycles

 The electronic state is 1-A.
 Alpha  occ. eigenvalues --  -19.21628 -10.36547 -10.27620  -1.15336  -0.87957
 Alpha  occ. eigenvalues --   -0.71691  -0.58785  -0.55181  -0.53506  -0.50213
 Alpha  occ. eigenvalues --   -0.45396  -0.35774
 Alpha virt. eigenvalues --    0.06187   0.21015   0.22479   0.27149   0.27325
 Alpha virt. eigenvalues --    0.33663   0.37386   0.63211   0.64089   0.68362
 Alpha virt. eigenvalues --    0.70665   0.75429   0.82539   0.88481   0.96331

 Mulliken charges:
               1
     1  C    0.222754
     2  C   -0.553793
     3  H    0.164483
     4  H    0.153196
     5  O   -0.396204
     6  H    0.204918
     7  H    0.204646
 Sum of Mulliken charges =  -0.00000

 Dipole moment (field-independent basis, Debye):
    X=             -2.4110    Y=              1.2436    Z=              0.0085  Tot=              2.7129
 Quadrupole moment (field-independent basis, Debye-Ang):
   XX=            -20.8856   YY=            -17.2615   ZZ=            -17.5230
   XY=              1.1364   XZ=             -0.0182   YZ=             -0.0015

 Normal termination of Gaussian 16 at Fri Sep 22 16:31:07 2023.
