 Gaussian 16, Revision A.03,
 Gaussian 16:  ES64L-G16RevA.03 25-Dec-2016

 ----------------
 # 6-31g(d) wb97x
 ----------------

 -----------------------
 tmpdir/M2_conf_1_83.gjf
 -----------------------
 Symbolic Z-matrix:
 Charge =  0 Multiplicity = 1

                         Standard orientation:
 ---------------------------------------------------------------------
 Center     Atomic      Atomic             Coordinates (Angstroms)
 Number     Number       Type             X           Y           Z
 ---------------------------------------------------------------------
      1          6           0       -0.765058   -0.005211    0.000094
      2          6           0        0.762339   -0.005102   -0.002652
      3          1           0        1.141494    0.350112    0.964990
      4          1           0       -1.148279    1.017951    0.052021
      5          1           0       -1.169290   -0.555722    0.856756
      6          1           0       -1.159050   -0.460666   -0.913711
      7          1           0        1.219385   -0.996318   -0.194832
      8          1           0        1.132056    0.706518   -0.749874
 ---------------------------------------------------------------------

 SCF Done:  E(RwB97X) =  -79.8007606651     A.U. after   12 cycles

 The electronic state is 1-A.
 Alpha  occ. eigenvalues --  -10.25631 -10.25472  -0.87871  -0.73408  -0.54177
 Alpha  occ. eigenvalues --   -0.54014  -0.46732  -0.44190  -0.43921
 Alpha virt. eigenvalues --    0.19992   0.25319   0.25729   0.25940   0.29073
 Alpha virt. eigenvalues --    0.29479   0.34015   0.61780   0.64856   0.64956
 Alpha virt. eigenvalues --    0.74070   0.75477   0.78884   0.99896   1.00004

 Mulliken charges:
               1
     1  C   -0.468156
     2  C   -0.468881
     3  H    0.154841
     4  H    0.157076
     5  H    0.156653
     6  H    0.156884
     7  H    0.155523
     8  H    0.156061
 Sum of Mulliken charges =   0.00000

 Dipole moment (field-independent basis, Debye):
    X=             -0.0065    Y=              0.0361    Z=              0.0057  Tot=              0.0371
 Quadrupole moment (field-independent basis, Debye-Ang):
   XX=            -15.2480   YY=            -14.6482   ZZ=            -14.7469
   XY=             -0.0497   XZ=             -0.0035   YZ=             -0.0047

 Normal termination of Gaussian 16 at Fri Sep 22 16:32:07 2023.
