 Gaussian 16, Revision A.03,
 Gaussian 16:  ES64L-G16RevA.03 25-Dec-2016

 ----------------
 # 6-31g(d) wb97x
 ----------------

 -----------------------
 tmpdir/M2_conf_0_65.gjf
 -----------------------
 Symbolic Z-matrix:
 Charge =  0 Multiplicity = 1

                         Standard orientation:
 ---------------------------------------------------------------------
 Center     Atomic      Atomic             Coordinates (Angstroms)
 Number     Number       Type             X           Y           Z
 ---------------------------------------------------------------------
      1          8           0        0.727369    0.123410    0.016932
      2          6           0       -0.666130   -0.019895    0.004860
      3          1           0        1.251397   -0.697738   -0.063181
      4          1           0       -1.061851   -0.489899    0.927265
      5          1           0       -1.080198    0.987763   -0.177056
      6          1           0       -0.931519   -0.668043   -0.851644
 ---------------------------------------------------------------------

 SCF Done:  E(RwB97X) =  -115.676315534     A.U. after   13 cycles

 The electronic state is 1-A.
 Alpha  occ. eigenvalues --  -19.20132 -10.30868  -1.13201  -0.80108  -0.61343
 Alpha  occ. eigenvalues --   -0.54453  -0.53150  -0.41820  -0.36334
 Alpha virt. eigenvalues --    0.17631   0.22907   0.26825   0.27507   0.31640
 Alpha virt. eigenvalues --    0.65442   0.67130   0.69076   0.89880   0.96370
 Alpha virt. eigenvalues --    0.98405   1.01981   1.06897   1.09421   1.11954

 Mulliken charges:
               1
     1  O   -0.635853
     2  C   -0.211783
     3  H    0.403488
     4  H    0.138885
     5  H    0.171873
     6  H    0.133391
 Sum of Mulliken charges =  -0.00000

 Dipole moment (field-independent basis, Debye):
    X=             -0.5465    Y=             -1.5260    Z=             -0.2008  Tot=              1.6333
 Quadrupole moment (field-independent basis, Debye-Ang):
   XX=            -12.0410   YY=            -12.1402   ZZ=            -13.5714
   XY=             -2.3887   XZ=             -0.2231   YZ=              0.0015

 Normal termination of Gaussian 16 at Fri Sep 22 16:30:47 2023.
