 Gaussian 16, Revision A.03,
 Gaussian 16:  ES64L-G16RevA.03 25-Dec-2016

 ----------------
 # 6-31g(d) wb97x
 ----------------

 -----------------------
 tmpdir/M2_conf_1_50.gjf
 -----------------------
 Symbolic Z-matrix:
 Charge =  0 Multiplicity = 1

                         Standard orientation:
 ---------------------------------------------------------------------
 Center     Atomic      Atomic             Coordinates (Angstroms)
 Number     Number       Type             X           Y           Z
 ---------------------------------------------------------------------
      1          6           0       -0.731828   -0.014184    0.003060
      2          7           0        0.738503   -0.032644   -0.024255
      3          1           0        1.200082    0.868958    0.038026
      4          1           0       -1.272372   -0.852259   -0.479280
      5          1           0       -1.017366    0.940513   -0.512152
      6          1           0       -1.066286    0.072596    1.047382
      7          1           0        1.377391   -0.716199    0.057451
 ---------------------------------------------------------------------

 SCF Done:  E(RwB97X) =  -95.8017460491     A.U. after   13 cycles

 The electronic state is 1-A.
 Alpha  occ. eigenvalues --  -14.36323 -10.28892  -0.98002  -0.78455  -0.59638
 Alpha  occ. eigenvalues --   -0.53490  -0.51374  -0.46980  -0.29979
 Alpha virt. eigenvalues --    0.19648   0.23332   0.25173   0.28127   0.31270
 Alpha virt. eigenvalues --    0.34631   0.64699   0.67222   0.69963   0.87668
 Alpha virt. eigenvalues --    0.89797   0.93094   0.98785   1.00318   1.06749

 Mulliken charges:
               1
     1  C   -0.290579
     2  N   -0.804491
     3  H    0.310252
     4  H    0.161770
     5  H    0.151705
     6  H    0.144988
     7  H    0.326355
 Sum of Mulliken charges =   0.00000

 Dipole moment (field-independent basis, Debye):
    X=              0.2164    Y=              0.1725    Z=              0.2300  Tot=              0.3599
 Quadrupole moment (field-independent basis, Debye-Ang):
   XX=            -11.9080   YY=            -12.2681   ZZ=            -15.5335
   XY=              0.1546   XZ=              0.6199   YZ=             -0.0099

 Normal termination of Gaussian 16 at Fri Sep 22 16:31:51 2023.
