 Gaussian 16, Revision A.03,
 Gaussian 16:  ES64L-G16RevA.03 25-Dec-2016

 ----------------
 # 6-31g(d) wb97x
 ----------------

 -----------------------
 tmpdir/M2_conf_1_23.gjf
 -----------------------
 Symbolic Z-matrix:
 Charge =  1 Multiplicity = 1

                         Standard orientation:
 ---------------------------------------------------------------------
 Center     Atomic      Atomic             Coordinates (Angstroms)
 Number     Number       Type             X           Y           Z
 ---------------------------------------------------------------------
      1          6           0        1.287671   -0.246319   -0.003790
      2          6           0        0.032634    0.623092    0.007368
      3          7           0       -1.183250   -0.264970   -0.003716
      4          1           0        2.189591    0.277869   -0.301726
      5          1           0        1.464404   -0.708018    0.973485
      6          1           0        1.152702   -1.093215   -0.694103
      7          1           0        0.011051    1.316658   -0.856184
      8          1           0       -0.053312    1.197754    0.936543
      9          1           0       -2.058904    0.345672   -0.136691
     10          1           0       -1.115904   -0.932153   -0.776147
     11          1           0       -1.228705   -0.810409    0.859369
 ---------------------------------------------------------------------

 SCF Done:  E(RwB97X) =  -135.491514997     A.U. after   12 cycles

 The electronic state is 1-A.
 Alpha  occ. eigenvalues --  -14.75590 -10.53001 -10.44934  -1.34394  -1.08977
 Alpha  occ. eigenvalues --   -0.96719  -0.91524  -0.89452  -0.80429  -0.74791
 Alpha  occ. eigenvalues --   -0.68854  -0.67132  -0.64763
 Alpha virt. eigenvalues --   -0.07803  -0.01476  -0.00563   0.01902   0.04818
 Alpha virt. eigenvalues --    0.06273   0.08140   0.12130   0.12416   0.14176
 Alpha virt. eigenvalues --    0.41183   0.42628   0.43713   0.46416   0.50609

 Mulliken charges:
               1
     1  C   -0.526805
     2  C   -0.249478
     3  N   -0.743808
     4  H    0.257785
     5  H    0.215739
     6  H    0.187810
     7  H    0.259303
     8  H    0.255034
     9  H    0.455832
    10  H    0.440589
    11  H    0.447999
 Sum of Mulliken charges =   1.00000

 Dipole moment (field-independent basis, Debye):
    X=             -3.9333    Y=             -0.6841    Z=             -0.0419  Tot=              3.9925
 Quadrupole moment (field-independent basis, Debye-Ang):
   XX=             -8.9634   YY=            -15.7484   ZZ=            -16.5334
   XY=              1.2164   XZ=             -0.0103   YZ=             -0.2595

 Normal termination of Gaussian 16 at Fri Sep 22 16:31:35 2023.
