 Gaussian 16, Revision A.03,
 Gaussian 16:  ES64L-G16RevA.03 25-Dec-2016

 ----------------
 # 6-31g(d) wb97x
 ----------------

 -----------------------
 tmpdir/M2_conf_1_18.gjf
 -----------------------
 Symbolic Z-matrix:
 Charge =  0 Multiplicity = 1

                         Standard orientation:
 ---------------------------------------------------------------------
 Center     Atomic      Atomic             Coordinates (Angstroms)
 Number     Number       Type             X           Y           Z
 ---------------------------------------------------------------------
      1          6           0       -0.768474    0.017594   -0.000147
      2          6           0        0.758297    0.010245    0.005711
      3          1           0        1.164324   -0.423407   -0.921143
      4          1           0       -1.118687   -1.014368   -0.461736
      5          1           0       -1.168514    0.875743   -0.575270
      6          1           0       -1.176945    0.040135    1.016529
      7          1           0        1.207692    0.991931    0.112259
      8          1           0        1.153196   -0.637063    0.795977
 ---------------------------------------------------------------------

 SCF Done:  E(RwB97X) =  -79.7947866673     A.U. after   12 cycles

 The electronic state is 1-A.
 Alpha  occ. eigenvalues --  -10.26623 -10.25397  -0.87691  -0.73078  -0.54386
 Alpha  occ. eigenvalues --   -0.53450  -0.46790  -0.44348  -0.43058
 Alpha virt. eigenvalues --    0.19383   0.23639   0.24928   0.25236   0.29745
 Alpha virt. eigenvalues --    0.30783   0.34023   0.61837   0.64569   0.65854
 Alpha virt. eigenvalues --    0.75138   0.76525   0.78868   0.96274   0.99436

 Mulliken charges:
               1
     1  C   -0.458065
     2  C   -0.470720
     3  H    0.155506
     4  H    0.135261
     5  H    0.159681
     6  H    0.161645
     7  H    0.160255
     8  H    0.156437
 Sum of Mulliken charges =  -0.00000

 Dipole moment (field-independent basis, Debye):
    X=              0.0633    Y=              0.0170    Z=              0.0390  Tot=              0.0762
 Quadrupole moment (field-independent basis, Debye-Ang):
   XX=            -15.3471   YY=            -14.5933   ZZ=            -14.8908
   XY=             -0.0898   XZ=             -0.1088   YZ=             -0.0834

 Normal termination of Gaussian 16 at Fri Sep 22 16:31:23 2023.
