 Gaussian 16, Revision A.03,
 Gaussian 16:  ES64L-G16RevA.03 25-Dec-2016

 ----------------
 # 6-31g(d) wb97x
 ----------------

 -----------------------
 tmpdir/M2_conf_1_21.gjf
 -----------------------
 Symbolic Z-matrix:
 Charge =  0 Multiplicity = 1

                         Standard orientation:
 ---------------------------------------------------------------------
 Center     Atomic      Atomic             Coordinates (Angstroms)
 Number     Number       Type             X           Y           Z
 ---------------------------------------------------------------------
      1          6           0       -0.772643    0.000551   -0.018440
      2          6           0        0.766291   -0.000307    0.015115
      3          1           0       -1.176849    1.028687   -0.053673
      4          1           0       -1.227373   -0.518239    0.943198
      5          1           0       -1.117461   -0.599170   -0.868397
      6          1           0        1.309022   -1.020794    0.034819
      7          1           0        1.145557    0.509558   -0.909347
      8          1           0        1.105216    0.598493    0.873351
 ---------------------------------------------------------------------

 SCF Done:  E(RwB97X) =  -79.7926489381     A.U. after   12 cycles

 The electronic state is 1-A.
 Alpha  occ. eigenvalues --  -10.26803 -10.26628  -0.87263  -0.72699  -0.54286
 Alpha  occ. eigenvalues --   -0.52764  -0.46798  -0.44254  -0.42810
 Alpha virt. eigenvalues --    0.19358   0.23794   0.24106   0.26288   0.27535
 Alpha virt. eigenvalues --    0.28884   0.33388   0.62051   0.65422   0.65878
 Alpha virt. eigenvalues --    0.73825   0.76998   0.78269   0.96554   0.98290

 Mulliken charges:
               1
     1  C   -0.454837
     2  C   -0.459782
     3  H    0.161713
     4  H    0.134301
     5  H    0.161306
     6  H    0.148362
     7  H    0.150483
     8  H    0.158454
 Sum of Mulliken charges =  -0.00000

 Dipole moment (field-independent basis, Debye):
    X=              0.0130    Y=              0.0696    Z=             -0.0585  Tot=              0.0918
 Quadrupole moment (field-independent basis, Debye-Ang):
   XX=            -15.3601   YY=            -14.7318   ZZ=            -14.9459
   XY=             -0.1756   XZ=             -0.0259   YZ=              0.1268

 Normal termination of Gaussian 16 at Fri Sep 22 16:31:23 2023.
