 Gaussian 16, Revision A.03,
 Gaussian 16:  ES64L-G16RevA.03 25-Dec-2016

 ----------------
 # 6-31g(d) wb97x
 ----------------

 -----------------------
 tmpdir/M2_conf_1_15.gjf
 -----------------------
 Symbolic Z-matrix:
 Charge =  0 Multiplicity = 1

                         Standard orientation:
 ---------------------------------------------------------------------
 Center     Atomic      Atomic             Coordinates (Angstroms)
 Number     Number       Type             X           Y           Z
 ---------------------------------------------------------------------
      1          6           0        0.248162    0.400855   -0.007845
      2          6           0       -1.144734   -0.152256   -0.004733
      3          1           0       -1.717059    0.420709   -0.742047
      4          1           0        0.312323    1.524586    0.009925
      5          8           0        1.197657   -0.285945    0.002879
      6          1           0       -1.200515   -1.241427   -0.184419
      7          1           0       -1.596573    0.092098    0.968979
 ---------------------------------------------------------------------

 SCF Done:  E(RwB97X) =  -153.782043540     A.U. after   14 cycles

 The electronic state is 1-A.
 Alpha  occ. eigenvalues --  -19.21527 -10.36163 -10.27711  -1.19303  -0.88076
 Alpha  occ. eigenvalues --   -0.69512  -0.59293  -0.55795  -0.54801  -0.50520
 Alpha  occ. eigenvalues --   -0.47262  -0.35375
 Alpha virt. eigenvalues --    0.08918   0.20440   0.22273   0.25183   0.25897
 Alpha virt. eigenvalues --    0.35351   0.38476   0.63053   0.65523   0.69115
 Alpha virt. eigenvalues --    0.70479   0.79093   0.85331   0.87273   0.95102

 Mulliken charges:
               1
     1  C    0.246415
     2  C   -0.558486
     3  H    0.174480
     4  H    0.108860
     5  O   -0.354123
     6  H    0.196722
     7  H    0.186131
 Sum of Mulliken charges =   0.00000

 Dipole moment (field-independent basis, Debye):
    X=             -2.2647    Y=              1.1001    Z=              0.0471  Tot=              2.5182
 Quadrupole moment (field-independent basis, Debye-Ang):
   XX=            -20.6303   YY=            -17.6031   ZZ=            -17.6203
   XY=              0.9097   XZ=             -0.1170   YZ=              0.0173

 Normal termination of Gaussian 16 at Fri Sep 22 16:31:24 2023.
