 Gaussian 16, Revision A.03,
 Gaussian 16:  ES64L-G16RevA.03 25-Dec-2016

 ----------------
 # 6-31g(d) wb97x
 ----------------

 ------------------------
 tmpdir/M2_conf_0_124.gjf
 ------------------------
 Symbolic Z-matrix:
 Charge =  0 Multiplicity = 1

                         Standard orientation:
 ---------------------------------------------------------------------
 Center     Atomic      Atomic             Coordinates (Angstroms)
 Number     Number       Type             X           Y           Z
 ---------------------------------------------------------------------
      1          1           0        0.301900   -0.190098    1.029148
      2          6           0       -0.007530    0.001759   -0.002279
      3          1           0        0.367467   -0.823220   -0.615878
      4          1           0       -1.108451    0.078878   -0.068451
      5          1           0        0.484267    0.923888   -0.331145
 ---------------------------------------------------------------------

 SCF Done:  E(RwB97X) =  -40.4991171971     A.U. after   11 cycles

 The electronic state is 1-A.
 Alpha  occ. eigenvalues --  -10.25065  -0.81658  -0.49857  -0.49261  -0.49124
 Alpha virt. eigenvalues --    0.21531   0.27387   0.27431   0.27458   0.63858
 Alpha virt. eigenvalues --    0.63965   0.64719   1.01316   1.01503   1.01569
 Alpha virt. eigenvalues --    1.06762   1.20751   1.75853   1.75886   2.33233

 Mulliken charges:
               1
     1  H    0.166195
     2  C   -0.665943
     3  H    0.166521
     4  H    0.166636
     5  H    0.166592
 Sum of Mulliken charges =  -0.00000

 Dipole moment (field-independent basis, Debye):
    X=              0.0380    Y=             -0.0087    Z=              0.0106  Tot=              0.0404
 Quadrupole moment (field-independent basis, Debye-Ang):
   XX=             -8.1378   YY=             -8.3075   ZZ=             -8.3414
   XY=              0.0002   XZ=             -0.0007   YZ=              0.0004

 Normal termination of Gaussian 16 at Fri Sep 22 16:31:04 2023.
