 Gaussian 16, Revision A.03,
 Gaussian 16:  ES64L-G16RevA.03 25-Dec-2016

 ----------------
 # 6-31g(d) wb97x
 ----------------

 -----------------------
 tmpdir/M2_conf_2_11.gjf
 -----------------------
 Symbolic Z-matrix:
 Charge =  0 Multiplicity = 1

                         Standard orientation:
 ---------------------------------------------------------------------
 Center     Atomic      Atomic             Coordinates (Angstroms)
 Number     Number       Type             X           Y           Z
 ---------------------------------------------------------------------
      1          6           0        0.760576    0.010181    0.005031
      2          6           0       -0.767596    0.018347    0.000823
      3          1           0        1.210697    0.994204    0.083064
      4          1           0        1.156060   -0.614641    0.812906
      5          1           0        1.136994   -0.454549   -0.919263
      6          1           0       -1.119006   -1.026104   -0.430806
      7          1           0       -1.167827    0.860050   -0.597982
      8          1           0       -1.174796    0.069873    1.016956
 ---------------------------------------------------------------------

 SCF Done:  E(RwB97X) =  -79.7948521414     A.U. after   12 cycles

 The electronic state is 1-A.
 Alpha  occ. eigenvalues --  -10.26601 -10.25410  -0.87687  -0.73012  -0.54372
 Alpha  occ. eigenvalues --   -0.53585  -0.46599  -0.44359  -0.43137
 Alpha virt. eigenvalues --    0.19334   0.23679   0.24931   0.25312   0.29668
 Alpha virt. eigenvalues --    0.30788   0.33932   0.61833   0.64657   0.65902
 Alpha virt. eigenvalues --    0.74872   0.76547   0.78807   0.96215   0.99463

 Mulliken charges:
               1
     1  C   -0.469585
     2  C   -0.458521
     3  H    0.160536
     4  H    0.156679
     5  H    0.155385
     6  H    0.134900
     7  H    0.159555
     8  H    0.161050
 Sum of Mulliken charges =  -0.00000

 Dipole moment (field-independent basis, Debye):
    X=              0.0606    Y=              0.0189    Z=              0.0367  Tot=              0.0734
 Quadrupole moment (field-independent basis, Debye-Ang):
   XX=            -15.3987   YY=            -14.5912   ZZ=            -14.8624
   XY=             -0.0776   XZ=             -0.0732   YZ=             -0.0801

 Normal termination of Gaussian 16 at Fri Sep 22 16:32:44 2023.
