 Gaussian 16, Revision A.03,
 Gaussian 16:  ES64L-G16RevA.03 25-Dec-2016

 ----------------
 # 6-31g(d) wb97x
 ----------------

 -----------------------
 tmpdir/M2_conf_1_99.gjf
 -----------------------
 Symbolic Z-matrix:
 Charge =  0 Multiplicity = 1

                         Standard orientation:
 ---------------------------------------------------------------------
 Center     Atomic      Atomic             Coordinates (Angstroms)
 Number     Number       Type             X           Y           Z
 ---------------------------------------------------------------------
      1          6           0       -0.765912    0.001284   -0.003231
      2          6           0        0.765685    0.004361   -0.003881
      3          1           0       -1.211841    0.753669   -0.677754
      4          1           0       -1.131089   -0.991559   -0.289043
      5          1           0       -1.137148    0.197894    1.010258
      6          1           0        1.164601   -0.679765    0.751607
      7          1           0        1.158259    1.006014    0.222043
      8          1           0        1.158585   -0.320121   -0.974441
 ---------------------------------------------------------------------

 SCF Done:  E(RwB97X) =  -79.8009711060     A.U. after   12 cycles

 The electronic state is 1-A.
 Alpha  occ. eigenvalues --  -10.25617 -10.25542  -0.87801  -0.73387  -0.54183
 Alpha  occ. eigenvalues --   -0.54000  -0.46603  -0.44167  -0.44037
 Alpha virt. eigenvalues --    0.19964   0.25377   0.25925   0.26162   0.28847
 Alpha virt. eigenvalues --    0.29132   0.33818   0.61883   0.64706   0.65171
 Alpha virt. eigenvalues --    0.73956   0.75234   0.78636   1.00035   1.00136

 Mulliken charges:
               1
     1  C   -0.468012
     2  C   -0.468445
     3  H    0.156400
     4  H    0.155939
     5  H    0.155371
     6  H    0.156963
     7  H    0.155491
     8  H    0.156292
 Sum of Mulliken charges =  -0.00000

 Dipole moment (field-independent basis, Debye):
    X=              0.0037    Y=             -0.0228    Z=              0.0235  Tot=              0.0330
 Quadrupole moment (field-independent basis, Debye-Ang):
   XX=            -15.2775   YY=            -14.6636   ZZ=            -14.7169
   XY=             -0.0687   XZ=              0.0493   YZ=             -0.0029

 Normal termination of Gaussian 16 at Fri Sep 22 16:32:05 2023.
