 Gaussian 16, Revision A.03,
 Gaussian 16:  ES64L-G16RevA.03 25-Dec-2016

 ----------------
 # 6-31g(d) wb97x
 ----------------

 ------------------------
 tmpdir/M2_conf_0_122.gjf
 ------------------------
 Symbolic Z-matrix:
 Charge =  0 Multiplicity = 1

                         Standard orientation:
 ---------------------------------------------------------------------
 Center     Atomic      Atomic             Coordinates (Angstroms)
 Number     Number       Type             X           Y           Z
 ---------------------------------------------------------------------
      1          6           0        0.762365   -0.005139   -0.003039
      2          6           0       -0.765031   -0.005124    0.000184
      3          1           0       -1.163107   -0.434982   -0.924196
      4          1           0        1.219214   -0.990839   -0.222171
      5          1           0        1.131948    0.726429   -0.730813
      6          1           0        1.145108    0.323281    0.972626
      7          1           0       -1.148094    1.016294    0.079949
      8          1           0       -1.169072   -0.578604    0.841736
 ---------------------------------------------------------------------

 SCF Done:  E(RwB97X) =  -79.8007711170     A.U. after   12 cycles

 The electronic state is 1-A.
 Alpha  occ. eigenvalues --  -10.25635 -10.25475  -0.87865  -0.73426  -0.54177
 Alpha  occ. eigenvalues --   -0.53984  -0.46760  -0.44192  -0.43913
 Alpha virt. eigenvalues --    0.20003   0.25316   0.25731   0.25910   0.29090
 Alpha virt. eigenvalues --    0.29482   0.34032   0.61792   0.64817   0.64944
 Alpha virt. eigenvalues --    0.74123   0.75494   0.78884   0.99895   1.00002

 Mulliken charges:
               1
     1  C   -0.468957
     2  C   -0.468254
     3  H    0.156975
     4  H    0.155518
     5  H    0.156061
     6  H    0.154949
     7  H    0.157065
     8  H    0.156642
 Sum of Mulliken charges =  -0.00000

 Dipole moment (field-independent basis, Debye):
    X=             -0.0066    Y=              0.0360    Z=              0.0068  Tot=              0.0372
 Quadrupole moment (field-independent basis, Debye-Ang):
   XX=            -15.2342   YY=            -14.6497   ZZ=            -14.7533
   XY=             -0.0461   XZ=              0.0038   YZ=             -0.0042

 Normal termination of Gaussian 16 at Fri Sep 22 16:31:14 2023.
