 Gaussian 16, Revision A.03,
 Gaussian 16:  ES64L-G16RevA.03 25-Dec-2016

 ----------------
 # 6-31g(d) wb97x
 ----------------

 -----------------------
 tmpdir/M2_conf_1_54.gjf
 -----------------------
 Symbolic Z-matrix:
 Charge =  0 Multiplicity = 1

                         Standard orientation:
 ---------------------------------------------------------------------
 Center     Atomic      Atomic             Coordinates (Angstroms)
 Number     Number       Type             X           Y           Z
 ---------------------------------------------------------------------
      1          6           0       -0.017069   -0.010951   -0.003151
      2          1           0       -0.175467    0.225190    1.055217
      3          1           0        0.149484    0.963246   -0.533839
      4          1           0       -0.871586   -0.543456   -0.409867
      5          1           0        0.999983   -0.579276   -0.092603
 ---------------------------------------------------------------------

 SCF Done:  E(RwB97X) =  -40.4947738085     A.U. after   11 cycles

 The electronic state is 1-A.
 Alpha  occ. eigenvalues --  -10.25967  -0.81116  -0.50475  -0.48997  -0.47694
 Alpha virt. eigenvalues --    0.20827   0.25484   0.27035   0.27799   0.63813
 Alpha virt. eigenvalues --    0.64515   0.66112   0.96920   1.00144   1.02384
 Alpha virt. eigenvalues --    1.04637   1.20276   1.76188   1.76435   2.27717

 Mulliken charges:
               1
     1  C   -0.656566
     2  H    0.168927
     3  H    0.161207
     4  H    0.175803
     5  H    0.150629
 Sum of Mulliken charges =  -0.00000

 Dipole moment (field-independent basis, Debye):
    X=             -0.0166    Y=              0.0540    Z=              0.0272  Tot=              0.0627
 Quadrupole moment (field-independent basis, Debye-Ang):
   XX=             -8.1338   YY=             -8.4258   ZZ=             -8.3970
   XY=              0.1026   XZ=              0.0375   YZ=              0.0388

 Normal termination of Gaussian 16 at Fri Sep 22 16:31:38 2023.
