 Gaussian 16, Revision A.03,
 Gaussian 16:  ES64L-G16RevA.03 25-Dec-2016

 ----------------
 # 6-31g(d) wb97x
 ----------------

 -----------------------
 tmpdir/M2_conf_0_82.gjf
 -----------------------
 Symbolic Z-matrix:
 Charge =  0 Multiplicity = 1

                         Standard orientation:
 ---------------------------------------------------------------------
 Center     Atomic      Atomic             Coordinates (Angstroms)
 Number     Number       Type             X           Y           Z
 ---------------------------------------------------------------------
      1          6           0       -0.764251   -0.005956    0.000457
      2          6           0        0.763143   -0.004537   -0.003463
      3          1           0        1.114097    0.783541   -0.679629
      4          1           0       -1.148036    1.006538    0.155279
      5          1           0       -1.167427   -0.640079    0.797751
      6          1           0       -1.158747   -0.367500   -0.954205
      7          1           0        1.220615   -0.971100   -0.294687
      8          1           0        1.146145    0.251556    0.993525
 ---------------------------------------------------------------------

 SCF Done:  E(RwB97X) =  -79.8006614864     A.U. after   12 cycles

 The electronic state is 1-A.
 Alpha  occ. eigenvalues --  -10.25633 -10.25456  -0.87886  -0.73372  -0.54247
 Alpha  occ. eigenvalues --   -0.54012  -0.46676  -0.44189  -0.43929
 Alpha virt. eigenvalues --    0.19967   0.25319   0.25801   0.25922   0.29046
 Alpha virt. eigenvalues --    0.29472   0.33981   0.61753   0.64828   0.65108
 Alpha virt. eigenvalues --    0.73950   0.75453   0.78884   0.99895   0.99995

 Mulliken charges:
               1
     1  C   -0.468416
     2  C   -0.468279
     3  H    0.155932
     4  H    0.156928
     5  H    0.156284
     6  H    0.156845
     7  H    0.155696
     8  H    0.155011
 Sum of Mulliken charges =  -0.00000

 Dipole moment (field-independent basis, Debye):
    X=             -0.0080    Y=              0.0353    Z=              0.0082  Tot=              0.0372
 Quadrupole moment (field-independent basis, Debye-Ang):
   XX=            -15.2755   YY=            -14.6380   ZZ=            -14.7422
   XY=             -0.0667   XZ=              0.0121   YZ=             -0.0029

 Normal termination of Gaussian 16 at Fri Sep 22 16:30:55 2023.
