 Gaussian 16, Revision A.03,
 Gaussian 16:  ES64L-G16RevA.03 25-Dec-2016

 ----------------
 # 6-31g(d) wb97x
 ----------------

 -----------------------
 tmpdir/M2_conf_2_82.gjf
 -----------------------
 Symbolic Z-matrix:
 Charge =  0 Multiplicity = 1

                         Standard orientation:
 ---------------------------------------------------------------------
 Center     Atomic      Atomic             Coordinates (Angstroms)
 Number     Number       Type             X           Y           Z
 ---------------------------------------------------------------------
      1          6           0       -0.764917   -0.005400    0.000306
      2          6           0        0.762480   -0.004923   -0.002998
      3          1           0        1.126033    0.738309   -0.721931
      4          1           0       -1.148273    1.014701    0.094319
      5          1           0       -1.168742   -0.590679    0.833801
      6          1           0       -1.159182   -0.423029   -0.931285
      7          1           0        1.219604   -0.987340   -0.235876
      8          1           0        1.145182    0.309972    0.977124
 ---------------------------------------------------------------------

 SCF Done:  E(RwB97X) =  -79.8007385014     A.U. after   12 cycles

 The electronic state is 1-A.
 Alpha  occ. eigenvalues --  -10.25631 -10.25469  -0.87874  -0.73402  -0.54199
 Alpha  occ. eigenvalues --   -0.54005  -0.46722  -0.44191  -0.43921
 Alpha virt. eigenvalues --    0.19988   0.25318   0.25753   0.25925   0.29070
 Alpha virt. eigenvalues --    0.29477   0.34009   0.61775   0.64836   0.65000
 Alpha virt. eigenvalues --    0.74050   0.75472   0.78885   0.99896   1.00000

 Mulliken charges:
               1
     1  C   -0.468200
     2  C   -0.468777
     3  H    0.155998
     4  H    0.157043
     5  H    0.156550
     6  H    0.156918
     7  H    0.155555
     8  H    0.154912
 Sum of Mulliken charges =  -0.00000

 Dipole moment (field-independent basis, Debye):
    X=             -0.0068    Y=              0.0358    Z=              0.0067  Tot=              0.0370
 Quadrupole moment (field-independent basis, Debye-Ang):
   XX=            -15.2528   YY=            -14.6453   ZZ=            -14.7472
   XY=             -0.0538   XZ=              0.0043   YZ=             -0.0040

 Normal termination of Gaussian 16 at Fri Sep 22 16:33:06 2023.
