 Gaussian 16, Revision A.03,
 Gaussian 16:  ES64L-G16RevA.03 25-Dec-2016

 ----------------
 # 6-31g(d) wb97x
 ----------------

 -----------------------
 tmpdir/M2_conf_2_79.gjf
 -----------------------
 Symbolic Z-matrix:
 Charge =  0 Multiplicity = 1

                         Standard orientation:
 ---------------------------------------------------------------------
 Center     Atomic      Atomic             Coordinates (Angstroms)
 Number     Number       Type             X           Y           Z
 ---------------------------------------------------------------------
      1          6           0        1.287227   -0.252762    0.010254
      2          6           0       -0.005387    0.567455   -0.008580
      3          6           0       -1.291191   -0.256861    0.004182
      4          1           0        1.382924   -0.982185   -0.907346
      5          1           0        1.387815   -0.877673    0.915400
      6          1           0        2.140645    0.450393   -0.026918
      7          1           0        0.001721    1.220140   -0.889138
      8          1           0        0.019481    1.237622    0.861206
      9          1           0       -2.160956    0.387273   -0.153928
     10          1           0       -1.430893   -0.776100    0.958756
     11          1           0       -1.284634   -1.006464   -0.793170
 ---------------------------------------------------------------------

 SCF Done:  E(RwB97X) =  -119.101435527     A.U. after   12 cycles

 The electronic state is 1-A.
 Alpha  occ. eigenvalues --  -10.26338 -10.26243 -10.25249  -0.90559  -0.80146
 Alpha  occ. eigenvalues --   -0.69852  -0.56255  -0.54025  -0.50352  -0.47801
 Alpha  occ. eigenvalues --   -0.43359  -0.43253  -0.42088
 Alpha virt. eigenvalues --    0.18699   0.23409   0.24241   0.24482   0.27043
 Alpha virt. eigenvalues --    0.28249   0.28695   0.29952   0.32361   0.36677
 Alpha virt. eigenvalues --    0.61345   0.62691   0.65014   0.67479   0.70151

 Mulliken charges:
               1
     1  C   -0.458365
     2  C   -0.273471
     3  C   -0.466935
     4  H    0.132323
     5  H    0.153957
     6  H    0.154589
     7  H    0.148744
     8  H    0.147517
     9  H    0.155652
    10  H    0.153199
    11  H    0.152790
 Sum of Mulliken charges =  -0.00000

 Dipole moment (field-independent basis, Debye):
    X=             -0.0280    Y=              0.1205    Z=              0.0474  Tot=              0.1324
 Quadrupole moment (field-independent basis, Debye-Ang):
   XX=            -22.0000   YY=            -21.5395   ZZ=            -21.2758
   XY=              0.0620   XZ=              0.0849   YZ=             -0.0383

 Normal termination of Gaussian 16 at Fri Sep 22 16:33:04 2023.
