 Gaussian 16, Revision A.03,
 Gaussian 16:  ES64L-G16RevA.03 25-Dec-2016

 ----------------
 # 6-31g(d) wb97x
 ----------------

 ------------------------
 tmpdir/M2_conf_0_116.gjf
 ------------------------
 Symbolic Z-matrix:
 Charge =  0 Multiplicity = 1

                         Standard orientation:
 ---------------------------------------------------------------------
 Center     Atomic      Atomic             Coordinates (Angstroms)
 Number     Number       Type             X           Y           Z
 ---------------------------------------------------------------------
      1          1           0       -0.374386   -0.650006   -0.797220
      2          6           0        0.009171    0.001735    0.000638
      3          1           0       -0.435228    0.993706   -0.141351
      4          1           0        1.113301    0.042129   -0.016792
      5          1           0       -0.358714   -0.396241    0.951533
 ---------------------------------------------------------------------

 SCF Done:  E(RwB97X) =  -40.4990241705     A.U. after   11 cycles

 The electronic state is 1-A.
 Alpha  occ. eigenvalues --  -10.25127  -0.81617  -0.49930  -0.49190  -0.49046
 Alpha virt. eigenvalues --    0.21493   0.27271   0.27398   0.27465   0.63919
 Alpha virt. eigenvalues --    0.64002   0.64750   1.01137   1.01416   1.01502
 Alpha virt. eigenvalues --    1.06571   1.20732   1.75890   1.75909   2.33110

 Mulliken charges:
               1
     1  H    0.165094
     2  C   -0.665431
     3  H    0.166425
     4  H    0.167318
     5  H    0.166593
 Sum of Mulliken charges =  -0.00000

 Dipole moment (field-independent basis, Debye):
    X=             -0.0411    Y=             -0.0057    Z=              0.0017  Tot=              0.0415
 Quadrupole moment (field-independent basis, Debye-Ang):
   XX=             -8.1282   YY=             -8.3290   ZZ=             -8.3414
   XY=             -0.0020   XZ=             -0.0038   YZ=             -0.0063

 Normal termination of Gaussian 16 at Fri Sep 22 16:31:03 2023.
