 Gaussian 16, Revision A.03,
 Gaussian 16:  ES64L-G16RevA.03 25-Dec-2016

 ----------------
 # 6-31g(d) wb97x
 ----------------

 -----------------------
 tmpdir/M2_conf_1_79.gjf
 -----------------------
 Symbolic Z-matrix:
 Charge =  0 Multiplicity = 1

                         Standard orientation:
 ---------------------------------------------------------------------
 Center     Atomic      Atomic             Coordinates (Angstroms)
 Number     Number       Type             X           Y           Z
 ---------------------------------------------------------------------
      1          6           0        1.287147   -0.252797    0.010253
      2          6           0       -0.005390    0.567541   -0.008580
      3          6           0       -1.291118   -0.256882    0.004182
      4          1           0        1.382778   -0.982226   -0.907348
      5          1           0        1.387676   -0.877720    0.915398
      6          1           0        2.140631    0.450279   -0.026914
      7          1           0        0.001780    1.220227   -0.889136
      8          1           0        0.019539    1.237703    0.861208
      9          1           0       -2.160942    0.387183   -0.153925
     10          1           0       -1.430787   -0.776129    0.958755
     11          1           0       -1.284513   -1.006487   -0.793172
 ---------------------------------------------------------------------

 SCF Done:  E(RwB97X) =  -119.101436506     A.U. after   12 cycles

 The electronic state is 1-A.
 Alpha  occ. eigenvalues --  -10.26338 -10.26243 -10.25249  -0.90560  -0.80145
 Alpha  occ. eigenvalues --   -0.69852  -0.56255  -0.54025  -0.50352  -0.47800
 Alpha  occ. eigenvalues --   -0.43360  -0.43252  -0.42089
 Alpha virt. eigenvalues --    0.18699   0.23409   0.24241   0.24482   0.27043
 Alpha virt. eigenvalues --    0.28250   0.28695   0.29952   0.32362   0.36676
 Alpha virt. eigenvalues --    0.61348   0.62690   0.65013   0.67477   0.70151

 Mulliken charges:
               1
     1  C   -0.458364
     2  C   -0.273473
     3  C   -0.466933
     4  H    0.132322
     5  H    0.153955
     6  H    0.154583
     7  H    0.148748
     8  H    0.147522
     9  H    0.155647
    10  H    0.153201
    11  H    0.152792
 Sum of Mulliken charges =   0.00000

 Dipole moment (field-independent basis, Debye):
    X=             -0.0280    Y=              0.1205    Z=              0.0474  Tot=              0.1324
 Quadrupole moment (field-independent basis, Debye-Ang):
   XX=            -22.0003   YY=            -21.5394   ZZ=            -21.2758
   XY=              0.0622   XZ=              0.0849   YZ=             -0.0383

 Normal termination of Gaussian 16 at Fri Sep 22 16:32:00 2023.
