 Gaussian 16, Revision A.03,
 Gaussian 16:  ES64L-G16RevA.03 25-Dec-2016

 ----------------
 # 6-31g(d) wb97x
 ----------------

 -----------------------
 tmpdir/M2_conf_1_44.gjf
 -----------------------
 Symbolic Z-matrix:
 Charge =  0 Multiplicity = 1

                         Standard orientation:
 ---------------------------------------------------------------------
 Center     Atomic      Atomic             Coordinates (Angstroms)
 Number     Number       Type             X           Y           Z
 ---------------------------------------------------------------------
      1          7           0       -1.226029   -0.246425   -0.048992
      2          6           0       -0.035049    0.610704    0.050284
      3          6           0        1.234956   -0.272532   -0.040584
      4          1           0       -2.121901   -0.083068   -0.278821
      5          1           0       -1.026463   -1.143603    0.381191
      6          1           0        0.094509    1.411855   -0.703767
      7          1           0       -0.001821    1.057034    1.055117
      8          1           0        2.139172    0.327895   -0.007981
      9          1           0        1.128295   -1.042451    0.831904
     10          1           0        1.170975   -0.831716   -0.992895
 ---------------------------------------------------------------------

 SCF Done:  E(RwB97X) =  -135.103192047     A.U. after   13 cycles

 The electronic state is 1-A.
 Alpha  occ. eigenvalues --  -14.36542 -10.29081 -10.26294  -0.98961  -0.85022
 Alpha  occ. eigenvalues --   -0.71798  -0.61740  -0.55450  -0.52631  -0.48692
 Alpha  occ. eigenvalues --   -0.45010  -0.43566  -0.30296
 Alpha virt. eigenvalues --    0.18609   0.22494   0.23783   0.26392   0.27530
 Alpha virt. eigenvalues --    0.28677   0.29011   0.34493   0.35626   0.62885
 Alpha virt. eigenvalues --    0.67083   0.68203   0.70032   0.76501   0.78844

 Mulliken charges:
               1
     1  N   -0.797454
     2  C   -0.106595
     3  C   -0.473359
     4  H    0.331038
     5  H    0.306800
     6  H    0.148167
     7  H    0.134187
     8  H    0.164114
     9  H    0.128122
    10  H    0.164980
 Sum of Mulliken charges =  -0.00000

 Dipole moment (field-independent basis, Debye):
    X=             -0.1484    Y=             -0.0780    Z=              0.1776  Tot=              0.2443
 Quadrupole moment (field-independent basis, Debye-Ang):
   XX=            -18.7721   YY=            -19.7579   ZZ=            -21.4771
   XY=              0.9101   XZ=              0.0738   YZ=             -1.2454

 Normal termination of Gaussian 16 at Fri Sep 22 16:31:56 2023.
