 Gaussian 16, Revision A.03,
 Gaussian 16:  ES64L-G16RevA.03 25-Dec-2016

 ----------------
 # 6-31g(d) wb97x
 ----------------

 -----------------------
 tmpdir/M2_conf_2_75.gjf
 -----------------------
 Symbolic Z-matrix:
 Charge =  0 Multiplicity = 1

                         Standard orientation:
 ---------------------------------------------------------------------
 Center     Atomic      Atomic             Coordinates (Angstroms)
 Number     Number       Type             X           Y           Z
 ---------------------------------------------------------------------
      1          6           0       -0.761655   -0.001250    0.001938
      2          6           0        0.764119    0.006322   -0.002811
      3          1           0        1.115718    0.040841    1.045667
      4          1           0       -1.200078   -0.804925    0.620745
      5          1           0       -1.118812   -0.096070   -1.029672
      6          1           0       -1.100381    0.975996    0.367845
      7          1           0        1.098302   -1.024107   -0.460789
      8          1           0        1.190464    0.877833   -0.538559
 ---------------------------------------------------------------------

 SCF Done:  E(RwB97X) =  -79.7951159053     A.U. after   12 cycles

 The electronic state is 1-A.
 Alpha  occ. eigenvalues --  -10.26569 -10.25582  -0.87832  -0.72548  -0.54490
 Alpha  occ. eigenvalues --   -0.53919  -0.46488  -0.44079  -0.43147
 Alpha virt. eigenvalues --    0.19180   0.24939   0.25208   0.26094   0.27715
 Alpha virt. eigenvalues --    0.29043   0.33533   0.61514   0.65171   0.66809
 Alpha virt. eigenvalues --    0.72879   0.76051   0.78770   0.96691   0.99509

 Mulliken charges:
               1
     1  C   -0.462690
     2  C   -0.455818
     3  H    0.155166
     4  H    0.157952
     5  H    0.156111
     6  H    0.153500
     7  H    0.136191
     8  H    0.159588
 Sum of Mulliken charges =   0.00000

 Dipole moment (field-independent basis, Debye):
    X=             -0.0502    Y=              0.0626    Z=              0.0311  Tot=              0.0861
 Quadrupole moment (field-independent basis, Debye-Ang):
   XX=            -15.6860   YY=            -14.5598   ZZ=            -14.7958
   XY=              0.2581   XZ=             -0.0086   YZ=             -0.0889

 Normal termination of Gaussian 16 at Fri Sep 22 16:32:56 2023.
