 Gaussian 16, Revision A.03,
 Gaussian 16:  ES64L-G16RevA.03 25-Dec-2016

 ----------------
 # 6-31g(d) wb97x
 ----------------

 -----------------------
 tmpdir/M2_conf_0_22.gjf
 -----------------------
 Symbolic Z-matrix:
 Charge =  0 Multiplicity = 1

                         Standard orientation:
 ---------------------------------------------------------------------
 Center     Atomic      Atomic             Coordinates (Angstroms)
 Number     Number       Type             X           Y           Z
 ---------------------------------------------------------------------
      1          6           0       -0.015653    0.005699    0.001718
      2          1           0       -0.070335   -0.776445    0.793081
      3          1           0       -0.016430    1.023394    0.432966
      4          1           0        1.032893   -0.146865   -0.525476
      5          1           0       -0.852209   -0.134280   -0.710877
 ---------------------------------------------------------------------

 SCF Done:  E(RwB97X) =  -40.4940737678     A.U. after   11 cycles

 The electronic state is 1-A.
 Alpha  occ. eigenvalues --  -10.26382  -0.80819  -0.49861  -0.49432  -0.47403
 Alpha virt. eigenvalues --    0.20577   0.25124   0.26992   0.27321   0.64317
 Alpha virt. eigenvalues --    0.64660   0.66287   0.96150   1.00465   1.01200
 Alpha virt. eigenvalues --    1.02888   1.19724   1.76190   1.76823   2.27051

 Mulliken charges:
               1
     1  C   -0.651004
     2  H    0.166098
     3  H    0.169913
     4  H    0.145223
     5  H    0.169770
 Sum of Mulliken charges =   0.00000

 Dipole moment (field-independent basis, Debye):
    X=             -0.0206    Y=             -0.0028    Z=              0.0320  Tot=              0.0382
 Quadrupole moment (field-independent basis, Debye-Ang):
   XX=             -8.2876   YY=             -8.2773   ZZ=             -8.4643
   XY=              0.0259   XZ=              0.1032   YZ=              0.0046

 Normal termination of Gaussian 16 at Fri Sep 22 16:30:18 2023.
