 Gaussian 16, Revision A.03,
 Gaussian 16:  ES64L-G16RevA.03 25-Dec-2016

 ----------------
 # 6-31g(d) wb97x
 ----------------

 ----------------------
 tmpdir/M2_conf_2_3.gjf
 ----------------------
 Symbolic Z-matrix:
 Charge = -1 Multiplicity = 1

                         Standard orientation:
 ---------------------------------------------------------------------
 Center     Atomic      Atomic             Coordinates (Angstroms)
 Number     Number       Type             X           Y           Z
 ---------------------------------------------------------------------
      1          8           0        1.104288   -0.230126    0.000189
      2          6           0       -0.005646    0.348059   -0.000796
      3          8           0       -1.111649   -0.214599    0.000207
      4          1           0        0.092767    1.469446    0.001609
 ---------------------------------------------------------------------

 SCF Done:  E(RwB97X) =  -189.126623262     A.U. after   15 cycles

 The electronic state is 1-A.
 Alpha  occ. eigenvalues --  -18.90736 -18.89970 -10.10963  -0.90170  -0.80595
 Alpha  occ. eigenvalues --   -0.42495  -0.30291  -0.26107  -0.25603  -0.09933
 Alpha  occ. eigenvalues --   -0.09745  -0.08650
 Alpha virt. eigenvalues --    0.40488   0.45855   0.63653   0.65998   0.87426
 Alpha virt. eigenvalues --    0.99199   1.03194   1.09275   1.18210   1.23099
 Alpha virt. eigenvalues --    1.23638   1.33286   1.38987   1.43314   1.44177

 Mulliken charges:
               1
     1  O   -0.613508
     2  C    0.293788
     3  O   -0.597856
     4  H   -0.082424
 Sum of Mulliken charges =  -1.00000

 Dipole moment (field-independent basis, Debye):
    X=             -0.0614    Y=              1.3190    Z=             -0.0021  Tot=              1.3204
 Quadrupole moment (field-independent basis, Debye-Ang):
   XX=            -26.6019   YY=            -19.3295   ZZ=            -17.5166
   XY=              0.0986   XZ=              0.0002   YZ=             -0.0012

 Normal termination of Gaussian 16 at Fri Sep 22 16:32:25 2023.
