 Gaussian 16, Revision A.03,
 Gaussian 16:  ES64L-G16RevA.03 25-Dec-2016

 ----------------
 # 6-31g(d) wb97x
 ----------------

 -----------------------
 tmpdir/M2_conf_0_88.gjf
 -----------------------
 Symbolic Z-matrix:
 Charge =  0 Multiplicity = 1

                         Standard orientation:
 ---------------------------------------------------------------------
 Center     Atomic      Atomic             Coordinates (Angstroms)
 Number     Number       Type             X           Y           Z
 ---------------------------------------------------------------------
      1          7           0       -1.110903   -0.708983    0.022587
      2          6           0       -0.079326    0.147964   -0.001411
      3          6           0        1.290575   -0.484375   -0.000529
      4          1           0       -2.131080   -0.591354   -0.054121
      5          1           0       -0.882326   -1.693637   -0.067043
      6          8           0       -0.176576    1.388550   -0.003190
      7          1           0        1.823171   -0.157920    0.896729
      8          1           0        1.843908   -0.107952   -0.864815
      9          1           0        1.267763   -1.576190   -0.031691
 ---------------------------------------------------------------------

 SCF Done:  E(RwB97X) =  -209.149486193     A.U. after   15 cycles

 The electronic state is 1-A.
 Alpha  occ. eigenvalues --  -19.16278 -14.44120 -10.37370 -10.27314  -1.13755
 Alpha  occ. eigenvalues --   -1.03409  -0.86573  -0.72126  -0.63662  -0.57968
 Alpha  occ. eigenvalues --   -0.55592  -0.50741  -0.49035  -0.46647  -0.36243
 Alpha  occ. eigenvalues --   -0.33911
 Alpha virt. eigenvalues --    0.12994   0.16347   0.20044   0.23403   0.27655
 Alpha virt. eigenvalues --    0.28072   0.33987   0.40942   0.51597   0.63849
 Alpha virt. eigenvalues --    0.65113   0.67415   0.73793   0.73841   0.79209

 Mulliken charges:
               1
     1  N   -0.767591
     2  C    0.577902
     3  C   -0.562670
     4  H    0.364296
     5  H    0.340577
     6  O   -0.508733
     7  H    0.205428
     8  H    0.204009
     9  H    0.146782
 Sum of Mulliken charges =   0.00000

 Dipole moment (field-independent basis, Debye):
    X=             -0.5488    Y=             -4.1666    Z=             -0.2654  Tot=              4.2109
 Quadrupole moment (field-independent basis, Debye-Ang):
   XX=            -18.9238   YY=            -26.2673   ZZ=            -24.5191
   XY=              2.2914   XZ=              0.4566   YZ=              0.3650

 Normal termination of Gaussian 16 at Fri Sep 22 16:31:03 2023.
