 Gaussian 16, Revision A.03,
 Gaussian 16:  ES64L-G16RevA.03 25-Dec-2016

 ----------------
 # 6-31g(d) wb97x
 ----------------

 ------------------------
 tmpdir/M2_conf_2_116.gjf
 ------------------------
 Symbolic Z-matrix:
 Charge =  0 Multiplicity = 1

                         Standard orientation:
 ---------------------------------------------------------------------
 Center     Atomic      Atomic             Coordinates (Angstroms)
 Number     Number       Type             X           Y           Z
 ---------------------------------------------------------------------
      1          1           0       -0.372499   -0.800983   -0.646948
      2          6           0        0.009029    0.001624    0.000138
      3          1           0       -0.424325    0.945756   -0.349818
      4          1           0        1.113568    0.030678   -0.013486
      5          1           0       -0.370917   -0.185194    1.009427
 ---------------------------------------------------------------------

 SCF Done:  E(RwB97X) =  -40.4990378264     A.U. after   11 cycles

 The electronic state is 1-A.
 Alpha  occ. eigenvalues --  -10.25127  -0.81617  -0.49920  -0.49183  -0.49063
 Alpha virt. eigenvalues --    0.21494   0.27280   0.27392   0.27464   0.63911
 Alpha virt. eigenvalues --    0.64017   0.64742   1.01160   1.01409   1.01493
 Alpha virt. eigenvalues --    1.06564   1.20728   1.75888   1.75909   2.33131

 Mulliken charges:
               1
     1  H    0.165159
     2  C   -0.665415
     3  H    0.166421
     4  H    0.167274
     5  H    0.166561
 Sum of Mulliken charges =   0.00000

 Dipole moment (field-independent basis, Debye):
    X=             -0.0407    Y=             -0.0044    Z=              0.0033  Tot=              0.0410
 Quadrupole moment (field-independent basis, Debye-Ang):
   XX=             -8.1304   YY=             -8.3274   ZZ=             -8.3407
   XY=             -0.0026   XZ=             -0.0031   YZ=             -0.0056

 Normal termination of Gaussian 16 at Fri Sep 22 16:33:15 2023.
