 Gaussian 16, Revision A.03,
 Gaussian 16:  ES64L-G16RevA.03 25-Dec-2016

 ----------------
 # 6-31g(d) wb97x
 ----------------

 -----------------------
 tmpdir/M2_conf_1_76.gjf
 -----------------------
 Symbolic Z-matrix:
 Charge =  0 Multiplicity = 1

                         Standard orientation:
 ---------------------------------------------------------------------
 Center     Atomic      Atomic             Coordinates (Angstroms)
 Number     Number       Type             X           Y           Z
 ---------------------------------------------------------------------
      1          6           0        0.764208   -0.005099   -0.002763
      2          6           0       -0.767289   -0.005140    0.000219
      3          1           0        1.221160   -0.994168   -0.205915
      4          1           0        1.133860    0.714676   -0.742158
      5          1           0        1.146769    0.339020    0.967543
      6          1           0       -1.150434    1.017411    0.063460
      7          1           0       -1.171428   -0.565023    0.850828
      8          1           0       -1.161446   -0.450485   -0.918490
 ---------------------------------------------------------------------

 SCF Done:  E(RwB97X) =  -79.8007531280     A.U. after   12 cycles

 The electronic state is 1-A.
 Alpha  occ. eigenvalues --  -10.25661 -10.25507  -0.87789  -0.73449  -0.54134
 Alpha  occ. eigenvalues --   -0.53957  -0.46682  -0.44227  -0.43954
 Alpha virt. eigenvalues --    0.20003   0.25296   0.25741   0.25940   0.29075
 Alpha virt. eigenvalues --    0.29474   0.33890   0.61913   0.64775   0.64885
 Alpha virt. eigenvalues --    0.74131   0.75519   0.78661   0.99967   1.00070

 Mulliken charges:
               1
     1  C   -0.469327
     2  C   -0.468418
     3  H    0.155588
     4  H    0.156141
     5  H    0.154969
     6  H    0.157193
     7  H    0.156791
     8  H    0.157065
 Sum of Mulliken charges =  -0.00000

 Dipole moment (field-independent basis, Debye):
    X=             -0.0062    Y=              0.0360    Z=              0.0060  Tot=              0.0371
 Quadrupole moment (field-independent basis, Debye-Ang):
   XX=            -15.2296   YY=            -14.6516   ZZ=            -14.7528
   XY=             -0.0478   XZ=              0.0001   YZ=             -0.0045

 Normal termination of Gaussian 16 at Fri Sep 22 16:31:58 2023.
