 Gaussian 16, Revision A.03,
 Gaussian 16:  ES64L-G16RevA.03 25-Dec-2016

 ----------------
 # 6-31g(d) wb97x
 ----------------

 -----------------------
 tmpdir/M2_conf_2_20.gjf
 -----------------------
 Symbolic Z-matrix:
 Charge =  1 Multiplicity = 1

                         Standard orientation:
 ---------------------------------------------------------------------
 Center     Atomic      Atomic             Coordinates (Angstroms)
 Number     Number       Type             X           Y           Z
 ---------------------------------------------------------------------
      1          6           0        0.783935   -0.002553   -0.000476
      2          7           0       -0.703562    0.000290   -0.001510
      3          1           0        1.106188   -1.037416   -0.217029
      4          1           0        1.191469    0.713381   -0.741133
      5          1           0        1.079093    0.310587    1.007405
      6          1           0       -1.049608    1.016595    0.067268
      7          1           0       -1.048565   -0.416257   -0.869716
      8          1           0       -1.057254   -0.573604    0.766628
 ---------------------------------------------------------------------

 SCF Done:  E(RwB97X) =  -96.1808712193     A.U. after   12 cycles

 The electronic state is 1-A.
 Alpha  occ. eigenvalues --  -14.76788 -10.53378  -1.35610  -1.05658  -0.92534
 Alpha  occ. eigenvalues --   -0.92112  -0.81274  -0.72934  -0.72573
 Alpha virt. eigenvalues --   -0.08862  -0.01894  -0.00556   0.02318   0.05419
 Alpha virt. eigenvalues --    0.06170   0.06394   0.39776   0.42141   0.43049
 Alpha virt. eigenvalues --    0.55029   0.56976   0.58009   0.69263   0.72431

 Mulliken charges:
               1
     1  C   -0.427139
     2  N   -0.741205
     3  H    0.265364
     4  H    0.272404
     5  H    0.264279
     6  H    0.458168
     7  H    0.452481
     8  H    0.455647
 Sum of Mulliken charges =   1.00000

 Dipole moment (field-independent basis, Debye):
    X=             -2.2655    Y=              0.0663    Z=             -0.0447  Tot=              2.2670
 Quadrupole moment (field-independent basis, Debye-Ang):
   XX=             -7.4958   YY=             -9.7225   ZZ=            -10.2720
   XY=              0.0539   XZ=             -0.0728   YZ=             -0.0247

 Normal termination of Gaussian 16 at Fri Sep 22 16:32:35 2023.
