 Gaussian 16, Revision A.03,
 Gaussian 16:  ES64L-G16RevA.03 25-Dec-2016

 ----------------
 # 6-31g(d) wb97x
 ----------------

 -----------------------
 tmpdir/M2_conf_0_79.gjf
 -----------------------
 Symbolic Z-matrix:
 Charge =  0 Multiplicity = 1

                         Standard orientation:
 ---------------------------------------------------------------------
 Center     Atomic      Atomic             Coordinates (Angstroms)
 Number     Number       Type             X           Y           Z
 ---------------------------------------------------------------------
      1          6           0        1.300833   -0.246589    0.010387
      2          6           0       -0.005084    0.552271   -0.008748
      3          6           0       -1.302819   -0.253135    0.004280
      4          1           0        1.408218   -0.975144   -0.906608
      5          1           0        1.411947   -0.868971    0.916045
      6          1           0        2.142575    0.470455   -0.027668
      7          1           0       -0.008965    1.204213   -0.889876
      8          1           0        0.009038    1.223517    0.860447
      9          1           0       -2.163011    0.403539   -0.154607
     10          1           0       -1.450384   -0.769502    0.959225
     11          1           0       -1.307000   -1.003389   -0.792473
 ---------------------------------------------------------------------

 SCF Done:  E(RwB97X) =  -119.101120828     A.U. after   12 cycles

 The electronic state is 1-A.
 Alpha  occ. eigenvalues --  -10.26390 -10.26233 -10.25254  -0.90516  -0.80258
 Alpha  occ. eigenvalues --   -0.69789  -0.56240  -0.53975  -0.50416  -0.47873
 Alpha  occ. eigenvalues --   -0.43517  -0.43106  -0.42004
 Alpha virt. eigenvalues --    0.18673   0.23412   0.24314   0.24547   0.27083
 Alpha virt. eigenvalues --    0.28127   0.28615   0.29863   0.32245   0.36916
 Alpha virt. eigenvalues --    0.60910   0.62750   0.65090   0.67720   0.70141

 Mulliken charges:
               1
     1  C   -0.458478
     2  C   -0.273047
     3  C   -0.467341
     4  H    0.132534
     5  H    0.154182
     6  H    0.155584
     7  H    0.148133
     8  H    0.146843
     9  H    0.156133
    10  H    0.152878
    11  H    0.152577
 Sum of Mulliken charges =  -0.00000

 Dipole moment (field-independent basis, Debye):
    X=             -0.0273    Y=              0.1226    Z=              0.0462  Tot=              0.1339
 Quadrupole moment (field-independent basis, Debye-Ang):
   XX=            -21.9456   YY=            -21.5680   ZZ=            -21.2804
   XY=              0.0318   XZ=              0.0887   YZ=             -0.0371

 Normal termination of Gaussian 16 at Fri Sep 22 16:30:52 2023.
