 Gaussian 16, Revision A.03,
 Gaussian 16:  ES64L-G16RevA.03 25-Dec-2016

 ----------------
 # 6-31g(d) wb97x
 ----------------

 -----------------------
 tmpdir/M2_conf_2_78.gjf
 -----------------------
 Symbolic Z-matrix:
 Charge =  0 Multiplicity = 1

                         Standard orientation:
 ---------------------------------------------------------------------
 Center     Atomic      Atomic             Coordinates (Angstroms)
 Number     Number       Type             X           Y           Z
 ---------------------------------------------------------------------
      1          6           0       -0.006367   -0.011073   -0.002472
      2          1           0        0.204532    0.489633    0.950305
      3          1           0        0.814264   -0.733323   -0.184812
      4          1           0       -1.015404   -0.462530    0.016994
      5          1           0        0.034808    0.772658   -0.767652
 ---------------------------------------------------------------------

 SCF Done:  E(RwB97X) =  -40.4984538411     A.U. after   11 cycles

 The electronic state is 1-A.
 Alpha  occ. eigenvalues --  -10.25258  -0.81545  -0.50089  -0.49115  -0.48783
 Alpha virt. eigenvalues --    0.21390   0.27077   0.27260   0.27487   0.63800
 Alpha virt. eigenvalues --    0.64108   0.65080   1.00504   1.01036   1.01663
 Alpha virt. eigenvalues --    1.06375   1.20711   1.75888   1.76065   2.31950

 Mulliken charges:
               1
     1  C   -0.664664
     2  H    0.165286
     3  H    0.165541
     4  H    0.167944
     5  H    0.165894
 Sum of Mulliken charges =  -0.00000

 Dipole moment (field-independent basis, Debye):
    X=              0.0219    Y=              0.0537    Z=              0.0114  Tot=              0.0591
 Quadrupole moment (field-independent basis, Debye-Ang):
   XX=             -8.0911   YY=             -8.3174   ZZ=             -8.4159
   XY=              0.0098   XZ=              0.0003   YZ=             -0.0031

 Normal termination of Gaussian 16 at Fri Sep 22 16:32:54 2023.
