 Gaussian 16, Revision A.03,
 Gaussian 16:  ES64L-G16RevA.03 25-Dec-2016

 ----------------
 # 6-31g(d) wb97x
 ----------------

 -----------------------
 tmpdir/M2_conf_2_56.gjf
 -----------------------
 Symbolic Z-matrix:
 Charge =  0 Multiplicity = 1

                         Standard orientation:
 ---------------------------------------------------------------------
 Center     Atomic      Atomic             Coordinates (Angstroms)
 Number     Number       Type             X           Y           Z
 ---------------------------------------------------------------------
      1          6           0        1.263802   -0.233947    0.021407
      2          6           0       -0.075862    0.544282   -0.008916
      3          8           0       -1.180410   -0.349712   -0.086027
      4          1           0        2.097598    0.495092   -0.001207
      5          1           0        1.179158   -0.934690    0.936899
      6          1           0        1.299609   -0.846086   -0.891833
      7          1           0       -0.095848    1.268731   -0.817592
      8          1           0       -0.177737    1.048490    0.970410
      9          1           0       -1.987139   -0.095855    0.416591
 ---------------------------------------------------------------------

 SCF Done:  E(RwB97X) =  -154.978688004     A.U. after   13 cycles

 The electronic state is 1-A.
 Alpha  occ. eigenvalues --  -19.19984 -10.31162 -10.26491  -1.12479  -0.86624
 Alpha  occ. eigenvalues --   -0.72567  -0.61726  -0.57340  -0.49264  -0.49017
 Alpha  occ. eigenvalues --   -0.46413  -0.40499  -0.36279
 Alpha virt. eigenvalues --    0.16957   0.21072   0.25264   0.26170   0.26996
 Alpha virt. eigenvalues --    0.29169   0.32319   0.32447   0.63525   0.66876
 Alpha virt. eigenvalues --    0.67378   0.70376   0.76962   0.78625   0.91762

 Mulliken charges:
               1
     1  C   -0.467756
     2  C   -0.036164
     3  O   -0.649935
     4  H    0.155346
     5  H    0.155150
     6  H    0.171505
     7  H    0.142433
     8  H    0.124284
     9  H    0.405137
 Sum of Mulliken charges =  -0.00000

 Dipole moment (field-independent basis, Debye):
    X=             -0.2368    Y=              1.2730    Z=              0.9075  Tot=              1.5812
 Quadrupole moment (field-independent basis, Debye-Ang):
   XX=            -17.1181   YY=            -20.4667   ZZ=            -19.4502
   XY=             -0.8767   XZ=             -2.3454   YZ=             -0.3263

 Normal termination of Gaussian 16 at Fri Sep 22 16:33:03 2023.
