 Gaussian 16, Revision A.03,
 Gaussian 16:  ES64L-G16RevA.03 25-Dec-2016

 ----------------
 # 6-31g(d) wb97x
 ----------------

 -----------------------
 tmpdir/M2_conf_2_12.gjf
 -----------------------
 Symbolic Z-matrix:
 Charge =  0 Multiplicity = 1

                         Standard orientation:
 ---------------------------------------------------------------------
 Center     Atomic      Atomic             Coordinates (Angstroms)
 Number     Number       Type             X           Y           Z
 ---------------------------------------------------------------------
      1          6           0        0.010277    0.011180   -0.004459
      2          1           0       -0.351977   -0.631557   -0.811690
      3          1           0       -0.546166    0.942056   -0.033462
      4          1           0        1.107455    0.137272   -0.048919
      5          1           0       -0.270976   -0.514854    0.920825
 ---------------------------------------------------------------------

 SCF Done:  E(RwB97X) =  -40.4983665048     A.U. after   11 cycles

 The electronic state is 1-A.
 Alpha  occ. eigenvalues --  -10.25016  -0.81717  -0.50270  -0.49436  -0.48573
 Alpha virt. eigenvalues --    0.21535   0.27086   0.27427   0.27824   0.63760
 Alpha virt. eigenvalues --    0.63845   0.64890   1.00651   1.01339   1.02411
 Alpha virt. eigenvalues --    1.07253   1.20974   1.75831   1.75915   2.32659

 Mulliken charges:
               1
     1  C   -0.667305
     2  H    0.165922
     3  H    0.170517
     4  H    0.167964
     5  H    0.162902
 Sum of Mulliken charges =  -0.00000

 Dipole moment (field-independent basis, Debye):
    X=             -0.0502    Y=             -0.0335    Z=              0.0113  Tot=              0.0614
 Quadrupole moment (field-independent basis, Debye-Ang):
   XX=             -8.0673   YY=             -8.2866   ZZ=             -8.4277
   XY=             -0.0189   XZ=              0.0057   YZ=              0.0100

 Normal termination of Gaussian 16 at Fri Sep 22 16:32:24 2023.
