 Gaussian 16, Revision A.03,
 Gaussian 16:  ES64L-G16RevA.03 25-Dec-2016

 ----------------
 # 6-31g(d) wb97x
 ----------------

 -----------------------
 tmpdir/M2_conf_0_21.gjf
 -----------------------
 Symbolic Z-matrix:
 Charge =  0 Multiplicity = 1

                         Standard orientation:
 ---------------------------------------------------------------------
 Center     Atomic      Atomic             Coordinates (Angstroms)
 Number     Number       Type             X           Y           Z
 ---------------------------------------------------------------------
      1          6           0       -0.763438    0.000456   -0.018552
      2          6           0        0.757087   -0.000211    0.015224
      3          1           0       -1.167758    1.028553   -0.053616
      4          1           0       -1.218495   -0.518703    0.942733
      5          1           0       -1.107833   -0.599032   -0.868843
      6          1           0        1.299938   -1.020637    0.034819
      7          1           0        1.136667    0.510001   -0.908918
      8          1           0        1.095586    0.598352    0.873793
 ---------------------------------------------------------------------

 SCF Done:  E(RwB97X) =  -79.7927745551     A.U. after   12 cycles

 The electronic state is 1-A.
 Alpha  occ. eigenvalues --  -10.26666 -10.26494  -0.87631  -0.72556  -0.54481
 Alpha  occ. eigenvalues --   -0.52958  -0.47053  -0.44117  -0.42653
 Alpha virt. eigenvalues --    0.19335   0.23891   0.24016   0.26257   0.27554
 Alpha virt. eigenvalues --    0.28914   0.33995   0.61522   0.65683   0.66143
 Alpha virt. eigenvalues --    0.73679   0.77059   0.79028   0.96354   0.98136

 Mulliken charges:
               1
     1  C   -0.453446
     2  C   -0.458300
     3  H    0.161331
     4  H    0.133727
     5  H    0.160741
     6  H    0.147999
     7  H    0.150018
     8  H    0.157931
 Sum of Mulliken charges =   0.00000

 Dipole moment (field-independent basis, Debye):
    X=              0.0142    Y=              0.0697    Z=             -0.0588  Tot=              0.0922
 Quadrupole moment (field-independent basis, Debye-Ang):
   XX=            -15.4139   YY=            -14.7196   ZZ=            -14.9338
   XY=             -0.1791   XZ=             -0.0265   YZ=              0.1265

 Normal termination of Gaussian 16 at Fri Sep 22 16:30:15 2023.
