 Gaussian 16, Revision A.03,
 Gaussian 16:  ES64L-G16RevA.03 25-Dec-2016

 ----------------
 # 6-31g(d) wb97x
 ----------------

 -----------------------
 tmpdir/M2_conf_1_13.gjf
 -----------------------
 Symbolic Z-matrix:
 Charge =  0 Multiplicity = 1

                         Standard orientation:
 ---------------------------------------------------------------------
 Center     Atomic      Atomic             Coordinates (Angstroms)
 Number     Number       Type             X           Y           Z
 ---------------------------------------------------------------------
      1          6           0        0.010069    0.010598   -0.005104
      2          1           0       -0.252540   -0.420819    0.966688
      3          1           0       -0.551064    0.932472   -0.115964
      4          1           0        1.105807    0.135073   -0.079575
      5          1           0       -0.362617   -0.710316   -0.740525
 ---------------------------------------------------------------------

 SCF Done:  E(RwB97X) =  -40.4983862324     A.U. after   11 cycles

 The electronic state is 1-A.
 Alpha  occ. eigenvalues --  -10.24970  -0.81749  -0.50264  -0.49434  -0.48632
 Alpha virt. eigenvalues --    0.21559   0.27207   0.27403   0.27827   0.63711
 Alpha virt. eigenvalues --    0.63804   0.64894   1.00868   1.01305   1.02437
 Alpha virt. eigenvalues --    1.07435   1.21003   1.75813   1.75892   2.32672

 Mulliken charges:
               1
     1  C   -0.667765
     2  H    0.164301
     3  H    0.170346
     4  H    0.167805
     5  H    0.165312
 Sum of Mulliken charges =  -0.00000

 Dipole moment (field-independent basis, Debye):
    X=             -0.0504    Y=             -0.0333    Z=              0.0201  Tot=              0.0637
 Quadrupole moment (field-independent basis, Debye-Ang):
   XX=             -8.0637   YY=             -8.2826   ZZ=             -8.4267
   XY=             -0.0177   XZ=              0.0025   YZ=             -0.0021

 Normal termination of Gaussian 16 at Fri Sep 22 16:31:23 2023.
