 Gaussian 16, Revision A.03,
 Gaussian 16:  ES64L-G16RevA.03 25-Dec-2016

 ----------------
 # 6-31g(d) wb97x
 ----------------

 ------------------------
 tmpdir/M2_conf_2_125.gjf
 ------------------------
 Symbolic Z-matrix:
 Charge =  0 Multiplicity = 1

                         Standard orientation:
 ---------------------------------------------------------------------
 Center     Atomic      Atomic             Coordinates (Angstroms)
 Number     Number       Type             X           Y           Z
 ---------------------------------------------------------------------
      1          1           0       -0.497426   -0.847166   -0.481205
      2          6           0        0.007540   -0.001083   -0.002153
      3          1           0       -0.370964    0.919123   -0.457864
      4          1           0        1.106545   -0.071185   -0.100240
      5          1           0       -0.283397    0.005724    1.052226
 ---------------------------------------------------------------------

 SCF Done:  E(RwB97X) =  -40.4991237974     A.U. after   11 cycles

 The electronic state is 1-A.
 Alpha  occ. eigenvalues --  -10.25065  -0.81657  -0.49862  -0.49219  -0.49162
 Alpha virt. eigenvalues --    0.21531   0.27371   0.27434   0.27472   0.63884
 Alpha virt. eigenvalues --    0.63937   0.64722   1.01306   1.01509   1.01578
 Alpha virt. eigenvalues --    1.06756   1.20747   1.75836   1.75906   2.33232

 Mulliken charges:
               1
     1  H    0.166475
     2  C   -0.665931
     3  H    0.166518
     4  H    0.166632
     5  H    0.166305
 Sum of Mulliken charges =   0.00000

 Dipole moment (field-independent basis, Debye):
    X=             -0.0380    Y=              0.0058    Z=              0.0105  Tot=              0.0398
 Quadrupole moment (field-independent basis, Debye-Ang):
   XX=             -8.1372   YY=             -8.3172   ZZ=             -8.3321
   XY=             -0.0002   XZ=              0.0003   YZ=             -0.0003

 Normal termination of Gaussian 16 at Fri Sep 22 16:33:18 2023.
