 Gaussian 16, Revision A.03,
 Gaussian 16:  ES64L-G16RevA.03 25-Dec-2016

 ----------------
 # 6-31g(d) wb97x
 ----------------

 ----------------------
 tmpdir/M2_conf_2_8.gjf
 ----------------------
 Symbolic Z-matrix:
 Charge =  0 Multiplicity = 1

                         Standard orientation:
 ---------------------------------------------------------------------
 Center     Atomic      Atomic             Coordinates (Angstroms)
 Number     Number       Type             X           Y           Z
 ---------------------------------------------------------------------
      1          6           0        0.985891   -0.673112    0.003502
      2          6           0       -0.499653   -0.213802   -0.011282
      3          6           0       -0.787791    1.256908   -0.001786
      4          8           0        1.785057    0.289971   -0.003749
      5          1           0        1.127216   -1.682024    0.020253
      6          8           0       -1.394446   -0.970471    0.000720
      7          1           0       -1.849109    1.512164   -0.175400
      8          1           0       -0.133776    1.740944   -0.734887
      9          1           0       -0.459906    1.652959    0.971665
 ---------------------------------------------------------------------

 SCF Done:  E(RwB97X) =  -267.058493156     A.U. after   16 cycles

 The electronic state is 1-A.
 Alpha  occ. eigenvalues --  -19.25754 -19.23012 -10.38737 -10.37324 -10.27513
 Alpha  occ. eigenvalues --   -1.21425  -1.18314  -0.88249  -0.81314  -0.68236
 Alpha  occ. eigenvalues --   -0.60687  -0.58837  -0.57802  -0.54814  -0.50790
 Alpha  occ. eigenvalues --   -0.50283  -0.47590  -0.42934  -0.34785
 Alpha virt. eigenvalues --   -0.00543   0.13348   0.20977   0.22831   0.25097
 Alpha virt. eigenvalues --    0.26710   0.29197   0.34941   0.39885   0.43074
 Alpha virt. eigenvalues --    0.60817   0.63412   0.65679   0.68472   0.71276

 Mulliken charges:
               1
     1  C    0.182063
     2  C    0.351666
     3  C   -0.555894
     4  O   -0.372852
     5  H    0.194115
     6  O   -0.377620
     7  H    0.195532
     8  H    0.191670
     9  H    0.191320
 Sum of Mulliken charges =  -0.00000

 Dipole moment (field-independent basis, Debye):
    X=              0.2327    Y=              0.0056    Z=              0.0479  Tot=              0.2376
 Quadrupole moment (field-independent basis, Debye-Ang):
   XX=            -34.8107   YY=            -27.4736   ZZ=            -27.0690
   XY=             -5.5156   XZ=              0.0220   YZ=              0.0582

 Normal termination of Gaussian 16 at Fri Sep 22 16:32:46 2023.
