 Gaussian 16, Revision A.03,
 Gaussian 16:  ES64L-G16RevA.03 25-Dec-2016

 ----------------
 # 6-31g(d) wb97x
 ----------------

 -----------------------
 tmpdir/M2_conf_2_41.gjf
 -----------------------
 Symbolic Z-matrix:
 Charge =  0 Multiplicity = 1

                         Standard orientation:
 ---------------------------------------------------------------------
 Center     Atomic      Atomic             Coordinates (Angstroms)
 Number     Number       Type             X           Y           Z
 ---------------------------------------------------------------------
      1          6           0       -1.256062   -0.245303   -0.050981
      2          6           0        0.033897    0.569239    0.068798
      3          7           0        1.223067   -0.291775   -0.017682
      4          1           0       -2.150420    0.402498   -0.004530
      5          1           0       -1.353319   -1.034381    0.825700
      6          1           0       -1.229658   -0.832998   -0.975593
      7          1           0        0.072620    1.306138   -0.776144
      8          1           0        0.003081    1.152047    1.001208
      9          1           0        1.423108   -1.150942    0.304663
     10          1           0        2.006114    0.256448   -0.358434
 ---------------------------------------------------------------------

 SCF Done:  E(RwB97X) =  -135.106528290     A.U. after   12 cycles

 The electronic state is 1-A.
 Alpha  occ. eigenvalues --  -14.36411 -10.29297 -10.26112  -0.98812  -0.84822
 Alpha  occ. eigenvalues --   -0.72217  -0.59814  -0.56115  -0.53800  -0.46496
 Alpha  occ. eigenvalues --   -0.45695  -0.43486  -0.30338
 Alpha virt. eigenvalues --    0.19126   0.21691   0.23527   0.26339   0.27400
 Alpha virt. eigenvalues --    0.28327   0.31022   0.33352   0.36035   0.64170
 Alpha virt. eigenvalues --    0.65555   0.68199   0.70284   0.78483   0.79576

 Mulliken charges:
               1
     1  C   -0.464537
     2  C   -0.099761
     3  N   -0.801817
     4  H    0.153535
     5  H    0.129532
     6  H    0.165985
     7  H    0.141633
     8  H    0.134533
     9  H    0.329897
    10  H    0.311002
 Sum of Mulliken charges =  -0.00000

 Dipole moment (field-independent basis, Debye):
    X=              0.3665    Y=              0.1265    Z=              0.0678  Tot=              0.3936
 Quadrupole moment (field-independent basis, Debye-Ang):
   XX=            -18.9128   YY=            -19.2056   ZZ=            -21.5213
   XY=             -0.4124   XZ=             -0.2840   YZ=             -1.2265

 Normal termination of Gaussian 16 at Fri Sep 22 16:32:51 2023.
