 Gaussian 16, Revision A.03,
 Gaussian 16:  ES64L-G16RevA.03 25-Dec-2016

 ----------------
 # 6-31g(d) wb97x
 ----------------

 -----------------------
 tmpdir/M2_conf_2_65.gjf
 -----------------------
 Symbolic Z-matrix:
 Charge =  0 Multiplicity = 1

                         Standard orientation:
 ---------------------------------------------------------------------
 Center     Atomic      Atomic             Coordinates (Angstroms)
 Number     Number       Type             X           Y           Z
 ---------------------------------------------------------------------
      1          8           0        0.747990    0.122352    0.016650
      2          6           0       -0.686307   -0.019081    0.005049
      3          1           0        1.268530   -0.701033   -0.063247
      4          1           0       -1.083521   -0.486880    0.927934
      5          1           0       -1.096240    0.990197   -0.177249
      6          1           0       -0.954850   -0.666614   -0.850936
 ---------------------------------------------------------------------

 SCF Done:  E(RwB97X) =  -115.675671570     A.U. after   12 cycles

 The electronic state is 1-A.
 Alpha  occ. eigenvalues --  -19.20086 -10.31237  -1.11906  -0.80268  -0.60587
 Alpha  occ. eigenvalues --   -0.54043  -0.52723  -0.41978  -0.36451
 Alpha virt. eigenvalues --    0.17557   0.22586   0.26542   0.27314   0.30413
 Alpha virt. eigenvalues --    0.64067   0.66880   0.68838   0.90547   0.96301
 Alpha virt. eigenvalues --    0.98108   1.01586   1.06973   1.09566   1.12226

 Mulliken charges:
               1
     1  O   -0.648020
     2  C   -0.215141
     3  H    0.402403
     4  H    0.145200
     5  H    0.175866
     6  H    0.139692
 Sum of Mulliken charges =   0.00000

 Dipole moment (field-independent basis, Debye):
    X=             -0.6940    Y=             -1.5367    Z=             -0.1997  Tot=              1.6979
 Quadrupole moment (field-independent basis, Debye-Ang):
   XX=            -11.9354   YY=            -12.1304   ZZ=            -13.5673
   XY=             -2.3969   XZ=             -0.2261   YZ=              0.0019

 Normal termination of Gaussian 16 at Fri Sep 22 16:32:58 2023.
