 Gaussian 16, Revision A.03,
 Gaussian 16:  ES64L-G16RevA.03 25-Dec-2016

 ----------------
 # 6-31g(d) wb97x
 ----------------

 ------------------------
 tmpdir/M2_conf_1_106.gjf
 ------------------------
 Symbolic Z-matrix:
 Charge =  0 Multiplicity = 1

                         Standard orientation:
 ---------------------------------------------------------------------
 Center     Atomic      Atomic             Coordinates (Angstroms)
 Number     Number       Type             X           Y           Z
 ---------------------------------------------------------------------
      1          6           0        0.763745    0.004619   -0.003035
      2          6           0       -0.762651    0.001354   -0.003393
      3          1           0       -1.146372    0.160987    1.011938
      4          1           0        1.162315   -0.705938    0.727841
      5          1           0        1.156051    0.997631    0.258656
      6          1           0        1.157256   -0.285041   -0.984309
      7          1           0       -1.208290    0.777238   -0.650950
      8          1           0       -1.127526   -0.980717   -0.324605
 ---------------------------------------------------------------------

 SCF Done:  E(RwB97X) =  -79.8010088896     A.U. after   12 cycles

 The electronic state is 1-A.
 Alpha  occ. eigenvalues --  -10.25577 -10.25517  -0.87892  -0.73376  -0.54224
 Alpha  occ. eigenvalues --   -0.54018  -0.46729  -0.44121  -0.43980
 Alpha virt. eigenvalues --    0.19976   0.25401   0.25874   0.26131   0.28882
 Alpha virt. eigenvalues --    0.29145   0.34016   0.61742   0.64735   0.65218
 Alpha virt. eigenvalues --    0.74015   0.75202   0.78923   0.99940   1.00048

 Mulliken charges:
               1
     1  C   -0.467840
     2  C   -0.468105
     3  H    0.155309
     4  H    0.156949
     5  H    0.155432
     6  H    0.156419
     7  H    0.156142
     8  H    0.155693
 Sum of Mulliken charges =   0.00000

 Dipole moment (field-independent basis, Debye):
    X=              0.0025    Y=             -0.0240    Z=              0.0222  Tot=              0.0328
 Quadrupole moment (field-independent basis, Debye-Ang):
   XX=            -15.2696   YY=            -14.6612   ZZ=            -14.7249
   XY=             -0.0732   XZ=              0.0310   YZ=             -0.0026

 Normal termination of Gaussian 16 at Fri Sep 22 16:32:11 2023.
