 Gaussian 16, Revision A.03,
 Gaussian 16:  ES64L-G16RevA.03 25-Dec-2016

 ----------------
 # 6-31g(d) wb97x
 ----------------

 -----------------------
 tmpdir/M2_conf_2_94.gjf
 -----------------------
 Symbolic Z-matrix:
 Charge =  0 Multiplicity = 1

                         Standard orientation:
 ---------------------------------------------------------------------
 Center     Atomic      Atomic             Coordinates (Angstroms)
 Number     Number       Type             X           Y           Z
 ---------------------------------------------------------------------
      1          6           0        0.229611    0.459595   -0.003682
      2          6           0       -1.151226   -0.148474    0.000439
      3          1           0       -1.258803   -0.823380   -0.852671
      4          1           0        0.272046    1.512973    0.008325
      5          8           0        1.216296   -0.298675   -0.000226
      6          1           0       -1.259519   -0.758130    0.901491
      7          1           0       -1.954408    0.591210   -0.035886
 ---------------------------------------------------------------------

 SCF Done:  E(RwB97X) =  -153.779148584     A.U. after   14 cycles

 The electronic state is 1-A.
 Alpha  occ. eigenvalues --  -19.21638 -10.36565 -10.27615  -1.15338  -0.87940
 Alpha  occ. eigenvalues --   -0.71736  -0.58779  -0.55080  -0.53590  -0.50200
 Alpha  occ. eigenvalues --   -0.45391  -0.35786
 Alpha virt. eigenvalues --    0.06155   0.21027   0.22450   0.27187   0.27372
 Alpha virt. eigenvalues --    0.33664   0.37412   0.63147   0.64113   0.68347
 Alpha virt. eigenvalues --    0.70781   0.75407   0.82470   0.88633   0.96315

 Mulliken charges:
               1
     1  C    0.224017
     2  C   -0.555405
     3  H    0.204789
     4  H    0.153525
     5  O   -0.395959
     6  H    0.204835
     7  H    0.164198
 Sum of Mulliken charges =  -0.00000

 Dipole moment (field-independent basis, Debye):
    X=             -2.4142    Y=              1.2419    Z=              0.0106  Tot=              2.7149
 Quadrupole moment (field-independent basis, Debye-Ang):
   XX=            -20.8571   YY=            -17.2459   ZZ=            -17.5438
   XY=              1.1748   XZ=              0.0077   YZ=             -0.0058

 Normal termination of Gaussian 16 at Fri Sep 22 16:33:12 2023.
