 Gaussian 16, Revision A.03,
 Gaussian 16:  ES64L-G16RevA.03 25-Dec-2016

 ----------------
 # 6-31g(d) wb97x
 ----------------

 ------------------------
 tmpdir/M2_conf_0_103.gjf
 ------------------------
 Symbolic Z-matrix:
 Charge =  0 Multiplicity = 1

                         Standard orientation:
 ---------------------------------------------------------------------
 Center     Atomic      Atomic             Coordinates (Angstroms)
 Number     Number       Type             X           Y           Z
 ---------------------------------------------------------------------
      1          6           0        0.763816    0.006321   -0.002651
      2          6           0       -0.761958   -0.001240    0.001977
      3          1           0       -1.115766   -0.097987   -1.030607
      4          1           0        1.098038   -1.024845   -0.458945
      5          1           0        1.190210    0.876872   -0.539912
      6          1           0        1.117520    0.042696    1.045053
      7          1           0       -1.200437   -0.803808    0.622175
      8          1           0       -1.100714    0.976589    0.366279
 ---------------------------------------------------------------------

 SCF Done:  E(RwB97X) =  -79.7951107636     A.U. after   12 cycles

 The electronic state is 1-A.
 Alpha  occ. eigenvalues --  -10.26565 -10.25585  -0.87833  -0.72545  -0.54488
 Alpha  occ. eigenvalues --   -0.53928  -0.46484  -0.44075  -0.43150
 Alpha virt. eigenvalues --    0.19179   0.24941   0.25208   0.26099   0.27709
 Alpha virt. eigenvalues --    0.29041   0.33532   0.61512   0.65178   0.66809
 Alpha virt. eigenvalues --    0.72875   0.76048   0.78770   0.96681   0.99509

 Mulliken charges:
               1
     1  C   -0.455943
     2  C   -0.462533
     3  H    0.156157
     4  H    0.136128
     5  H    0.159538
     6  H    0.155102
     7  H    0.158007
     8  H    0.153543
 Sum of Mulliken charges =  -0.00000

 Dipole moment (field-independent basis, Debye):
    X=             -0.0496    Y=              0.0627    Z=              0.0308  Tot=              0.0857
 Quadrupole moment (field-independent basis, Debye-Ang):
   XX=            -15.6880   YY=            -14.5605   ZZ=            -14.7941
   XY=              0.2580   XZ=             -0.0107   YZ=             -0.0887

 Normal termination of Gaussian 16 at Fri Sep 22 16:31:07 2023.
