 Gaussian 16, Revision A.03,
 Gaussian 16:  ES64L-G16RevA.03 25-Dec-2016

 ----------------
 # 6-31g(d) wb97x
 ----------------

 ----------------------
 tmpdir/M2_conf_1_4.gjf
 ----------------------
 Symbolic Z-matrix:
 Charge =  0 Multiplicity = 1

                         Standard orientation:
 ---------------------------------------------------------------------
 Center     Atomic      Atomic             Coordinates (Angstroms)
 Number     Number       Type             X           Y           Z
 ---------------------------------------------------------------------
      1          8           0       -1.721297   -0.206484    0.000336
      2          6           0       -0.660363    0.457346   -0.000209
      3          6           0        0.658411   -0.366568   -0.005451
      4          1           0       -0.478065    1.459788    0.005305
      5          1           0        0.524949   -1.443061    0.014020
      6          8           0        1.716900    0.136310    0.001493
 ---------------------------------------------------------------------

 SCF Done:  E(RwB97X) =  -227.744689515     A.U. after   16 cycles

 The electronic state is 1-A.
 Alpha  occ. eigenvalues --  -19.26230 -19.25454 -10.38951 -10.38093  -1.22792
 Alpha  occ. eigenvalues --   -1.18557  -0.83476  -0.73610  -0.61625  -0.60128
 Alpha  occ. eigenvalues --   -0.56857  -0.55915  -0.49555  -0.43797  -0.36335
 Alpha virt. eigenvalues --   -0.01520   0.12203   0.22072   0.24849   0.28719
 Alpha virt. eigenvalues --    0.37115   0.38936   0.59767   0.66795   0.67865
 Alpha virt. eigenvalues --    0.69628   0.72870   0.82980   0.89624   0.90549

 Mulliken charges:
               1
     1  O   -0.370505
     2  C    0.181011
     3  C    0.165135
     4  H    0.191463
     5  H    0.157905
     6  O   -0.325010
 Sum of Mulliken charges =   0.00000

 Dipole moment (field-independent basis, Debye):
    X=              0.0837    Y=              0.4392    Z=             -0.0028  Tot=              0.4472
 Quadrupole moment (field-independent basis, Debye-Ang):
   XX=            -30.6423   YY=            -19.9305   ZZ=            -20.8121
   XY=             -2.1952   XZ=             -0.0050   YZ=             -0.0048

 Normal termination of Gaussian 16 at Fri Sep 22 16:31:29 2023.
