 Gaussian 16, Revision A.03,
 Gaussian 16:  ES64L-G16RevA.03 25-Dec-2016

 ----------------
 # 6-31g(d) wb97x
 ----------------

 -----------------------
 tmpdir/M2_conf_2_61.gjf
 -----------------------
 Symbolic Z-matrix:
 Charge =  0 Multiplicity = 1

                         Standard orientation:
 ---------------------------------------------------------------------
 Center     Atomic      Atomic             Coordinates (Angstroms)
 Number     Number       Type             X           Y           Z
 ---------------------------------------------------------------------
      1          6           0       -0.518011   -0.000905   -0.005466
      2          1           0       -1.000896    0.973148    0.010801
      3          8           0        0.653847   -0.008053    0.001302
      4          1           0       -1.121815   -0.903295    0.011576
 ---------------------------------------------------------------------

 SCF Done:  E(RwB97X) =  -114.462558614     A.U. after   14 cycles

 The electronic state is 1-A.
 Alpha  occ. eigenvalues --  -19.22950 -10.36027  -1.20188  -0.75383  -0.62263
 Alpha  occ. eigenvalues --   -0.55911  -0.51550  -0.36504
 Alpha virt. eigenvalues --    0.07143   0.20889   0.29147   0.32536   0.61578
 Alpha virt. eigenvalues --    0.72269   0.74934   0.84556   0.94832   0.97109
 Alpha virt. eigenvalues --    1.01583   1.07854   1.18095   1.50111   1.59833

 Mulliken charges:
               1
     1  C    0.059078
     2  H    0.125030
     3  O   -0.315229
     4  H    0.131121
 Sum of Mulliken charges =  -0.00000

 Dipole moment (field-independent basis, Debye):
    X=             -2.1887    Y=             -0.0057    Z=             -0.0001  Tot=              2.1887
 Quadrupole moment (field-independent basis, Debye-Ang):
   XX=            -11.9705   YY=            -11.3373   ZZ=            -11.2971
   XY=              0.1227   XZ=             -0.0090   YZ=              0.0012

 Normal termination of Gaussian 16 at Fri Sep 22 16:32:49 2023.
