 Gaussian 16, Revision A.03,
 Gaussian 16:  ES64L-G16RevA.03 25-Dec-2016

 ----------------
 # 6-31g(d) wb97x
 ----------------

 -----------------------
 tmpdir/M2_conf_1_78.gjf
 -----------------------
 Symbolic Z-matrix:
 Charge =  0 Multiplicity = 1

                         Standard orientation:
 ---------------------------------------------------------------------
 Center     Atomic      Atomic             Coordinates (Angstroms)
 Number     Number       Type             X           Y           Z
 ---------------------------------------------------------------------
      1          6           0       -0.006378   -0.011095   -0.002449
      2          1           0        0.205260    0.493628    0.948389
      3          1           0        0.813883   -0.734411   -0.182204
      4          1           0       -1.015577   -0.462080    0.019413
      5          1           0        0.034701    0.769431   -0.770903
 ---------------------------------------------------------------------

 SCF Done:  E(RwB97X) =  -40.4984529431     A.U. after   11 cycles

 The electronic state is 1-A.
 Alpha  occ. eigenvalues --  -10.25261  -0.81542  -0.50090  -0.49115  -0.48779
 Alpha virt. eigenvalues --    0.21389   0.27073   0.27259   0.27486   0.63806
 Alpha virt. eigenvalues --    0.64109   0.65080   1.00499   1.01029   1.01662
 Alpha virt. eigenvalues --    1.06360   1.20709   1.75889   1.76066   2.31950

 Mulliken charges:
               1
     1  C   -0.664631
     2  H    0.165216
     3  H    0.165554
     4  H    0.167955
     5  H    0.165906
 Sum of Mulliken charges =   0.00000

 Dipole moment (field-independent basis, Debye):
    X=              0.0219    Y=              0.0537    Z=              0.0110  Tot=              0.0590
 Quadrupole moment (field-independent basis, Debye-Ang):
   XX=             -8.0914   YY=             -8.3176   ZZ=             -8.4160
   XY=              0.0097   XZ=              0.0002   YZ=             -0.0034

 Normal termination of Gaussian 16 at Fri Sep 22 16:31:50 2023.
