 Gaussian 16, Revision A.03,
 Gaussian 16:  ES64L-G16RevA.03 25-Dec-2016

 ----------------
 # 6-31g(d) wb97x
 ----------------

 -----------------------
 tmpdir/M2_conf_0_24.gjf
 -----------------------
 Symbolic Z-matrix:
 Charge =  0 Multiplicity = 1

                         Standard orientation:
 ---------------------------------------------------------------------
 Center     Atomic      Atomic             Coordinates (Angstroms)
 Number     Number       Type             X           Y           Z
 ---------------------------------------------------------------------
      1          6           0        1.319107   -0.242113   -0.007832
      2          6           0        0.002473    0.530735   -0.025151
      3          6           0       -1.318780   -0.240185    0.017230
      4          1           0        1.312624   -1.145865   -0.607999
      5          1           0        2.155780    0.383618   -0.336310
      6          1           0        1.572540   -0.530739    1.023886
      7          1           0        0.017405    1.262548    0.904845
      8          1           0       -0.076430    1.175987   -0.907433
      9          1           0       -2.302842    0.365535   -0.015154
     10          1           0       -1.367963   -0.917097   -0.875971
     11          1           0       -1.327918   -0.884605    0.908655
 ---------------------------------------------------------------------

 SCF Done:  E(RwB97X) =  -119.093800065     A.U. after   12 cycles

 The electronic state is 1-A.
 Alpha  occ. eigenvalues --  -10.27155 -10.26349 -10.25619  -0.90353  -0.80518
 Alpha  occ. eigenvalues --   -0.69436  -0.56091  -0.53953  -0.49925  -0.48363
 Alpha  occ. eigenvalues --   -0.44834  -0.42082  -0.41178
 Alpha virt. eigenvalues --    0.18204   0.22720   0.24053   0.24487   0.25936
 Alpha virt. eigenvalues --    0.27424   0.28193   0.30536   0.33005   0.37638
 Alpha virt. eigenvalues --    0.60758   0.62263   0.65593   0.68756   0.69417

 Mulliken charges:
               1
     1  C   -0.471754
     2  C   -0.265592
     3  C   -0.460193
     4  H    0.158360
     5  H    0.162353
     6  H    0.155257
     7  H    0.123806
     8  H    0.150168
     9  H    0.150035
    10  H    0.144736
    11  H    0.152824
 Sum of Mulliken charges =  -0.00000

 Dipole moment (field-independent basis, Debye):
    X=              0.0981    Y=             -0.0232    Z=             -0.0485  Tot=              0.1119
 Quadrupole moment (field-independent basis, Debye-Ang):
   XX=            -21.4822   YY=            -21.9338   ZZ=            -21.4094
   XY=             -0.1345   XZ=              0.1380   YZ=             -0.0324

 Normal termination of Gaussian 16 at Fri Sep 22 16:30:19 2023.
