 Gaussian 16, Revision A.03,
 Gaussian 16:  ES64L-G16RevA.03 25-Dec-2016

 ----------------
 # 6-31g(d) wb97x
 ----------------

 -----------------------
 tmpdir/M2_conf_2_13.gjf
 -----------------------
 Symbolic Z-matrix:
 Charge =  0 Multiplicity = 1

                         Standard orientation:
 ---------------------------------------------------------------------
 Center     Atomic      Atomic             Coordinates (Angstroms)
 Number     Number       Type             X           Y           Z
 ---------------------------------------------------------------------
      1          6           0        0.010459    0.011279   -0.004514
      2          1           0       -0.274956   -0.513310    0.922465
      3          1           0       -0.538900    0.946361   -0.033426
      4          1           0        1.108556    0.129032   -0.049251
      5          1           0       -0.357456   -0.629756   -0.812702
 ---------------------------------------------------------------------

 SCF Done:  E(RwB97X) =  -40.4983508198     A.U. after   11 cycles

 The electronic state is 1-A.
 Alpha  occ. eigenvalues --  -10.25053  -0.81691  -0.50273  -0.49421  -0.48541
 Alpha virt. eigenvalues --    0.21515   0.27035   0.27398   0.27822   0.63788
 Alpha virt. eigenvalues --    0.63887   0.64891   1.00547   1.01292   1.02386
 Alpha virt. eigenvalues --    1.07106   1.20950   1.75846   1.75933   2.32638

 Mulliken charges:
               1
     1  C   -0.666927
     2  H    0.162543
     3  H    0.170655
     4  H    0.168090
     5  H    0.165640
 Sum of Mulliken charges =   0.00000

 Dipole moment (field-independent basis, Debye):
    X=             -0.0498    Y=             -0.0319    Z=              0.0111  Tot=              0.0601
 Quadrupole moment (field-independent basis, Debye-Ang):
   XX=             -8.0703   YY=             -8.2887   ZZ=             -8.4296
   XY=             -0.0202   XZ=              0.0057   YZ=              0.0101

 Normal termination of Gaussian 16 at Fri Sep 22 16:32:27 2023.
