 Gaussian 16, Revision A.03,
 Gaussian 16:  ES64L-G16RevA.03 25-Dec-2016

 ----------------
 # 6-31g(d) wb97x
 ----------------

 -----------------------
 tmpdir/M2_conf_0_67.gjf
 -----------------------
 Symbolic Z-matrix:
 Charge =  0 Multiplicity = 1

                         Standard orientation:
 ---------------------------------------------------------------------
 Center     Atomic      Atomic             Coordinates (Angstroms)
 Number     Number       Type             X           Y           Z
 ---------------------------------------------------------------------
      1          6           0       -0.747784    0.003393   -0.008209
      2          6           0        0.758389   -0.015558   -0.003147
      3          1           0       -1.221224   -0.870799    0.620153
      4          1           0       -1.176263   -0.076379   -1.023075
      5          1           0       -1.080659    0.959196    0.438733
      6          1           0        1.204325   -0.942567   -0.408287
      7          1           0        1.111547    0.149108    1.021354
      8          1           0        1.098644    0.854432   -0.580737
 ---------------------------------------------------------------------

 SCF Done:  E(RwB97X) =  -79.7962618180     A.U. after   12 cycles

 The electronic state is 1-A.
 Alpha  occ. eigenvalues --  -10.26382 -10.25605  -0.88166  -0.72643  -0.54664
 Alpha  occ. eigenvalues --   -0.53746  -0.46846  -0.44151  -0.43060
 Alpha virt. eigenvalues --    0.19456   0.24460   0.25600   0.25780   0.28099
 Alpha virt. eigenvalues --    0.28863   0.34421   0.61029   0.65395   0.66431
 Alpha virt. eigenvalues --    0.74272   0.75019   0.79765   0.96818   0.99075

 Mulliken charges:
               1
     1  C   -0.456650
     2  C   -0.460400
     3  H    0.135245
     4  H    0.156847
     5  H    0.154792
     6  H    0.157778
     7  H    0.157157
     8  H    0.155231
 Sum of Mulliken charges =  -0.00000

 Dipole moment (field-independent basis, Debye):
    X=              0.0431    Y=              0.0893    Z=             -0.0154  Tot=              0.1004
 Quadrupole moment (field-independent basis, Debye-Ang):
   XX=            -15.5052   YY=            -14.6565   ZZ=            -14.8037
   XY=             -0.0302   XZ=              0.0622   YZ=              0.0892

 Normal termination of Gaussian 16 at Fri Sep 22 16:30:46 2023.
