 Gaussian 16, Revision A.03,
 Gaussian 16:  ES64L-G16RevA.03 25-Dec-2016

 ----------------
 # 6-31g(d) wb97x
 ----------------

 -----------------------
 tmpdir/M2_conf_0_75.gjf
 -----------------------
 Symbolic Z-matrix:
 Charge =  0 Multiplicity = 1

                         Standard orientation:
 ---------------------------------------------------------------------
 Center     Atomic      Atomic             Coordinates (Angstroms)
 Number     Number       Type             X           Y           Z
 ---------------------------------------------------------------------
      1          6           0       -0.758804   -0.001393   -0.001374
      2          6           0        0.766976    0.006430   -0.001251
      3          1           0        1.063853    0.045516    1.063861
      4          1           0       -1.199082   -0.802652    0.619247
      5          1           0       -1.112628   -0.100424   -1.033737
      6          1           0       -1.098866    0.977256    0.359509
      7          1           0        1.102799   -1.025772   -0.454005
      8          1           0        1.194897    0.875856   -0.539126
 ---------------------------------------------------------------------

 SCF Done:  E(RwB97X) =  -79.7942842332     A.U. after   12 cycles

 The electronic state is 1-A.
 Alpha  occ. eigenvalues --  -10.26573 -10.25531  -0.87893  -0.72429  -0.54577
 Alpha  occ. eigenvalues --   -0.54042  -0.46399  -0.43898  -0.43247
 Alpha virt. eigenvalues --    0.19093   0.24906   0.25191   0.26325   0.27635
 Alpha virt. eigenvalues --    0.28997   0.33382   0.61431   0.65420   0.66993
 Alpha virt. eigenvalues --    0.72428   0.76008   0.78805   0.96729   0.99485

 Mulliken charges:
               1
     1  C   -0.463770
     2  C   -0.454278
     3  H    0.155085
     4  H    0.157626
     5  H    0.154986
     6  H    0.153205
     7  H    0.136893
     8  H    0.160252
 Sum of Mulliken charges =   0.00000

 Dipole moment (field-independent basis, Debye):
    X=             -0.0571    Y=              0.0628    Z=              0.0307  Tot=              0.0902
 Quadrupole moment (field-independent basis, Debye-Ang):
   XX=            -15.7811   YY=            -14.5535   ZZ=            -14.7535
   XY=              0.2548   XZ=             -0.0891   YZ=             -0.0886

 Normal termination of Gaussian 16 at Fri Sep 22 16:30:45 2023.
