 Gaussian 16, Revision A.03,
 Gaussian 16:  ES64L-G16RevA.03 25-Dec-2016

 ----------------
 # 6-31g(d) wb97x
 ----------------

 ------------------------
 tmpdir/M2_conf_1_110.gjf
 ------------------------
 Symbolic Z-matrix:
 Charge =  0 Multiplicity = 1

                         Standard orientation:
 ---------------------------------------------------------------------
 Center     Atomic      Atomic             Coordinates (Angstroms)
 Number     Number       Type             X           Y           Z
 ---------------------------------------------------------------------
      1          6           0       -0.007874    0.000084   -0.001110
      2          1           0        0.307154   -0.798649   -0.675019
      3          1           0       -1.108912    0.032763    0.086555
      4          1           0        0.462222   -0.190726    0.968705
      5          1           0        0.386779    0.956105   -0.373580
 ---------------------------------------------------------------------

 SCF Done:  E(RwB97X) =  -40.4990984422     A.U. after   11 cycles

 The electronic state is 1-A.
 Alpha  occ. eigenvalues --  -10.25075  -0.81651  -0.49861  -0.49371  -0.48998
 Alpha virt. eigenvalues --    0.21526   0.27271   0.27464   0.27519   0.63790
 Alpha virt. eigenvalues --    0.64077   0.64699   1.01182   1.01488   1.01674
 Alpha virt. eigenvalues --    1.06715   1.20724   1.75801   1.75969   2.33308

 Mulliken charges:
               1
     1  C   -0.665824
     2  H    0.167447
     3  H    0.166776
     4  H    0.166127
     5  H    0.165475
 Sum of Mulliken charges =   0.00000

 Dipole moment (field-independent basis, Debye):
    X=              0.0382    Y=             -0.0075    Z=              0.0037  Tot=              0.0392
 Quadrupole moment (field-independent basis, Debye-Ang):
   XX=             -8.1415   YY=             -8.2884   ZZ=             -8.3587
   XY=             -0.0050   XZ=             -0.0014   YZ=              0.0081

 Normal termination of Gaussian 16 at Fri Sep 22 16:32:09 2023.
