 Gaussian 16, Revision A.03,
 Gaussian 16:  ES64L-G16RevA.03 25-Dec-2016

 ----------------
 # 6-31g(d) wb97x
 ----------------

 ------------------------
 tmpdir/M2_conf_2_120.gjf
 ------------------------
 Symbolic Z-matrix:
 Charge =  0 Multiplicity = 1

                         Standard orientation:
 ---------------------------------------------------------------------
 Center     Atomic      Atomic             Coordinates (Angstroms)
 Number     Number       Type             X           Y           Z
 ---------------------------------------------------------------------
      1          6           0        0.762178   -0.005070   -0.002763
      2          6           0       -0.765219   -0.005152    0.000213
      3          1           0       -1.148740    1.017222    0.063905
      4          1           0        1.219155   -0.994038   -0.206359
      5          1           0        1.131810    0.715052   -0.741840
      6          1           0        1.144731    0.338621    0.967697
      7          1           0       -1.169343   -0.565428    0.850581
      8          1           0       -1.159366   -0.450101   -0.918689
 ---------------------------------------------------------------------

 SCF Done:  E(RwB97X) =  -79.8007646712     A.U. after   12 cycles

 The electronic state is 1-A.
 Alpha  occ. eigenvalues --  -10.25631 -10.25476  -0.87868  -0.73418  -0.54176
 Alpha  occ. eigenvalues --   -0.54001  -0.46747  -0.44190  -0.43917
 Alpha virt. eigenvalues --    0.19998   0.25315   0.25731   0.25926   0.29080
 Alpha virt. eigenvalues --    0.29481   0.34024   0.61787   0.64837   0.64949
 Alpha virt. eigenvalues --    0.74096   0.75487   0.78885   0.99897   1.00001

 Mulliken charges:
               1
     1  C   -0.469015
     2  C   -0.468117
     3  H    0.157105
     4  H    0.155495
     5  H    0.156037
     6  H    0.154866
     7  H    0.156675
     8  H    0.156954
 Sum of Mulliken charges =  -0.00000

 Dipole moment (field-independent basis, Debye):
    X=             -0.0062    Y=              0.0360    Z=              0.0060  Tot=              0.0370
 Quadrupole moment (field-independent basis, Debye-Ang):
   XX=            -15.2410   YY=            -14.6491   ZZ=            -14.7500
   XY=             -0.0486   XZ=              0.0001   YZ=             -0.0044

 Normal termination of Gaussian 16 at Fri Sep 22 16:33:15 2023.
