 Gaussian 16, Revision A.03,
 Gaussian 16:  ES64L-G16RevA.03 25-Dec-2016

 ----------------
 # 6-31g(d) wb97x
 ----------------

 -----------------------
 tmpdir/M2_conf_2_59.gjf
 -----------------------
 Symbolic Z-matrix:
 Charge =  0 Multiplicity = 1

                         Standard orientation:
 ---------------------------------------------------------------------
 Center     Atomic      Atomic             Coordinates (Angstroms)
 Number     Number       Type             X           Y           Z
 ---------------------------------------------------------------------
      1          6           0        0.251024    0.400699   -0.011067
      2          6           0       -1.153947   -0.124603    0.009305
      3          1           0       -1.477525   -0.128018    1.067116
      4          8           0        1.198251   -0.289279   -0.004181
      5          1           0        0.427468    1.473123    0.007641
      6          1           0       -1.206311   -1.171068   -0.391451
      7          1           0       -1.912099    0.483617   -0.639288
 ---------------------------------------------------------------------

 SCF Done:  E(RwB97X) =  -153.776984558     A.U. after   15 cycles

 The electronic state is 1-A.
 Alpha  occ. eigenvalues --  -19.21321 -10.35781 -10.28780  -1.19282  -0.87326
 Alpha  occ. eigenvalues --   -0.69962  -0.59223  -0.56007  -0.54585  -0.48943
 Alpha  occ. eigenvalues --   -0.47410  -0.35367
 Alpha virt. eigenvalues --    0.08603   0.19815   0.21966   0.25290   0.25661
 Alpha virt. eigenvalues --    0.36234   0.38238   0.63301   0.64282   0.70253
 Alpha virt. eigenvalues --    0.71927   0.79526   0.84942   0.86736   0.94613

 Mulliken charges:
               1
     1  C    0.242678
     2  C   -0.561190
     3  H    0.194692
     4  O   -0.353397
     5  H    0.118604
     6  H    0.194817
     7  H    0.163796
 Sum of Mulliken charges =  -0.00000

 Dipole moment (field-independent basis, Debye):
    X=             -2.2291    Y=              1.0632    Z=              0.0777  Tot=              2.4708
 Quadrupole moment (field-independent basis, Debye-Ang):
   XX=            -20.5145   YY=            -17.8750   ZZ=            -17.4284
   XY=              1.1806   XZ=              0.0114   YZ=              0.0334

 Normal termination of Gaussian 16 at Fri Sep 22 16:33:02 2023.
