 Gaussian 16, Revision A.03,
 Gaussian 16:  ES64L-G16RevA.03 25-Dec-2016

 ----------------
 # 6-31g(d) wb97x
 ----------------

 -----------------------
 tmpdir/M2_conf_1_36.gjf
 -----------------------
 Symbolic Z-matrix:
 Charge =  1 Multiplicity = 1

                         Standard orientation:
 ---------------------------------------------------------------------
 Center     Atomic      Atomic             Coordinates (Angstroms)
 Number     Number       Type             X           Y           Z
 ---------------------------------------------------------------------
      1          1           0        0.893838    0.582155    0.082353
      2          7           0       -0.004403   -0.003857   -0.001905
      3          1           0        0.107786   -0.674817   -0.764610
      4          1           0       -0.819225    0.643450   -0.171023
      5          1           0       -0.151580   -0.523787    0.866613
 ---------------------------------------------------------------------

 SCF Done:  E(RwB97X) =  -56.8737122065     A.U. after   10 cycles

 The electronic state is 1-A.
 Alpha  occ. eigenvalues --  -14.79092  -1.36604  -0.93394  -0.93067  -0.91865
 Alpha virt. eigenvalues --   -0.10720  -0.03547  -0.02009  -0.01374   0.44807
 Alpha virt. eigenvalues --    0.46240   0.46362   0.66731   0.68198   0.69965
 Alpha virt. eigenvalues --    0.71670   1.09742   1.36121   1.36520   2.04741

 Mulliken charges:
               1
     1  H    0.473130
     2  N   -0.886167
     3  H    0.470018
     4  H    0.474048
     5  H    0.468971
 Sum of Mulliken charges =   1.00000

 Dipole moment (field-independent basis, Debye):
    X=              0.0587    Y=              0.0673    Z=              0.0215  Tot=              0.0918
 Quadrupole moment (field-independent basis, Debye-Ang):
   XX=             -4.2023   YY=             -4.2368   ZZ=             -4.5083
   XY=             -0.0125   XZ=             -0.0052   YZ=              0.0023

 Normal termination of Gaussian 16 at Fri Sep 22 16:31:30 2023.
