 Gaussian 16, Revision A.03,
 Gaussian 16:  ES64L-G16RevA.03 25-Dec-2016

 ----------------
 # 6-31g(d) wb97x
 ----------------

 -----------------------
 tmpdir/M2_conf_1_45.gjf
 -----------------------
 Symbolic Z-matrix:
 Charge =  0 Multiplicity = 1

                         Standard orientation:
 ---------------------------------------------------------------------
 Center     Atomic      Atomic             Coordinates (Angstroms)
 Number     Number       Type             X           Y           Z
 ---------------------------------------------------------------------
      1          7           0        0.744325   -0.032476   -0.025321
      2          6           0       -0.726044   -0.020014    0.003306
      3          1           0       -1.046494    0.071830    1.051582
      4          1           0        1.386149   -0.712867    0.059704
      5          1           0        1.085924    0.921072    0.036930
      6          1           0       -1.263524   -0.863111   -0.473678
      7          1           0       -1.016065    0.930493   -0.517130
 ---------------------------------------------------------------------

 SCF Done:  E(RwB97X) =  -95.8010639838     A.U. after   12 cycles

 The electronic state is 1-A.
 Alpha  occ. eigenvalues --  -14.36344 -10.28729  -0.98136  -0.78078  -0.60786
 Alpha  occ. eigenvalues --   -0.52624  -0.51457  -0.47040  -0.29981
 Alpha virt. eigenvalues --    0.19404   0.23659   0.25215   0.28091   0.31122
 Alpha virt. eigenvalues --    0.34519   0.64601   0.68274   0.70191   0.86052
 Alpha virt. eigenvalues --    0.87776   0.93027   0.98492   1.00016   1.06933

 Mulliken charges:
               1
     1  N   -0.798713
     2  C   -0.297255
     3  H    0.144685
     4  H    0.330333
     5  H    0.311884
     6  H    0.160060
     7  H    0.149006
 Sum of Mulliken charges =   0.00000

 Dipole moment (field-independent basis, Debye):
    X=              0.1573    Y=              0.2013    Z=              0.2458  Tot=              0.3545
 Quadrupole moment (field-independent basis, Debye-Ang):
   XX=            -12.3068   YY=            -12.0764   ZZ=            -15.5318
   XY=              0.0057   XZ=              0.6357   YZ=             -0.0078

 Normal termination of Gaussian 16 at Fri Sep 22 16:31:36 2023.
