 Gaussian 16, Revision A.03,
 Gaussian 16:  ES64L-G16RevA.03 25-Dec-2016

 ----------------
 # 6-31g(d) wb97x
 ----------------

 -----------------------
 tmpdir/M2_conf_2_77.gjf
 -----------------------
 Symbolic Z-matrix:
 Charge =  0 Multiplicity = 1

                         Standard orientation:
 ---------------------------------------------------------------------
 Center     Atomic      Atomic             Coordinates (Angstroms)
 Number     Number       Type             X           Y           Z
 ---------------------------------------------------------------------
      1          6           0       -0.006407   -0.011145   -0.002230
      2          1           0        0.033183    0.738675   -0.798967
      3          1           0        0.812891   -0.741449   -0.156270
      4          1           0       -1.015865   -0.460156    0.039409
      5          1           0        0.208232    0.529801    0.929209
 ---------------------------------------------------------------------

 SCF Done:  E(RwB97X) =  -40.4984504129     A.U. after   11 cycles

 The electronic state is 1-A.
 Alpha  occ. eigenvalues --  -10.25260  -0.81543  -0.50088  -0.49130  -0.48767
 Alpha virt. eigenvalues --    0.21389   0.27055   0.27282   0.27483   0.63805
 Alpha virt. eigenvalues --    0.64106   0.65081   1.00478   1.01053   1.01662
 Alpha virt. eigenvalues --    1.06365   1.20710   1.75889   1.76066   2.31949

 Mulliken charges:
               1
     1  C   -0.664640
     2  H    0.166259
     3  H    0.165554
     4  H    0.167949
     5  H    0.164877
 Sum of Mulliken charges =  -0.00000

 Dipole moment (field-independent basis, Debye):
    X=              0.0218    Y=              0.0542    Z=              0.0075  Tot=              0.0589
 Quadrupole moment (field-independent basis, Debye-Ang):
   XX=             -8.0912   YY=             -8.3181   ZZ=             -8.4155
   XY=              0.0094   XZ=             -0.0009   YZ=             -0.0068

 Normal termination of Gaussian 16 at Fri Sep 22 16:33:04 2023.
