 Gaussian 16, Revision A.03,
 Gaussian 16:  ES64L-G16RevA.03 25-Dec-2016

 ----------------
 # 6-31g(d) wb97x
 ----------------

 -----------------------
 tmpdir/M2_conf_1_93.gjf
 -----------------------
 Symbolic Z-matrix:
 Charge =  0 Multiplicity = 1

                         Standard orientation:
 ---------------------------------------------------------------------
 Center     Atomic      Atomic             Coordinates (Angstroms)
 Number     Number       Type             X           Y           Z
 ---------------------------------------------------------------------
      1          6           0        0.229371    0.459625   -0.003070
      2          6           0       -1.151342   -0.148734    0.000003
      3          1           0       -1.280609   -0.763093    0.895082
      4          1           0        0.271575    1.513010    0.008683
      5          8           0        1.216209   -0.298431    0.001461
      6          1           0       -1.234163   -0.818592   -0.859821
      7          1           0       -1.954650    0.590778   -0.037227
 ---------------------------------------------------------------------

 SCF Done:  E(RwB97X) =  -153.779141391     A.U. after   14 cycles

 The electronic state is 1-A.
 Alpha  occ. eigenvalues --  -19.21639 -10.36563 -10.27614  -1.15339  -0.87941
 Alpha  occ. eigenvalues --   -0.71729  -0.58786  -0.55086  -0.53574  -0.50210
 Alpha  occ. eigenvalues --   -0.45390  -0.35786
 Alpha virt. eigenvalues --    0.06155   0.21027   0.22458   0.27161   0.27395
 Alpha virt. eigenvalues --    0.33657   0.37409   0.63146   0.64110   0.68356
 Alpha virt. eigenvalues --    0.70779   0.75411   0.82482   0.88572   0.96283

 Mulliken charges:
               1
     1  C    0.223818
     2  C   -0.555179
     3  H    0.205042
     4  H    0.153475
     5  O   -0.395957
     6  H    0.204582
     7  H    0.164219
 Sum of Mulliken charges =   0.00000

 Dipole moment (field-independent basis, Debye):
    X=             -2.4134    Y=              1.2420    Z=              0.0070  Tot=              2.7143
 Quadrupole moment (field-independent basis, Debye-Ang):
   XX=            -20.8605   YY=            -17.2477   ZZ=            -17.5423
   XY=              1.1673   XZ=             -0.0410   YZ=              0.0012

 Normal termination of Gaussian 16 at Fri Sep 22 16:32:02 2023.
