 Gaussian 16, Revision A.03,
 Gaussian 16:  ES64L-G16RevA.03 25-Dec-2016

 ----------------
 # 6-31g(d) wb97x
 ----------------

 ------------------------
 tmpdir/M2_conf_2_103.gjf
 ------------------------
 Symbolic Z-matrix:
 Charge =  0 Multiplicity = 1

                         Standard orientation:
 ---------------------------------------------------------------------
 Center     Atomic      Atomic             Coordinates (Angstroms)
 Number     Number       Type             X           Y           Z
 ---------------------------------------------------------------------
      1          6           0        0.763736    0.006329   -0.002563
      2          6           0       -0.762039   -0.001244    0.001943
      3          1           0       -1.114313   -0.098389   -1.031129
      4          1           0        1.098004   -1.024992   -0.458474
      5          1           0        1.190166    0.876698   -0.540090
      6          1           0        1.117354    0.043069    1.045157
      7          1           0       -1.200561   -0.803601    0.622382
      8          1           0       -1.100833    0.976708    0.365879
 ---------------------------------------------------------------------

 SCF Done:  E(RwB97X) =  -79.7950961180     A.U. after   12 cycles

 The electronic state is 1-A.
 Alpha  occ. eigenvalues --  -10.26563 -10.25585  -0.87835  -0.72541  -0.54490
 Alpha  occ. eigenvalues --   -0.53934  -0.46479  -0.44071  -0.43153
 Alpha virt. eigenvalues --    0.19177   0.24941   0.25208   0.26105   0.27705
 Alpha virt. eigenvalues --    0.29039   0.33528   0.61509   0.65186   0.66811
 Alpha virt. eigenvalues --    0.72864   0.76047   0.78771   0.96678   0.99509

 Mulliken charges:
               1
     1  C   -0.455969
     2  C   -0.462481
     3  H    0.156155
     4  H    0.136115
     5  H    0.159530
     6  H    0.155069
     7  H    0.158026
     8  H    0.153556
 Sum of Mulliken charges =   0.00000

 Dipole moment (field-independent basis, Debye):
    X=             -0.0494    Y=              0.0627    Z=              0.0307  Tot=              0.0855
 Quadrupole moment (field-independent basis, Debye-Ang):
   XX=            -15.6908   YY=            -14.5604   ZZ=            -14.7927
   XY=              0.2579   XZ=             -0.0129   YZ=             -0.0887

 Normal termination of Gaussian 16 at Fri Sep 22 16:33:19 2023.
