 Gaussian 16, Revision A.03,
 Gaussian 16:  ES64L-G16RevA.03 25-Dec-2016

 ----------------
 # 6-31g(d) wb97x
 ----------------

 -----------------------
 tmpdir/M2_conf_2_17.gjf
 -----------------------
 Symbolic Z-matrix:
 Charge =  0 Multiplicity = 1

                         Standard orientation:
 ---------------------------------------------------------------------
 Center     Atomic      Atomic             Coordinates (Angstroms)
 Number     Number       Type             X           Y           Z
 ---------------------------------------------------------------------
      1          6           0       -0.764870    0.019660    0.000026
      2          6           0        0.761884    0.009492    0.006019
      3          1           0        1.119373   -0.661241    0.794545
      4          1           0       -1.116817   -1.003115   -0.480320
      5          1           0       -1.163268    0.888844   -0.559455
      6          1           0       -1.173512    0.024423    1.016874
      7          1           0        1.212997    0.988273    0.130480
      8          1           0        1.139144   -0.412095   -0.938395
 ---------------------------------------------------------------------

 SCF Done:  E(RwB97X) =  -79.7947913595     A.U. after   12 cycles

 The electronic state is 1-A.
 Alpha  occ. eigenvalues --  -10.26549 -10.25406  -0.87749  -0.72904  -0.54530
 Alpha  occ. eigenvalues --   -0.53614  -0.46485  -0.44396  -0.43112
 Alpha virt. eigenvalues --    0.19289   0.23618   0.24971   0.25414   0.29711
 Alpha virt. eigenvalues --    0.30727   0.33886   0.61724   0.64907   0.65964
 Alpha virt. eigenvalues --    0.74713   0.76375   0.78800   0.96166   0.99437

 Mulliken charges:
               1
     1  C   -0.458999
     2  C   -0.467778
     3  H    0.156368
     4  H    0.134544
     5  H    0.158697
     6  H    0.160658
     7  H    0.160856
     8  H    0.155654
 Sum of Mulliken charges =  -0.00000

 Dipole moment (field-independent basis, Debye):
    X=              0.0571    Y=              0.0163    Z=              0.0389  Tot=              0.0711
 Quadrupole moment (field-independent basis, Debye-Ang):
   XX=            -15.4730   YY=            -14.5688   ZZ=            -14.8444
   XY=             -0.0402   XZ=             -0.1123   YZ=             -0.0833

 Normal termination of Gaussian 16 at Fri Sep 22 16:32:39 2023.
