 Gaussian 16, Revision A.03,
 Gaussian 16:  ES64L-G16RevA.03 25-Dec-2016

 ----------------
 # 6-31g(d) wb97x
 ----------------

 ------------------------
 tmpdir/M2_conf_2_111.gjf
 ------------------------
 Symbolic Z-matrix:
 Charge =  0 Multiplicity = 1

                         Standard orientation:
 ---------------------------------------------------------------------
 Center     Atomic      Atomic             Coordinates (Angstroms)
 Number     Number       Type             X           Y           Z
 ---------------------------------------------------------------------
      1          6           0       -0.763431    0.001157   -0.003171
      2          6           0        0.762965    0.004337   -0.003940
      3          1           0        1.164115   -0.669693    0.759403
      4          1           0       -1.209457    0.745007   -0.687042
      5          1           0       -1.128544   -0.995259   -0.276338
      6          1           0       -1.134629    0.210405    1.007798
      7          1           0        1.155471    1.008809    0.209231
      8          1           0        1.155840   -0.332234   -0.970385
 ---------------------------------------------------------------------

 SCF Done:  E(RwB97X) =  -79.8009727060     A.U. after   12 cycles

 The electronic state is 1-A.
 Alpha  occ. eigenvalues --  -10.25581 -10.25503  -0.87900  -0.73352  -0.54237
 Alpha  occ. eigenvalues --   -0.54047  -0.46695  -0.44119  -0.43986
 Alpha virt. eigenvalues --    0.19960   0.25398   0.25913   0.26138   0.28852
 Alpha virt. eigenvalues --    0.29146   0.33992   0.61726   0.64771   0.65256
 Alpha virt. eigenvalues --    0.73908   0.75216   0.78923   0.99946   1.00047

 Mulliken charges:
               1
     1  C   -0.467577
     2  C   -0.468134
     3  H    0.156870
     4  H    0.156326
     5  H    0.155815
     6  H    0.155250
     7  H    0.155325
     8  H    0.156124
 Sum of Mulliken charges =   0.00000

 Dipole moment (field-independent basis, Debye):
    X=              0.0039    Y=             -0.0224    Z=              0.0237  Tot=              0.0329
 Quadrupole moment (field-independent basis, Debye-Ang):
   XX=            -15.2884   YY=            -14.6610   ZZ=            -14.7148
   XY=             -0.0702   XZ=              0.0523   YZ=             -0.0031

 Normal termination of Gaussian 16 at Fri Sep 22 16:33:12 2023.
