 Gaussian 16, Revision A.03,
 Gaussian 16:  ES64L-G16RevA.03 25-Dec-2016

 ----------------
 # 6-31g(d) wb97x
 ----------------

 ------------------------
 tmpdir/M2_conf_0_102.gjf
 ------------------------
 Symbolic Z-matrix:
 Charge =  0 Multiplicity = 1

                         Standard orientation:
 ---------------------------------------------------------------------
 Center     Atomic      Atomic             Coordinates (Angstroms)
 Number     Number       Type             X           Y           Z
 ---------------------------------------------------------------------
      1          6           0       -1.292701   -0.252548   -0.004219
      2          6           0       -0.006076    0.567463    0.011383
      3          6           0        1.283783   -0.248495   -0.008029
      4          1           0       -1.280391   -0.905420    0.973949
      5          1           0       -2.202931    0.372954   -0.096682
      6          1           0       -1.259609   -0.940546   -0.870058
      7          1           0       -0.005042    1.208382    0.900208
      8          1           0       -0.022000    1.232404   -0.861098
      9          1           0        2.161680    0.398420   -0.101437
     10          1           0        1.297885   -0.943909   -0.859304
     11          1           0        1.400371   -0.820807    0.919614
 ---------------------------------------------------------------------

 SCF Done:  E(RwB97X) =  -119.100311986     A.U. after   12 cycles

 The electronic state is 1-A.
 Alpha  occ. eigenvalues --  -10.26396 -10.26041 -10.25412  -0.90754  -0.80107
 Alpha  occ. eigenvalues --   -0.69636  -0.56645  -0.54428  -0.49723  -0.47974
 Alpha  occ. eigenvalues --   -0.44062  -0.42744  -0.41915
 Alpha virt. eigenvalues --    0.18353   0.23543   0.24396   0.24569   0.26747
 Alpha virt. eigenvalues --    0.28105   0.29246   0.29421   0.32178   0.36772
 Alpha virt. eigenvalues --    0.61427   0.62256   0.66049   0.66770   0.69745

 Mulliken charges:
               1
     1  C   -0.451609
     2  C   -0.275052
     3  C   -0.466922
     4  H    0.131655
     5  H    0.159123
     6  H    0.149827
     7  H    0.147430
     8  H    0.144564
     9  H    0.158155
    10  H    0.150524
    11  H    0.152304
 Sum of Mulliken charges =   0.00000

 Dipole moment (field-independent basis, Debye):
    X=              0.0647    Y=              0.1126    Z=             -0.0586  Tot=              0.1425
 Quadrupole moment (field-independent basis, Debye-Ang):
   XX=            -21.9102   YY=            -21.8331   ZZ=            -21.2170
   XY=             -0.2301   XZ=              0.2148   YZ=             -0.0085

 Normal termination of Gaussian 16 at Fri Sep 22 16:31:01 2023.
