 Gaussian 16, Revision A.03,
 Gaussian 16:  ES64L-G16RevA.03 25-Dec-2016

 ----------------
 # 6-31g(d) wb97x
 ----------------

 -----------------------
 tmpdir/M2_conf_1_17.gjf
 -----------------------
 Symbolic Z-matrix:
 Charge =  0 Multiplicity = 1

                         Standard orientation:
 ---------------------------------------------------------------------
 Center     Atomic      Atomic             Coordinates (Angstroms)
 Number     Number       Type             X           Y           Z
 ---------------------------------------------------------------------
      1          6           0       -0.768277    0.017520    0.001349
      2          6           0        0.758504    0.010528    0.004435
      3          1           0        1.179785   -0.580382    0.824691
      4          1           0       -1.119341   -1.041276   -0.394088
      5          1           0       -1.169628    0.838052   -0.625441
      6          1           0       -1.174608    0.103570    1.015489
      7          1           0        1.208008    0.996944    0.048455
      8          1           0        1.134424   -0.485199   -0.903814
 ---------------------------------------------------------------------

 SCF Done:  E(RwB97X) =  -79.7947199827     A.U. after   11 cycles

 The electronic state is 1-A.
 Alpha  occ. eigenvalues --  -10.26621 -10.25396  -0.87695  -0.73069  -0.54294
 Alpha  occ. eigenvalues --   -0.53590  -0.46734  -0.44284  -0.43131
 Alpha virt. eigenvalues --    0.19358   0.23708   0.24871   0.25277   0.29646
 Alpha virt. eigenvalues --    0.30832   0.34040   0.61834   0.64524   0.65912
 Alpha virt. eigenvalues --    0.74937   0.76674   0.78943   0.96226   0.99432

 Mulliken charges:
               1
     1  C   -0.458093
     2  C   -0.470692
     3  H    0.156913
     4  H    0.135104
     5  H    0.160084
     6  H    0.161260
     7  H    0.160266
     8  H    0.155159
 Sum of Mulliken charges =   0.00000

 Dipole moment (field-independent basis, Debye):
    X=              0.0630    Y=              0.0210    Z=              0.0348  Tot=              0.0750
 Quadrupole moment (field-independent basis, Debye-Ang):
   XX=            -15.3531   YY=            -14.6051   ZZ=            -14.8753
   XY=             -0.1003   XZ=             -0.0457   YZ=             -0.0771

 Normal termination of Gaussian 16 at Fri Sep 22 16:31:35 2023.
