 Gaussian 16, Revision A.03,
 Gaussian 16:  ES64L-G16RevA.03 25-Dec-2016

 ----------------
 # 6-31g(d) wb97x
 ----------------

 -----------------------
 tmpdir/M2_conf_0_59.gjf
 -----------------------
 Symbolic Z-matrix:
 Charge =  0 Multiplicity = 1

                         Standard orientation:
 ---------------------------------------------------------------------
 Center     Atomic      Atomic             Coordinates (Angstroms)
 Number     Number       Type             X           Y           Z
 ---------------------------------------------------------------------
      1          6           0        0.239708    0.398283   -0.023805
      2          6           0       -1.161787   -0.134905    0.018889
      3          1           0       -1.268468   -0.029872    1.114913
      4          8           0        1.191242   -0.285579   -0.007321
      5          1           0        0.409590    1.471900   -0.031670
      6          1           0       -1.210400   -1.190855   -0.356667
      7          1           0       -1.928185    0.453192   -0.638512
 ---------------------------------------------------------------------

 SCF Done:  E(RwB97X) =  -153.770314058     A.U. after   15 cycles

 The electronic state is 1-A.
 Alpha  occ. eigenvalues --  -19.21025 -10.35620 -10.28946  -1.19118  -0.87821
 Alpha  occ. eigenvalues --   -0.69661  -0.58930  -0.57145  -0.53938  -0.48994
 Alpha  occ. eigenvalues --   -0.47259  -0.35031
 Alpha virt. eigenvalues --    0.09323   0.19182   0.21825   0.24597   0.25389
 Alpha virt. eigenvalues --    0.35957   0.38101   0.63714   0.65059   0.69326
 Alpha virt. eigenvalues --    0.71184   0.79636   0.84983   0.87223   0.95854

 Mulliken charges:
               1
     1  C    0.223331
     2  C   -0.539407
     3  H    0.191639
     4  O   -0.356244
     5  H    0.117704
     6  H    0.196401
     7  H    0.166576
 Sum of Mulliken charges =  -0.00000

 Dipole moment (field-independent basis, Debye):
    X=             -2.2005    Y=              1.0882    Z=              0.0390  Tot=              2.4551
 Quadrupole moment (field-independent basis, Debye-Ang):
   XX=            -20.8879   YY=            -17.8634   ZZ=            -17.3010
   XY=              1.0926   XZ=              0.3125   YZ=              0.1461

 Normal termination of Gaussian 16 at Fri Sep 22 16:30:50 2023.
