 Gaussian 16, Revision A.03,
 Gaussian 16:  ES64L-G16RevA.03 25-Dec-2016

 ----------------
 # 6-31g(d) wb97x
 ----------------

 ------------------------
 tmpdir/M2_conf_1_100.gjf
 ------------------------
 Symbolic Z-matrix:
 Charge =  0 Multiplicity = 1

                         Standard orientation:
 ---------------------------------------------------------------------
 Center     Atomic      Atomic             Coordinates (Angstroms)
 Number     Number       Type             X           Y           Z
 ---------------------------------------------------------------------
      1          6           0       -0.004277   -0.008891   -0.002656
      2          1           0        0.031704    0.798185   -0.741965
      3          1           0        0.825586   -0.710731   -0.199309
      4          1           0       -1.001839   -0.483804   -0.021396
      5          1           0        0.170208    0.449697    0.978607
 ---------------------------------------------------------------------

 SCF Done:  E(RwB97X) =  -40.4988302766     A.U. after   11 cycles

 The electronic state is 1-A.
 Alpha  occ. eigenvalues --  -10.25201  -0.81571  -0.49986  -0.49132  -0.48952
 Alpha virt. eigenvalues --    0.21441   0.27130   0.27342   0.27494   0.63883
 Alpha virt. eigenvalues --    0.64042   0.64921   1.00710   1.01247   1.01701
 Alpha virt. eigenvalues --    1.06354   1.20671   1.75837   1.76056   2.32543

 Mulliken charges:
               1
     1  C   -0.664846
     2  H    0.166236
     3  H    0.166101
     4  H    0.167180
     5  H    0.165329
 Sum of Mulliken charges =   0.00000

 Dipole moment (field-independent basis, Debye):
    X=              0.0168    Y=              0.0432    Z=              0.0105  Tot=              0.0476
 Quadrupole moment (field-independent basis, Debye-Ang):
   XX=             -8.1176   YY=             -8.3216   ZZ=             -8.3735
   XY=              0.0041   XZ=             -0.0001   YZ=             -0.0036

 Normal termination of Gaussian 16 at Fri Sep 22 16:32:07 2023.
