 Gaussian 16, Revision A.03,
 Gaussian 16:  ES64L-G16RevA.03 25-Dec-2016

 ----------------
 # 6-31g(d) wb97x
 ----------------

 -----------------------
 tmpdir/M2_conf_0_69.gjf
 -----------------------
 Symbolic Z-matrix:
 Charge =  0 Multiplicity = 1

                         Standard orientation:
 ---------------------------------------------------------------------
 Center     Atomic      Atomic             Coordinates (Angstroms)
 Number     Number       Type             X           Y           Z
 ---------------------------------------------------------------------
      1          6           0        0.011308   -0.000021   -0.008866
      2          1           0        0.288391    0.140432    1.056675
      3          1           0       -0.985065   -0.624039   -0.041397
      4          1           0        0.855563   -0.504056   -0.520236
      5          1           0       -0.226734    0.987791   -0.441848
 ---------------------------------------------------------------------

 SCF Done:  E(RwB97X) =  -40.4945748379     A.U. after   11 cycles

 The electronic state is 1-A.
 Alpha  occ. eigenvalues --  -10.26253  -0.80908  -0.50114  -0.48862  -0.47841
 Alpha virt. eigenvalues --    0.20642   0.25459   0.26830   0.27424   0.64112
 Alpha virt. eigenvalues --    0.64562   0.66394   0.96601   1.00101   1.01404
 Alpha virt. eigenvalues --    1.03607   1.19817   1.76319   1.76583   2.27043

 Mulliken charges:
               1
     1  C   -0.652903
     2  H    0.165351
     3  H    0.148772
     4  H    0.170076
     5  H    0.168704
 Sum of Mulliken charges =   0.00000

 Dipole moment (field-independent basis, Debye):
    X=              0.0230    Y=              0.0457    Z=              0.0315  Tot=              0.0601
 Quadrupole moment (field-independent basis, Debye-Ang):
   XX=             -8.1771   YY=             -8.3897   ZZ=             -8.4379
   XY=             -0.0990   XZ=             -0.0179   YZ=             -0.0044

 Normal termination of Gaussian 16 at Fri Sep 22 16:30:37 2023.
