 Gaussian 16, Revision A.03,
 Gaussian 16:  ES64L-G16RevA.03 25-Dec-2016

 ----------------
 # 6-31g(d) wb97x
 ----------------

 -----------------------
 tmpdir/M2_conf_0_85.gjf
 -----------------------
 Symbolic Z-matrix:
 Charge =  0 Multiplicity = 1

                         Standard orientation:
 ---------------------------------------------------------------------
 Center     Atomic      Atomic             Coordinates (Angstroms)
 Number     Number       Type             X           Y           Z
 ---------------------------------------------------------------------
      1          6           0        0.536727   -0.008716   -0.002574
      2          8           0       -0.678354   -0.002699    0.000615
      3          1           0        1.140658   -0.872862    0.005540
      4          1           0        1.065816    0.946748    0.004979
 ---------------------------------------------------------------------

 SCF Done:  E(RwB97X) =  -114.463932150     A.U. after   13 cycles

 The electronic state is 1-A.
 Alpha  occ. eigenvalues --  -19.23323 -10.36462  -1.17832  -0.76773  -0.61376
 Alpha  occ. eigenvalues --   -0.55524  -0.50074  -0.36902
 Alpha virt. eigenvalues --    0.05786   0.21267   0.28981   0.31851   0.61916
 Alpha virt. eigenvalues --    0.72050   0.73527   0.79963   0.95594   0.96201
 Alpha virt. eigenvalues --    1.03116   1.07746   1.17514   1.48758   1.61117

 Mulliken charges:
               1
     1  C    0.058828
     2  O   -0.339372
     3  H    0.148183
     4  H    0.132361
 Sum of Mulliken charges =  -0.00000

 Dipole moment (field-independent basis, Debye):
    X=              2.3880    Y=             -0.0604    Z=              0.0005  Tot=              2.3887
 Quadrupole moment (field-independent basis, Debye-Ang):
   XX=            -11.7658   YY=            -11.4008   ZZ=            -11.3678
   XY=             -0.1361   XZ=              0.0047   YZ=              0.0006

 Normal termination of Gaussian 16 at Fri Sep 22 16:30:50 2023.
