 Gaussian 16, Revision A.03,
 Gaussian 16:  ES64L-G16RevA.03 25-Dec-2016

 ----------------
 # 6-31g(d) wb97x
 ----------------

 -----------------------
 tmpdir/M2_conf_1_98.gjf
 -----------------------
 Symbolic Z-matrix:
 Charge =  0 Multiplicity = 1

                         Standard orientation:
 ---------------------------------------------------------------------
 Center     Atomic      Atomic             Coordinates (Angstroms)
 Number     Number       Type             X           Y           Z
 ---------------------------------------------------------------------
      1          1           0       -0.099798   -0.385354    1.008658
      2          6           0       -0.001398   -0.003468   -0.010827
      3          1           0       -0.947456   -0.181599   -0.527347
      4          1           0        0.863215   -0.482479   -0.475485
      5          1           0        0.192424    1.070241    0.059134
 ---------------------------------------------------------------------

 SCF Done:  E(RwB97X) =  -40.4989545795     A.U. after   11 cycles

 The electronic state is 1-A.
 Alpha  occ. eigenvalues --  -10.24865  -0.81798  -0.50337  -0.49214  -0.48930
 Alpha virt. eigenvalues --    0.21653   0.27269   0.27481   0.27937   0.63685
 Alpha virt. eigenvalues --    0.63899   0.64604   1.01153   1.01608   1.02804
 Alpha virt. eigenvalues --    1.07282   1.20860   1.75628   1.76055   2.33930

 Mulliken charges:
               1
     1  H    0.164877
     2  C   -0.668266
     3  H    0.168949
     4  H    0.168559
     5  H    0.165881
 Sum of Mulliken charges =  -0.00000

 Dipole moment (field-independent basis, Debye):
    X=              0.0049    Y=              0.0115    Z=              0.0408  Tot=              0.0427
 Quadrupole moment (field-independent basis, Debye-Ang):
   XX=             -8.0855   YY=             -8.3072   ZZ=             -8.3588
   XY=             -0.0039   XZ=              0.0037   YZ=              0.0100

 Normal termination of Gaussian 16 at Fri Sep 22 16:32:07 2023.
