 Gaussian 16, Revision A.03,
 Gaussian 16:  ES64L-G16RevA.03 25-Dec-2016

 ----------------
 # 6-31g(d) wb97x
 ----------------

 -----------------------
 tmpdir/M2_conf_2_85.gjf
 -----------------------
 Symbolic Z-matrix:
 Charge =  0 Multiplicity = 1

                         Standard orientation:
 ---------------------------------------------------------------------
 Center     Atomic      Atomic             Coordinates (Angstroms)
 Number     Number       Type             X           Y           Z
 ---------------------------------------------------------------------
      1          6           0        0.545827   -0.008752   -0.002573
      2          8           0       -0.687454   -0.002665    0.000609
      3          1           0        1.149772   -0.872889    0.005566
      4          1           0        1.074900    0.946720    0.005003
 ---------------------------------------------------------------------

 SCF Done:  E(RwB97X) =  -114.462923150     A.U. after   14 cycles

 The electronic state is 1-A.
 Alpha  occ. eigenvalues --  -19.23425 -10.36721  -1.16876  -0.77042  -0.61125
 Alpha  occ. eigenvalues --   -0.55257  -0.49473  -0.37005
 Alpha virt. eigenvalues --    0.05267   0.21169   0.28750   0.31556   0.62037
 Alpha virt. eigenvalues --    0.71436   0.73313   0.78383   0.95544   0.96424
 Alpha virt. eigenvalues --    1.03056   1.07703   1.17405   1.48169   1.60560

 Mulliken charges:
               1
     1  C    0.056648
     2  O   -0.347470
     3  H    0.153038
     4  H    0.137784
 Sum of Mulliken charges =   0.00000

 Dipole moment (field-independent basis, Debye):
    X=              2.4597    Y=             -0.0561    Z=              0.0008  Tot=              2.4603
 Quadrupole moment (field-independent basis, Debye-Ang):
   XX=            -11.7175   YY=            -11.3929   ZZ=            -11.4122
   XY=             -0.1323   XZ=              0.0048   YZ=              0.0006

 Normal termination of Gaussian 16 at Fri Sep 22 16:33:02 2023.
