 Gaussian 16, Revision A.03,
 Gaussian 16:  ES64L-G16RevA.03 25-Dec-2016

 ----------------
 # 6-31g(d) wb97x
 ----------------

 -----------------------
 tmpdir/M2_conf_1_26.gjf
 -----------------------
 Symbolic Z-matrix:
 Charge =  1 Multiplicity = 1

                         Standard orientation:
 ---------------------------------------------------------------------
 Center     Atomic      Atomic             Coordinates (Angstroms)
 Number     Number       Type             X           Y           Z
 ---------------------------------------------------------------------
      1          7           0       -1.202856   -0.255589    0.004253
      2          6           0        0.029642    0.608882   -0.023559
      3          6           0        1.292435   -0.254675    0.014316
      4          1           0       -1.107403   -1.021806   -0.744846
      5          1           0       -1.296928   -0.692441    0.924374
      6          1           0       -2.037251    0.316115   -0.142153
      7          1           0       -0.032241    1.289526    0.845107
      8          1           0       -0.015679    1.157278   -0.971293
      9          1           0        1.469141   -0.997646   -0.853502
     10          1           0        2.188756    0.419802    0.002750
     11          1           0        1.319139   -0.806943    0.965253
 ---------------------------------------------------------------------

 SCF Done:  E(RwB97X) =  -135.490110833     A.U. after   12 cycles

 The electronic state is 1-A.
 Alpha  occ. eigenvalues --  -14.75391 -10.53071 -10.45768  -1.34225  -1.08774
 Alpha  occ. eigenvalues --   -0.95785  -0.91004  -0.90136  -0.79773  -0.74895
 Alpha  occ. eigenvalues --   -0.68422  -0.66112  -0.64643
 Alpha virt. eigenvalues --   -0.07781  -0.01231  -0.00135   0.02023   0.05471
 Alpha virt. eigenvalues --    0.05669   0.07999   0.09685   0.10688   0.13884
 Alpha virt. eigenvalues --    0.40777   0.43241   0.44143   0.45854   0.52311

 Mulliken charges:
               1
     1  N   -0.741206
     2  C   -0.248282
     3  C   -0.527093
     4  H    0.448005
     5  H    0.443399
     6  H    0.451168
     7  H    0.258040
     8  H    0.254591
     9  H    0.208114
    10  H    0.248975
    11  H    0.204288
 Sum of Mulliken charges =   1.00000

 Dipole moment (field-independent basis, Debye):
    X=             -3.8944    Y=             -0.7104    Z=              0.0070  Tot=              3.9586
 Quadrupole moment (field-independent basis, Debye-Ang):
   XX=             -9.0097   YY=            -15.9319   ZZ=            -16.2756
   XY=              1.2972   XZ=             -0.2986   YZ=              0.3355

 Normal termination of Gaussian 16 at Fri Sep 22 16:31:42 2023.
