 Gaussian 16, Revision A.03,
 Gaussian 16:  ES64L-G16RevA.03 25-Dec-2016

 ----------------
 # 6-31g(d) wb97x
 ----------------

 ------------------------
 tmpdir/M2_conf_2_117.gjf
 ------------------------
 Symbolic Z-matrix:
 Charge =  0 Multiplicity = 1

                         Standard orientation:
 ---------------------------------------------------------------------
 Center     Atomic      Atomic             Coordinates (Angstroms)
 Number     Number       Type             X           Y           Z
 ---------------------------------------------------------------------
      1          6           0        0.007379   -0.001532   -0.002168
      2          1           0       -0.298727    0.094989    1.043795
      3          1           0        1.106962   -0.088681   -0.077525
      4          1           0       -0.498765   -0.880081   -0.417264
      5          1           0       -0.353743    0.882967   -0.536000
 ---------------------------------------------------------------------

 SCF Done:  E(RwB97X) =  -40.4991327658     A.U. after   11 cycles

 The electronic state is 1-A.
 Alpha  occ. eigenvalues --  -10.25068  -0.81655  -0.49850  -0.49242  -0.49146
 Alpha virt. eigenvalues --    0.21530   0.27373   0.27436   0.27461   0.63881
 Alpha virt. eigenvalues --    0.63953   0.64715   1.01303   1.01513   1.01567
 Alpha virt. eigenvalues --    1.06737   1.20744   1.75843   1.75899   2.33249

 Mulliken charges:
               1
     1  C   -0.665889
     2  H    0.166202
     3  H    0.166599
     4  H    0.166564
     5  H    0.166525
 Sum of Mulliken charges =  -0.00000

 Dipole moment (field-independent basis, Debye):
    X=             -0.0374    Y=              0.0078    Z=              0.0100  Tot=              0.0395
 Quadrupole moment (field-independent basis, Debye-Ang):
   XX=             -8.1398   YY=             -8.3118   ZZ=             -8.3356
   XY=              0.0001   XZ=              0.0007   YZ=             -0.0003

 Normal termination of Gaussian 16 at Fri Sep 22 16:33:11 2023.
