 Gaussian 16, Revision A.03,
 Gaussian 16:  ES64L-G16RevA.03 25-Dec-2016

 ----------------
 # 6-31g(d) wb97x
 ----------------

 -----------------------
 tmpdir/M2_conf_0_45.gjf
 -----------------------
 Symbolic Z-matrix:
 Charge =  0 Multiplicity = 1

                         Standard orientation:
 ---------------------------------------------------------------------
 Center     Atomic      Atomic             Coordinates (Angstroms)
 Number     Number       Type             X           Y           Z
 ---------------------------------------------------------------------
      1          7           0        0.732786   -0.033616   -0.038233
      2          6           0       -0.736987   -0.019211    0.011944
      3          1           0       -0.843036    0.079206    1.102384
      4          1           0        1.374982   -0.714466    0.040035
      5          1           0        1.076395    0.919742    0.015229
      6          1           0       -1.282420   -0.863505   -0.453761
      7          1           0       -1.033497    0.929605   -0.507920
 ---------------------------------------------------------------------

 SCF Done:  E(RwB97X) =  -95.7921088516     A.U. after   13 cycles

 The electronic state is 1-A.
 Alpha  occ. eigenvalues --  -14.35783 -10.28648  -0.98111  -0.77775  -0.60534
 Alpha  occ. eigenvalues --   -0.53324  -0.50963  -0.47015  -0.29282
 Alpha virt. eigenvalues --    0.19243   0.24011   0.24972   0.27424   0.31172
 Alpha virt. eigenvalues --    0.34395   0.64687   0.67847   0.70721   0.85962
 Alpha virt. eigenvalues --    0.87156   0.92973   0.98630   1.01974   1.06464

 Mulliken charges:
               1
     1  N   -0.807953
     2  C   -0.303874
     3  H    0.159711
     4  H    0.328227
     5  H    0.309126
     6  H    0.163333
     7  H    0.151431
 Sum of Mulliken charges =   0.00000

 Dipole moment (field-independent basis, Debye):
    X=              0.1229    Y=              0.1946    Z=              0.2585  Tot=              0.3461
 Quadrupole moment (field-independent basis, Debye-Ang):
   XX=            -12.5706   YY=            -12.0599   ZZ=            -15.3733
   XY=              0.0358   XZ=              0.8216   YZ=             -0.0035

 Normal termination of Gaussian 16 at Fri Sep 22 16:30:28 2023.
