 Gaussian 16, Revision A.03,
 Gaussian 16:  ES64L-G16RevA.03 25-Dec-2016

 ----------------
 # 6-31g(d) wb97x
 ----------------

 ------------------------
 tmpdir/M2_conf_1_122.gjf
 ------------------------
 Symbolic Z-matrix:
 Charge =  0 Multiplicity = 1

                         Standard orientation:
 ---------------------------------------------------------------------
 Center     Atomic      Atomic             Coordinates (Angstroms)
 Number     Number       Type             X           Y           Z
 ---------------------------------------------------------------------
      1          6           0        0.761872   -0.005015   -0.002375
      2          6           0       -0.765526   -0.005180    0.000264
      3          1           0       -1.154248   -0.472714   -0.909686
      4          1           0        1.218990   -0.998482   -0.182380
      5          1           0        1.131600    0.697426   -0.758231
      6          1           0        1.144175    0.361617    0.959757
      7          1           0       -1.148809    1.018508    0.039632
      8          1           0       -1.169786   -0.545185    0.863576
 ---------------------------------------------------------------------

 SCF Done:  E(RwB97X) =  -79.8007503429     A.U. after   12 cycles

 The electronic state is 1-A.
 Alpha  occ. eigenvalues --  -10.25624 -10.25476  -0.87873  -0.73404  -0.54178
 Alpha  occ. eigenvalues --   -0.54024  -0.46724  -0.44189  -0.43922
 Alpha virt. eigenvalues --    0.19989   0.25318   0.25730   0.25949   0.29066
 Alpha virt. eigenvalues --    0.29479   0.34010   0.61778   0.64862   0.64965
 Alpha virt. eigenvalues --    0.74059   0.75469   0.78887   0.99898   1.00000

 Mulliken charges:
               1
     1  C   -0.469111
     2  C   -0.467892
     3  H    0.156933
     4  H    0.155445
     5  H    0.155997
     6  H    0.154744
     7  H    0.157151
     8  H    0.156733
 Sum of Mulliken charges =   0.00000

 Dipole moment (field-independent basis, Debye):
    X=             -0.0057    Y=              0.0360    Z=              0.0048  Tot=              0.0367
 Quadrupole moment (field-independent basis, Debye-Ang):
   XX=            -15.2521   YY=            -14.6475   ZZ=            -14.7453
   XY=             -0.0511   XZ=             -0.0050   YZ=             -0.0048

 Normal termination of Gaussian 16 at Fri Sep 22 16:32:21 2023.
