 Gaussian 16, Revision A.03,
 Gaussian 16:  ES64L-G16RevA.03 25-Dec-2016

 ----------------
 # 6-31g(d) wb97x
 ----------------

 -----------------------
 tmpdir/M2_conf_1_37.gjf
 -----------------------
 Symbolic Z-matrix:
 Charge =  1 Multiplicity = 1

                         Standard orientation:
 ---------------------------------------------------------------------
 Center     Atomic      Atomic             Coordinates (Angstroms)
 Number     Number       Type             X           Y           Z
 ---------------------------------------------------------------------
      1          1           0       -0.382100   -0.355876    0.876469
      2          7           0       -0.001429   -0.000059   -0.003763
      3          1           0       -0.626795   -0.336936   -0.738549
      4          1           0        0.014389    1.053934    0.016131
      5          1           0        1.004510   -0.360709   -0.127714
 ---------------------------------------------------------------------

 SCF Done:  E(RwB97X) =  -56.8733159956     A.U. after   10 cycles

 The electronic state is 1-A.
 Alpha  occ. eigenvalues --  -14.79086  -1.36618  -0.93567  -0.92782  -0.91944
 Alpha virt. eigenvalues --   -0.10747  -0.03491  -0.01921  -0.01529   0.44269
 Alpha virt. eigenvalues --    0.46081   0.47145   0.66747   0.68207   0.69812
 Alpha virt. eigenvalues --    0.71826   1.09561   1.36214   1.36722   2.04275

 Mulliken charges:
               1
     1  H    0.467220
     2  N   -0.886385
     3  H    0.469915
     4  H    0.473232
     5  H    0.476018
 Sum of Mulliken charges =   1.00000

 Dipole moment (field-independent basis, Debye):
    X=              0.0422    Y=              0.0068    Z=              0.0414  Tot=              0.0595
 Quadrupole moment (field-independent basis, Debye-Ang):
   XX=             -4.0750   YY=             -4.2479   ZZ=             -4.6222
   XY=              0.0093   XZ=              0.0079   YZ=              0.0020

 Normal termination of Gaussian 16 at Fri Sep 22 16:31:33 2023.
