 Gaussian 16, Revision A.03,
 Gaussian 16:  ES64L-G16RevA.03 25-Dec-2016

 ----------------
 # 6-31g(d) wb97x
 ----------------

 -----------------------
 tmpdir/M2_conf_1_57.gjf
 -----------------------
 Symbolic Z-matrix:
 Charge =  0 Multiplicity = 1

                         Standard orientation:
 ---------------------------------------------------------------------
 Center     Atomic      Atomic             Coordinates (Angstroms)
 Number     Number       Type             X           Y           Z
 ---------------------------------------------------------------------
      1          6           0        0.777781   -0.009357   -0.011017
      2          6           0       -0.771680   -0.018528    0.007557
      3          1           0       -1.112894    0.082693   -1.039819
      4          1           0        1.132245   -0.956082   -0.464100
      5          1           0        1.062351    0.982565   -0.532026
      6          1           0        1.110634    0.031943    1.036602
      7          1           0       -1.157961   -0.933188    0.447297
      8          1           0       -1.070979    0.959377    0.572809
 ---------------------------------------------------------------------

 SCF Done:  E(RwB97X) =  -79.7897229382     A.U. after   12 cycles

 The electronic state is 1-A.
 Alpha  occ. eigenvalues --  -10.26407 -10.26295  -0.87521  -0.72050  -0.55077
 Alpha  occ. eigenvalues --   -0.53759  -0.44865  -0.44546  -0.43263
 Alpha virt. eigenvalues --    0.18471   0.24860   0.25775   0.26011   0.27144
 Alpha virt. eigenvalues --    0.28622   0.32034   0.61796   0.65904   0.68213
 Alpha virt. eigenvalues --    0.72178   0.74673   0.77334   0.95199   0.98481

 Mulliken charges:
               1
     1  C   -0.456347
     2  C   -0.458016
     3  H    0.155007
     4  H    0.157344
     5  H    0.145341
     6  H    0.156819
     7  H    0.162381
     8  H    0.137471
 Sum of Mulliken charges =  -0.00000

 Dipole moment (field-independent basis, Debye):
    X=             -0.0075    Y=             -0.0559    Z=              0.0129  Tot=              0.0579
 Quadrupole moment (field-independent basis, Debye-Ang):
   XX=            -16.1481   YY=            -14.2986   ZZ=            -14.8802
   XY=              0.0515   XZ=              0.1367   YZ=             -0.0484

 Normal termination of Gaussian 16 at Fri Sep 22 16:31:41 2023.
