 Gaussian 16, Revision A.03,
 Gaussian 16:  ES64L-G16RevA.03 25-Dec-2016

 ----------------
 # 6-31g(d) wb97x
 ----------------

 ------------------------
 tmpdir/M2_conf_2_114.gjf
 ------------------------
 Symbolic Z-matrix:
 Charge =  0 Multiplicity = 1

                         Standard orientation:
 ---------------------------------------------------------------------
 Center     Atomic      Atomic             Coordinates (Angstroms)
 Number     Number       Type             X           Y           Z
 ---------------------------------------------------------------------
      1          1           0        0.462612   -0.291691    0.944757
      2          6           0       -0.007242   -0.000293    0.000164
      3          1           0        0.277625    1.039324   -0.215486
      4          1           0       -1.106517   -0.100243    0.051452
      5          1           0        0.409733   -0.645630   -0.781709
 ---------------------------------------------------------------------

 SCF Done:  E(RwB97X) =  -40.4991577833     A.U. after   11 cycles

 The electronic state is 1-A.
 Alpha  occ. eigenvalues --  -10.25127  -0.81612  -0.49831  -0.49268  -0.49073
 Alpha virt. eigenvalues --    0.21500   0.27293   0.27361   0.27489   0.63869
 Alpha virt. eigenvalues --    0.64122   0.64672   1.01232   1.01353   1.01549
 Alpha virt. eigenvalues --    1.06474   1.20677   1.75838   1.75969   2.33367

 Mulliken charges:
               1
     1  H    0.166610
     2  C   -0.665242
     3  H    0.165634
     4  H    0.166754
     5  H    0.166244
 Sum of Mulliken charges =  -0.00000

 Dipole moment (field-independent basis, Debye):
    X=              0.0350    Y=             -0.0020    Z=              0.0014  Tot=              0.0351
 Quadrupole moment (field-independent basis, Debye-Ang):
   XX=             -8.1533   YY=             -8.2964   ZZ=             -8.3481
   XY=             -0.0020   XZ=              0.0016   YZ=              0.0003

 Normal termination of Gaussian 16 at Fri Sep 22 16:33:10 2023.
