 Gaussian 16, Revision A.03,
 Gaussian 16:  ES64L-G16RevA.03 25-Dec-2016

 ----------------
 # 6-31g(d) wb97x
 ----------------

 ----------------------
 tmpdir/M2_conf_1_0.gjf
 ----------------------
 Symbolic Z-matrix:
 Charge =  0 Multiplicity = 1

                         Standard orientation:
 ---------------------------------------------------------------------
 Center     Atomic      Atomic             Coordinates (Angstroms)
 Number     Number       Type             X           Y           Z
 ---------------------------------------------------------------------
      1          6           0       -0.557285   -0.025586   -0.000498
      2          8           0        0.697396   -0.008353    0.000118
      3          1           0       -1.233138   -0.788067    0.001186
      4          1           0       -1.002319    1.008407    0.000859
 ---------------------------------------------------------------------

 SCF Done:  E(RwB97X) =  -114.452210374     A.U. after   13 cycles

 The electronic state is 1-A.
 Alpha  occ. eigenvalues --  -19.23607 -10.37070  -1.15852  -0.77828  -0.60703
 Alpha  occ. eigenvalues --   -0.54960  -0.48848  -0.36841
 Alpha virt. eigenvalues --    0.04613   0.21012   0.27111   0.32366   0.62137
 Alpha virt. eigenvalues --    0.69165   0.73608   0.77334   0.94609   0.97057
 Alpha virt. eigenvalues --    1.05312   1.07596   1.16795   1.48247   1.59303

 Mulliken charges:
               1
     1  C    0.056096
     2  O   -0.358024
     3  H    0.172457
     4  H    0.129470
 Sum of Mulliken charges =  -0.00000

 Dipole moment (field-independent basis, Debye):
    X=             -2.5357    Y=             -0.1473    Z=              0.0003  Tot=              2.5400
 Quadrupole moment (field-independent basis, Debye-Ang):
   XX=            -11.6178   YY=            -11.4533   ZZ=            -11.4614
   XY=              0.3755   XZ=             -0.0010   YZ=              0.0004

 Normal termination of Gaussian 16 at Fri Sep 22 16:31:20 2023.
