 Gaussian 16, Revision A.03,
 Gaussian 16:  ES64L-G16RevA.03 25-Dec-2016

 ----------------
 # 6-31g(d) wb97x
 ----------------

 -----------------------
 tmpdir/M2_conf_0_60.gjf
 -----------------------
 Symbolic Z-matrix:
 Charge =  0 Multiplicity = 1

                         Standard orientation:
 ---------------------------------------------------------------------
 Center     Atomic      Atomic             Coordinates (Angstroms)
 Number     Number       Type             X           Y           Z
 ---------------------------------------------------------------------
      1          8           0        0.729636   -0.135999    0.011211
      2          6           0       -0.683550    0.031692    0.010819
      3          1           0       -0.790555    0.995444   -0.521548
      4          1           0        1.269723    0.686300    0.013227
      5          1           0       -1.071736   -0.794909   -0.640696
      6          1           0       -1.143222    0.011001    0.994414
 ---------------------------------------------------------------------

 SCF Done:  E(RwB97X) =  -115.670491538     A.U. after   13 cycles

 The electronic state is 1-A.
 Alpha  occ. eigenvalues --  -19.19772 -10.30997  -1.12265  -0.79981  -0.60377
 Alpha  occ. eigenvalues --   -0.55260  -0.52840  -0.40968  -0.36350
 Alpha virt. eigenvalues --    0.16755   0.22785   0.26434   0.28377   0.30713
 Alpha virt. eigenvalues --    0.64598   0.66770   0.69188   0.91098   0.96333
 Alpha virt. eigenvalues --    0.97844   1.01123   1.05468   1.09858   1.13319

 Mulliken charges:
               1
     1  O   -0.651992
     2  C   -0.206421
     3  H    0.136495
     4  H    0.402279
     5  H    0.164243
     6  H    0.155397
 Sum of Mulliken charges =   0.00000

 Dipole moment (field-independent basis, Debye):
    X=             -0.6022    Y=              1.6109    Z=             -0.0439  Tot=              1.7203
 Quadrupole moment (field-independent basis, Debye-Ang):
   XX=            -12.0236   YY=            -12.3036   ZZ=            -13.3695
   XY=              2.4528   XZ=             -0.1029   YZ=              0.0490

 Normal termination of Gaussian 16 at Fri Sep 22 16:30:35 2023.
