 Gaussian 16, Revision A.03,
 Gaussian 16:  ES64L-G16RevA.03 25-Dec-2016

 ----------------
 # 6-31g(d) wb97x
 ----------------

 -----------------------
 tmpdir/M2_conf_0_74.gjf
 -----------------------
 Symbolic Z-matrix:
 Charge =  0 Multiplicity = 1

                         Standard orientation:
 ---------------------------------------------------------------------
 Center     Atomic      Atomic             Coordinates (Angstroms)
 Number     Number       Type             X           Y           Z
 ---------------------------------------------------------------------
      1          6           0        0.767893   -0.018762   -0.003241
      2          6           0       -0.762926    0.004343   -0.007891
      3          1           0       -1.042314    1.002773    0.378376
      4          1           0        1.210785   -0.972639   -0.344292
      5          1           0        1.122892    0.214883    1.007115
      6          1           0        1.109692    0.808564   -0.639606
      7          1           0       -1.237851   -0.823327    0.679578
      8          1           0       -1.193005   -0.143741   -1.014382
 ---------------------------------------------------------------------

 SCF Done:  E(RwB97X) =  -79.7958084624     A.U. after   12 cycles

 The electronic state is 1-A.
 Alpha  occ. eigenvalues --  -10.26573 -10.25744  -0.87727  -0.72720  -0.54605
 Alpha  occ. eigenvalues --   -0.53491  -0.46267  -0.44384  -0.43299
 Alpha virt. eigenvalues --    0.19392   0.24433   0.25670   0.25997   0.28050
 Alpha virt. eigenvalues --    0.28695   0.33492   0.61675   0.65078   0.66526
 Alpha virt. eigenvalues --    0.74323   0.74767   0.78339   0.97063   0.99263

 Mulliken charges:
               1
     1  C   -0.463682
     2  C   -0.456330
     3  H    0.155046
     4  H    0.157310
     5  H    0.157372
     6  H    0.155488
     7  H    0.136733
     8  H    0.158062
 Sum of Mulliken charges =  -0.00000

 Dipole moment (field-independent basis, Debye):
    X=              0.0474    Y=              0.0871    Z=             -0.0203  Tot=              0.1012
 Quadrupole moment (field-independent basis, Debye-Ang):
   XX=            -15.5219   YY=            -14.6265   ZZ=            -14.8228
   XY=              0.0492   XZ=              0.0911   YZ=              0.0894

 Normal termination of Gaussian 16 at Fri Sep 22 16:30:55 2023.
