 Gaussian 16, Revision A.03,
 Gaussian 16:  ES64L-G16RevA.03 25-Dec-2016

 ----------------
 # 6-31g(d) wb97x
 ----------------

 -----------------------
 tmpdir/M2_conf_0_71.gjf
 -----------------------
 Symbolic Z-matrix:
 Charge =  0 Multiplicity = 1

                         Standard orientation:
 ---------------------------------------------------------------------
 Center     Atomic      Atomic             Coordinates (Angstroms)
 Number     Number       Type             X           Y           Z
 ---------------------------------------------------------------------
      1          8           0        1.166490   -0.377491   -0.036645
      2          6           0        0.076131    0.550891   -0.005107
      3          6           0       -1.231030   -0.235956    0.011406
      4          1           0        2.050184   -0.020565    0.180157
      5          1           0        0.104024    1.281203   -0.838292
      6          1           0        0.138416    1.112724    0.945991
      7          1           0       -1.345623   -0.888632    0.895664
      8          1           0       -1.292771   -0.839770   -0.900943
      9          1           0       -2.056759    0.485360   -0.027211
 ---------------------------------------------------------------------

 SCF Done:  E(RwB97X) =  -154.985571619     A.U. after   13 cycles

 The electronic state is 1-A.
 Alpha  occ. eigenvalues --  -19.20005 -10.31455 -10.25690  -1.12306  -0.87190
 Alpha  occ. eigenvalues --   -0.72842  -0.61943  -0.57010  -0.49850  -0.48201
 Alpha  occ. eigenvalues --   -0.46642  -0.41388  -0.36286
 Alpha virt. eigenvalues --    0.17741   0.21467   0.24974   0.26179   0.27408
 Alpha virt. eigenvalues --    0.29984   0.31680   0.33467   0.63166   0.66511
 Alpha virt. eigenvalues --    0.67142   0.68965   0.77459   0.80678   0.92304

 Mulliken charges:
               1
     1  O   -0.646318
     2  C   -0.034578
     3  C   -0.476031
     4  H    0.402479
     5  H    0.134492
     6  H    0.127537
     7  H    0.170278
     8  H    0.170809
     9  H    0.151331
 Sum of Mulliken charges =  -0.00000

 Dipole moment (field-independent basis, Debye):
    X=              0.2816    Y=              1.4483    Z=              0.4062  Tot=              1.5304
 Quadrupole moment (field-independent basis, Debye-Ang):
   XX=            -16.2340   YY=            -20.4146   ZZ=            -19.7964
   XY=              1.5482   XZ=              0.9280   YZ=             -0.1890

 Normal termination of Gaussian 16 at Fri Sep 22 16:30:53 2023.
