 Gaussian 16, Revision A.03,
 Gaussian 16:  ES64L-G16RevA.03 25-Dec-2016

 ----------------
 # 6-31g(d) wb97x
 ----------------

 -----------------------
 tmpdir/M2_conf_2_70.gjf
 -----------------------
 Symbolic Z-matrix:
 Charge =  0 Multiplicity = 1

                         Standard orientation:
 ---------------------------------------------------------------------
 Center     Atomic      Atomic             Coordinates (Angstroms)
 Number     Number       Type             X           Y           Z
 ---------------------------------------------------------------------
      1          8           0       -1.242359   -0.254835   -0.118145
      2          6           0       -0.069964    0.554030    0.033504
      3          6           0        1.230198   -0.252242   -0.025397
      4          1           0       -1.464947   -0.845264    0.628289
      5          1           0       -0.127729    1.333664   -0.746732
      6          1           0       -0.123754    1.044286    1.023892
      7          1           0        1.379761   -0.808385   -0.969150
      8          1           0        1.255517   -0.946499    0.822421
      9          1           0        2.058618    0.450150    0.137797
 ---------------------------------------------------------------------

 SCF Done:  E(RwB97X) =  -154.985532911     A.U. after   13 cycles

 The electronic state is 1-A.
 Alpha  occ. eigenvalues --  -19.19903 -10.31524 -10.26028  -1.12276  -0.87135
 Alpha  occ. eigenvalues --   -0.74025  -0.60823  -0.56029  -0.52326  -0.48794
 Alpha  occ. eigenvalues --   -0.46736  -0.40994  -0.36179
 Alpha virt. eigenvalues --    0.17418   0.21586   0.24460   0.25559   0.26744
 Alpha virt. eigenvalues --    0.29030   0.32279   0.34348   0.63666   0.65448
 Alpha virt. eigenvalues --    0.67798   0.68491   0.76605   0.78927   0.92031

 Mulliken charges:
               1
     1  O   -0.645639
     2  C   -0.037731
     3  C   -0.482520
     4  H    0.398772
     5  H    0.164467
     6  H    0.130301
     7  H    0.171938
     8  H    0.148842
     9  H    0.151569
 Sum of Mulliken charges =  -0.00000

 Dipole moment (field-independent basis, Debye):
    X=              0.9079    Y=             -0.1427    Z=              1.3817  Tot=              1.6595
 Quadrupole moment (field-independent basis, Debye-Ang):
   XX=            -21.2164   YY=            -18.4907   ZZ=            -18.8199
   XY=              1.2815   XZ=             -2.3167   YZ=             -1.4363

 Normal termination of Gaussian 16 at Fri Sep 22 16:32:58 2023.
