 Gaussian 16, Revision A.03,
 Gaussian 16:  ES64L-G16RevA.03 25-Dec-2016

 ----------------
 # 6-31g(d) wb97x
 ----------------

 ----------------------
 tmpdir/M2_conf_0_1.gjf
 ----------------------
 Symbolic Z-matrix:
 Charge = -1 Multiplicity = 1

                         Standard orientation:
 ---------------------------------------------------------------------
 Center     Atomic      Atomic             Coordinates (Angstroms)
 Number     Number       Type             X           Y           Z
 ---------------------------------------------------------------------
      1          6           0        0.047352    0.317943   -0.000796
      2          8           0       -1.223611   -0.191870    0.000196
      3          8           0        1.174070   -0.226809    0.000210
      4          1           0        0.112216    1.441772    0.001526
 ---------------------------------------------------------------------

 SCF Done:  E(RwB97X) =  -189.114990913     A.U. after   15 cycles

 The electronic state is 1-A.
 Alpha  occ. eigenvalues --  -18.93207 -18.90840 -10.13067  -0.89023  -0.78392
 Alpha  occ. eigenvalues --   -0.43179  -0.30396  -0.26063  -0.24674  -0.10489
 Alpha  occ. eigenvalues --   -0.10044  -0.08845
 Alpha virt. eigenvalues --    0.37496   0.45310   0.60698   0.63876   0.87990
 Alpha virt. eigenvalues --    0.92259   1.00561   1.06612   1.18170   1.21215
 Alpha virt. eigenvalues --    1.25002   1.31662   1.39131   1.40831   1.43986

 Mulliken charges:
               1
     1  C    0.323836
     2  O   -0.685802
     3  O   -0.584117
     4  H   -0.053917
 Sum of Mulliken charges =  -1.00000

 Dipole moment (field-independent basis, Debye):
    X=              0.6752    Y=              1.2667    Z=             -0.0019  Tot=              1.4354
 Quadrupole moment (field-independent basis, Debye-Ang):
   XX=            -27.6785   YY=            -19.3024   ZZ=            -17.7254
   XY=              0.1097   XZ=             -0.0004   YZ=             -0.0008

 Normal termination of Gaussian 16 at Fri Sep 22 16:30:16 2023.
