 Gaussian 16, Revision A.03,
 Gaussian 16:  ES64L-G16RevA.03 25-Dec-2016

 ----------------
 # 6-31g(d) wb97x
 ----------------

 -----------------------
 tmpdir/M2_conf_1_96.gjf
 -----------------------
 Symbolic Z-matrix:
 Charge =  0 Multiplicity = 1

                         Standard orientation:
 ---------------------------------------------------------------------
 Center     Atomic      Atomic             Coordinates (Angstroms)
 Number     Number       Type             X           Y           Z
 ---------------------------------------------------------------------
      1          1           0        0.057013    0.984990    0.465802
      2          6           0       -0.002565    0.000961   -0.006895
      3          1           0        0.062847   -0.773457    0.761782
      4          1           0        0.858468   -0.119017   -0.668047
      5          1           0       -0.962935   -0.098282   -0.518164
 ---------------------------------------------------------------------

 SCF Done:  E(RwB97X) =  -40.4991586407     A.U. after   11 cycles

 The electronic state is 1-A.
 Alpha  occ. eigenvalues --  -10.24864  -0.81789  -0.50185  -0.49481  -0.48825
 Alpha virt. eigenvalues --    0.21663   0.27203   0.27613   0.27887   0.63624
 Alpha virt. eigenvalues --    0.64068   0.64489   1.01110   1.01907   1.02646
 Alpha virt. eigenvalues --    1.07146   1.20723   1.75548   1.76201   2.34379

 Mulliken charges:
               1
     1  H    0.166268
     2  C   -0.667926
     3  H    0.165512
     4  H    0.167720
     5  H    0.168426
 Sum of Mulliken charges =   0.00000

 Dipole moment (field-independent basis, Debye):
    X=              0.0097    Y=             -0.0046    Z=              0.0250  Tot=              0.0272
 Quadrupole moment (field-independent basis, Debye-Ang):
   XX=             -8.1185   YY=             -8.2600   ZZ=             -8.3715
   XY=              0.0006   XZ=              0.0019   YZ=              0.0051

 Normal termination of Gaussian 16 at Fri Sep 22 16:32:01 2023.
