 Gaussian 16, Revision A.03,
 Gaussian 16:  ES64L-G16RevA.03 25-Dec-2016

 ----------------
 # 6-31g(d) wb97x
 ----------------

 -----------------------
 tmpdir/M2_conf_2_73.gjf
 -----------------------
 Symbolic Z-matrix:
 Charge =  0 Multiplicity = 1

                         Standard orientation:
 ---------------------------------------------------------------------
 Center     Atomic      Atomic             Coordinates (Angstroms)
 Number     Number       Type             X           Y           Z
 ---------------------------------------------------------------------
      1          6           0        1.281796   -0.255709    0.014432
      2          6           0       -0.003707    0.575662   -0.001852
      3          6           0       -1.278591   -0.262630   -0.001551
      4          1           0        1.397320   -0.899735    0.905628
      5          1           0        2.141464    0.419076   -0.069679
      6          1           0        1.288987   -0.865293   -0.899146
      7          1           0       -0.095139    1.299987    0.920214
      8          1           0       -0.000533    1.194940   -0.918700
      9          1           0       -2.201933    0.332816   -0.119518
     10          1           0       -1.326986   -0.833766    0.932389
     11          1           0       -1.200165   -0.991964   -0.817361
 ---------------------------------------------------------------------

 SCF Done:  E(RwB97X) =  -119.099926620     A.U. after   12 cycles

 The electronic state is 1-A.
 Alpha  occ. eigenvalues --  -10.27009 -10.25709 -10.25318  -0.90672  -0.80355
 Alpha  occ. eigenvalues --   -0.69277  -0.56504  -0.54331  -0.50069  -0.48344
 Alpha  occ. eigenvalues --   -0.43775  -0.42797  -0.41719
 Alpha virt. eigenvalues --    0.18434   0.23237   0.24314   0.24880   0.26243
 Alpha virt. eigenvalues --    0.28364   0.29337   0.29688   0.32035   0.36463
 Alpha virt. eigenvalues --    0.61598   0.62162   0.65825   0.67111   0.68715

 Mulliken charges:
               1
     1  C   -0.462959
     2  C   -0.271409
     3  C   -0.457673
     4  H    0.155387
     5  H    0.159118
     6  H    0.151311
     7  H    0.125982
     8  H    0.145654
     9  H    0.156570
    10  H    0.151509
    11  H    0.146511
 Sum of Mulliken charges =  -0.00000

 Dipole moment (field-independent basis, Debye):
    X=              0.0470    Y=             -0.0020    Z=             -0.0784  Tot=              0.0914
 Quadrupole moment (field-independent basis, Debye-Ang):
   XX=            -21.9035   YY=            -21.8782   ZZ=            -21.1986
   XY=             -0.1929   XZ=             -0.0909   YZ=             -0.1662

 Normal termination of Gaussian 16 at Fri Sep 22 16:33:01 2023.
