 Gaussian 16, Revision A.03,
 Gaussian 16:  ES64L-G16RevA.03 25-Dec-2016

 ----------------
 # 6-31g(d) wb97x
 ----------------

 -----------------------
 tmpdir/M2_conf_0_73.gjf
 -----------------------
 Symbolic Z-matrix:
 Charge =  0 Multiplicity = 1

                         Standard orientation:
 ---------------------------------------------------------------------
 Center     Atomic      Atomic             Coordinates (Angstroms)
 Number     Number       Type             X           Y           Z
 ---------------------------------------------------------------------
      1          6           0        1.291397   -0.251542    0.014409
      2          6           0       -0.003339    0.565376   -0.001793
      3          6           0       -1.286761   -0.259782   -0.001547
      4          1           0        1.414269   -0.894098    0.905683
      5          1           0        2.143440    0.432816   -0.069943
      6          1           0        1.305269   -0.861147   -0.899078
      7          1           0       -0.102731    1.288772    0.920177
      8          1           0       -0.007248    1.184512   -0.918736
      9          1           0       -2.203930    0.345106   -0.119573
     10          1           0       -1.341064   -0.830375    0.932401
     11          1           0       -1.215784   -0.989898   -0.817340
 ---------------------------------------------------------------------

 SCF Done:  E(RwB97X) =  -119.099568161     A.U. after   12 cycles

 The electronic state is 1-A.
 Alpha  occ. eigenvalues --  -10.27002 -10.25745 -10.25323  -0.90632  -0.80443
 Alpha  occ. eigenvalues --   -0.69230  -0.56488  -0.54298  -0.50122  -0.48411
 Alpha  occ. eigenvalues --   -0.43948  -0.42650  -0.41614
 Alpha virt. eigenvalues --    0.18406   0.23312   0.24343   0.24870   0.26282
 Alpha virt. eigenvalues --    0.28296   0.29250   0.29603   0.31954   0.36610
 Alpha virt. eigenvalues --    0.61278   0.62202   0.65901   0.67216   0.68760

 Mulliken charges:
               1
     1  C   -0.462997
     2  C   -0.271090
     3  C   -0.458012
     4  H    0.155537
     5  H    0.159809
     6  H    0.151453
     7  H    0.125396
     8  H    0.145224
     9  H    0.156998
    10  H    0.151353
    11  H    0.146330
 Sum of Mulliken charges =  -0.00000

 Dipole moment (field-independent basis, Debye):
    X=              0.0484    Y=             -0.0019    Z=             -0.0796  Tot=              0.0932
 Quadrupole moment (field-independent basis, Debye-Ang):
   XX=            -21.8627   YY=            -21.8994   ZZ=            -21.2034
   XY=             -0.2126   XZ=             -0.0900   YZ=             -0.1680

 Normal termination of Gaussian 16 at Fri Sep 22 16:30:49 2023.
