 Gaussian 16, Revision A.03,
 Gaussian 16:  ES64L-G16RevA.03 25-Dec-2016

 ----------------
 # 6-31g(d) wb97x
 ----------------

 -----------------------
 tmpdir/M2_conf_0_93.gjf
 -----------------------
 Symbolic Z-matrix:
 Charge =  0 Multiplicity = 1

                         Standard orientation:
 ---------------------------------------------------------------------
 Center     Atomic      Atomic             Coordinates (Angstroms)
 Number     Number       Type             X           Y           Z
 ---------------------------------------------------------------------
      1          6           0        0.228480    0.459643   -0.003292
      2          6           0       -1.151808   -0.149679    0.000136
      3          1           0       -1.266736   -0.760748    0.899412
      4          1           0        0.269953    1.513057    0.008481
      5          8           0        1.215848   -0.297725    0.000948
      6          1           0       -1.234394   -0.819568   -0.859686
      7          1           0       -1.955641    0.589274   -0.036854
 ---------------------------------------------------------------------

 SCF Done:  E(RwB97X) =  -153.779158716     A.U. after   14 cycles

 The electronic state is 1-A.
 Alpha  occ. eigenvalues --  -19.21630 -10.36549 -10.27619  -1.15336  -0.87953
 Alpha  occ. eigenvalues --   -0.71701  -0.58780  -0.55150  -0.53529  -0.50220
 Alpha  occ. eigenvalues --   -0.45394  -0.35775
 Alpha virt. eigenvalues --    0.06177   0.21014   0.22470   0.27154   0.27360
 Alpha virt. eigenvalues --    0.33658   0.37387   0.63189   0.64100   0.68359
 Alpha virt. eigenvalues --    0.70702   0.75424   0.82510   0.88508   0.96318

 Mulliken charges:
               1
     1  C    0.223038
     2  C   -0.554120
     3  H    0.204965
     4  H    0.153270
     5  O   -0.396118
     6  H    0.204637
     7  H    0.164327
 Sum of Mulliken charges =   0.00000

 Dipole moment (field-independent basis, Debye):
    X=             -2.4115    Y=              1.2429    Z=              0.0081  Tot=              2.7130
 Quadrupole moment (field-independent basis, Debye-Ang):
   XX=            -20.8813   YY=            -17.2548   ZZ=            -17.5292
   XY=              1.1458   XZ=             -0.0258   YZ=             -0.0008

 Normal termination of Gaussian 16 at Fri Sep 22 16:30:54 2023.
