 Gaussian 16, Revision A.03,
 Gaussian 16:  ES64L-G16RevA.03 25-Dec-2016

 ----------------
 # 6-31g(d) wb97x
 ----------------

 -----------------------
 tmpdir/M2_conf_0_41.gjf
 -----------------------
 Symbolic Z-matrix:
 Charge =  0 Multiplicity = 1

                         Standard orientation:
 ---------------------------------------------------------------------
 Center     Atomic      Atomic             Coordinates (Angstroms)
 Number     Number       Type             X           Y           Z
 ---------------------------------------------------------------------
      1          6           0       -1.311887   -0.219453   -0.051171
      2          6           0        0.030739    0.504301    0.072740
      3          7           0        1.274914   -0.273938   -0.023881
      4          1           0       -2.160473    0.485043    0.021400
      5          1           0       -1.452612   -1.021713    0.807460
      6          1           0       -1.334269   -0.784603   -0.989838
      7          1           0        0.109906    1.257623   -0.754717
      8          1           0        0.048473    1.064678    1.019136
      9          1           0        1.529577   -1.125035    0.280853
     10          1           0        2.021883    0.332480   -0.346542
 ---------------------------------------------------------------------

 SCF Done:  E(RwB97X) =  -135.103974215     A.U. after   13 cycles

 The electronic state is 1-A.
 Alpha  occ. eigenvalues --  -14.36306 -10.29233 -10.26441  -0.98669  -0.85068
 Alpha  occ. eigenvalues --   -0.72248  -0.59782  -0.55666  -0.53776  -0.47123
 Alpha  occ. eigenvalues --   -0.45840  -0.43440  -0.30018
 Alpha virt. eigenvalues --    0.18764   0.21663   0.24078   0.26349   0.26952
 Alpha virt. eigenvalues --    0.28223   0.31006   0.32798   0.37479   0.63504
 Alpha virt. eigenvalues --    0.65504   0.67749   0.70993   0.78708   0.80145

 Mulliken charges:
               1
     1  C   -0.468399
     2  C   -0.095908
     3  N   -0.805212
     4  H    0.160055
     5  H    0.132091
     6  H    0.165344
     7  H    0.138197
     8  H    0.133982
     9  H    0.327377
    10  H    0.312472
 Sum of Mulliken charges =  -0.00000

 Dipole moment (field-independent basis, Debye):
    X=              0.3073    Y=              0.1474    Z=              0.0832  Tot=              0.3508
 Quadrupole moment (field-independent basis, Debye-Ang):
   XX=            -18.6203   YY=            -19.3143   ZZ=            -21.5883
   XY=             -0.2867   XZ=             -0.1919   YZ=             -1.2197

 Normal termination of Gaussian 16 at Fri Sep 22 16:30:40 2023.
