 Gaussian 16, Revision A.03,
 Gaussian 16:  ES64L-G16RevA.03 25-Dec-2016

 ----------------
 # 6-31g(d) wb97x
 ----------------

 -----------------------
 tmpdir/M2_conf_0_44.gjf
 -----------------------
 Symbolic Z-matrix:
 Charge =  0 Multiplicity = 1

                         Standard orientation:
 ---------------------------------------------------------------------
 Center     Atomic      Atomic             Coordinates (Angstroms)
 Number     Number       Type             X           Y           Z
 ---------------------------------------------------------------------
      1          7           0       -1.272479   -0.225626   -0.052384
      2          6           0       -0.035922    0.563197    0.055512
      3          6           0        1.274949   -0.257344   -0.042359
      4          1           0       -2.159223   -0.009320   -0.273719
      5          1           0       -1.120112   -1.140289    0.359914
      6          1           0        0.133455    1.370116   -0.684363
      7          1           0        0.026729    0.988077    1.068209
      8          1           0        2.149549    0.384361    0.007344
      9          1           0        1.199482   -1.047269    0.815377
     10          1           0        1.243309   -0.801410   -1.004995
 ---------------------------------------------------------------------

 SCF Done:  E(RwB97X) =  -135.100156113     A.U. after   13 cycles

 The electronic state is 1-A.
 Alpha  occ. eigenvalues --  -14.36762 -10.29039 -10.26388  -0.98866  -0.85423
 Alpha  occ. eigenvalues --   -0.71597  -0.61677  -0.55475  -0.53012  -0.49290
 Alpha  occ. eigenvalues --   -0.44761  -0.42919  -0.30342
 Alpha virt. eigenvalues --    0.18538   0.22352   0.23864   0.26652   0.27265
 Alpha virt. eigenvalues --    0.28420   0.28635   0.34020   0.36529   0.62359
 Alpha virt. eigenvalues --    0.67452   0.68136   0.70146   0.76143   0.78940

 Mulliken charges:
               1
     1  N   -0.798414
     2  C   -0.105531
     3  C   -0.473429
     4  H    0.334197
     5  H    0.307869
     6  H    0.146370
     7  H    0.131530
     8  H    0.167625
     9  H    0.128151
    10  H    0.161631
 Sum of Mulliken charges =  -0.00000

 Dipole moment (field-independent basis, Debye):
    X=             -0.1522    Y=             -0.0960    Z=              0.1810  Tot=              0.2553
 Quadrupole moment (field-independent basis, Debye-Ang):
   XX=            -18.5438   YY=            -19.8525   ZZ=            -21.5634
   XY=              0.9770   XZ=              0.0231   YZ=             -1.2725

 Normal termination of Gaussian 16 at Fri Sep 22 16:30:48 2023.
