 Gaussian 16, Revision A.03,
 Gaussian 16:  ES64L-G16RevA.03 25-Dec-2016

 ----------------
 # 6-31g(d) wb97x
 ----------------

 -----------------------
 tmpdir/M2_conf_1_84.gjf
 -----------------------
 Symbolic Z-matrix:
 Charge =  0 Multiplicity = 1

                         Standard orientation:
 ---------------------------------------------------------------------
 Center     Atomic      Atomic             Coordinates (Angstroms)
 Number     Number       Type             X           Y           Z
 ---------------------------------------------------------------------
      1          1           0        0.035919    0.745715   -0.793660
      2          6           0       -0.006462   -0.011344   -0.002142
      3          1           0        0.209525    0.522801    0.932903
      4          1           0        0.810655   -0.742905   -0.161719
      5          1           0       -1.017330   -0.457545    0.035332
 ---------------------------------------------------------------------

 SCF Done:  E(RwB97X) =  -40.4984362168     A.U. after   11 cycles

 The electronic state is 1-A.
 Alpha  occ. eigenvalues --  -10.25274  -0.81533  -0.50091  -0.49124  -0.48753
 Alpha virt. eigenvalues --    0.21381   0.27059   0.27246   0.27481   0.63820
 Alpha virt. eigenvalues --    0.64124   0.65078   1.00484   1.00984   1.01657
 Alpha virt. eigenvalues --    1.06310   1.20705   1.75897   1.76069   2.31945

 Mulliken charges:
               1
     1  H    0.165928
     2  C   -0.664511
     3  H    0.164934
     4  H    0.165626
     5  H    0.168023
 Sum of Mulliken charges =   0.00000

 Dipole moment (field-independent basis, Debye):
    X=              0.0220    Y=              0.0540    Z=              0.0083  Tot=              0.0589
 Quadrupole moment (field-independent basis, Debye-Ang):
   XX=             -8.0919   YY=             -8.3165   ZZ=             -8.4191
   XY=              0.0093   XZ=             -0.0008   YZ=             -0.0048

 Normal termination of Gaussian 16 at Fri Sep 22 16:31:55 2023.
