 Gaussian 16, Revision A.03,
 Gaussian 16:  ES64L-G16RevA.03 25-Dec-2016

 ----------------
 # 6-31g(d) wb97x
 ----------------

 -----------------------
 tmpdir/M2_conf_2_10.gjf
 -----------------------
 Symbolic Z-matrix:
 Charge =  0 Multiplicity = 1

                         Standard orientation:
 ---------------------------------------------------------------------
 Center     Atomic      Atomic             Coordinates (Angstroms)
 Number     Number       Type             X           Y           Z
 ---------------------------------------------------------------------
      1          6           0       -1.208258   -0.184956   -0.002682
      2          6           0        0.136654    0.476279   -0.011711
      3          6           0        1.258211   -0.236827    0.006966
      4          1           0       -1.177934   -1.276683   -0.172674
      5          1           0       -1.844506    0.318020   -0.738668
      6          1           0       -1.678013    0.031780    0.969089
      7          1           0        0.111950    1.601685   -0.003934
      8          1           0        1.277372   -1.322215   -0.020283
      9          1           0        2.191496    0.320436    0.011034
 ---------------------------------------------------------------------

 SCF Done:  E(RwB97X) =  -117.863115649     A.U. after   13 cycles

 The electronic state is 1-A.
 Alpha  occ. eigenvalues --  -10.27422 -10.26155 -10.25464  -0.91273  -0.80409
 Alpha  occ. eigenvalues --   -0.66274  -0.57225  -0.52745  -0.51416  -0.46876
 Alpha  occ. eigenvalues --   -0.44005  -0.34709
 Alpha virt. eigenvalues --    0.12288   0.20649   0.22347   0.24790   0.27144
 Alpha virt. eigenvalues --    0.28067   0.29727   0.38088   0.46835   0.60396
 Alpha virt. eigenvalues --    0.63945   0.64959   0.71634   0.73149   0.76880

 Mulliken charges:
               1
     1  C   -0.508421
     2  C   -0.081578
     3  C   -0.365357
     4  H    0.165368
     5  H    0.162771
     6  H    0.167513
     7  H    0.152040
     8  H    0.157156
     9  H    0.150508
 Sum of Mulliken charges =  -0.00000

 Dipole moment (field-independent basis, Debye):
    X=             -0.3492    Y=              0.1194    Z=              0.0223  Tot=              0.3697
 Quadrupole moment (field-independent basis, Debye-Ang):
   XX=            -19.3500   YY=            -18.2159   ZZ=            -21.4821
   XY=             -0.2835   XZ=             -0.0443   YZ=              0.0569

 Normal termination of Gaussian 16 at Fri Sep 22 16:32:39 2023.
