 Gaussian 16, Revision A.03,
 Gaussian 16:  ES64L-G16RevA.03 25-Dec-2016

 ----------------
 # 6-31g(d) wb97x
 ----------------

 -----------------------
 tmpdir/M2_conf_1_52.gjf
 -----------------------
 Symbolic Z-matrix:
 Charge =  0 Multiplicity = 1

                         Standard orientation:
 ---------------------------------------------------------------------
 Center     Atomic      Atomic             Coordinates (Angstroms)
 Number     Number       Type             X           Y           Z
 ---------------------------------------------------------------------
      1          6           0       -1.151192   -0.120816    0.007881
      2          6           0        0.254611    0.401291   -0.007035
      3          1           0       -1.205364   -1.164437   -0.399982
      4          1           0       -1.907076    0.493469   -0.637639
      5          1           0       -1.543651   -0.158226    1.041443
      6          8           0        1.200267   -0.290852   -0.003503
      7          1           0        0.433448    1.473157    0.019132
 ---------------------------------------------------------------------

 SCF Done:  E(RwB97X) =  -153.777220519     A.U. after   15 cycles

 The electronic state is 1-A.
 Alpha  occ. eigenvalues --  -19.21404 -10.35862 -10.28740  -1.19340  -0.87236
 Alpha  occ. eigenvalues --   -0.70094  -0.59449  -0.55603  -0.54765  -0.48930
 Alpha  occ. eigenvalues --   -0.47331  -0.35476
 Alpha virt. eigenvalues --    0.08376   0.19950   0.21983   0.25347   0.25907
 Alpha virt. eigenvalues --    0.36304   0.38328   0.63007   0.64162   0.70473
 Alpha virt. eigenvalues --    0.72234   0.79488   0.84990   0.86608   0.94217

 Mulliken charges:
               1
     1  C   -0.567892
     2  C    0.247052
     3  H    0.194523
     4  H    0.163073
     5  H    0.196522
     6  O   -0.352582
     7  H    0.119305
 Sum of Mulliken charges =   0.00000

 Dipole moment (field-independent basis, Debye):
    X=             -2.2418    Y=              1.0562    Z=              0.0860  Tot=              2.4796
 Quadrupole moment (field-independent basis, Debye-Ang):
   XX=            -20.3657   YY=            -17.8699   ZZ=            -17.5073
   XY=              1.2253   XZ=             -0.0660   YZ=              0.0013

 Normal termination of Gaussian 16 at Fri Sep 22 16:31:47 2023.
