 Gaussian 16, Revision A.03,
 Gaussian 16:  ES64L-G16RevA.03 25-Dec-2016

 ----------------
 # 6-31g(d) wb97x
 ----------------

 ------------------------
 tmpdir/M2_conf_1_112.gjf
 ------------------------
 Symbolic Z-matrix:
 Charge =  0 Multiplicity = 1

                         Standard orientation:
 ---------------------------------------------------------------------
 Center     Atomic      Atomic             Coordinates (Angstroms)
 Number     Number       Type             X           Y           Z
 ---------------------------------------------------------------------
      1          6           0       -0.762983    0.000870   -0.003318
      2          6           0        0.763413    0.004399   -0.003926
      3          1           0        1.149737    1.012278    0.204360
      4          1           0       -1.209099    0.740819   -0.691343
      5          1           0       -1.127834   -0.997081   -0.271176
      6          1           0       -1.134349    0.215624    1.006432
      7          1           0        1.162489   -0.665994    0.763700
      8          1           0        1.156480   -0.337258   -0.968509
 ---------------------------------------------------------------------

 SCF Done:  E(RwB97X) =  -79.8009578273     A.U. after   12 cycles

 The electronic state is 1-A.
 Alpha  occ. eigenvalues --  -10.25571 -10.25504  -0.87907  -0.73331  -0.54262
 Alpha  occ. eigenvalues --   -0.54057  -0.46662  -0.44122  -0.43991
 Alpha virt. eigenvalues --    0.19946   0.25412   0.25918   0.26158   0.28839
 Alpha virt. eigenvalues --    0.29133   0.33972   0.61712   0.64789   0.65303
 Alpha virt. eigenvalues --    0.73872   0.75168   0.78922   0.99946   1.00048

 Mulliken charges:
               1
     1  C   -0.467707
     2  C   -0.467792
     3  H    0.155317
     4  H    0.156225
     5  H    0.155664
     6  H    0.155187
     7  H    0.156903
     8  H    0.156204
 Sum of Mulliken charges =   0.00000

 Dipole moment (field-independent basis, Debye):
    X=              0.0031    Y=             -0.0220    Z=              0.0239  Tot=              0.0326
 Quadrupole moment (field-independent basis, Debye-Ang):
   XX=            -15.3045   YY=            -14.6543   ZZ=            -14.7124
   XY=             -0.0758   XZ=              0.0490   YZ=             -0.0032

 Normal termination of Gaussian 16 at Fri Sep 22 16:32:13 2023.
