 Gaussian 16, Revision A.03,
 Gaussian 16:  ES64L-G16RevA.03 25-Dec-2016

 ----------------
 # 6-31g(d) wb97x
 ----------------

 -----------------------
 tmpdir/M2_conf_2_84.gjf
 -----------------------
 Symbolic Z-matrix:
 Charge =  0 Multiplicity = 1

                         Standard orientation:
 ---------------------------------------------------------------------
 Center     Atomic      Atomic             Coordinates (Angstroms)
 Number     Number       Type             X           Y           Z
 ---------------------------------------------------------------------
      1          1           0        0.030357    0.780775   -0.760071
      2          6           0       -0.006341   -0.010880   -0.002858
      3          1           0        0.205894    0.478796    0.957057
      4          1           0        0.815827   -0.728880   -0.194797
      5          1           0       -1.014030   -0.465413    0.014957
 ---------------------------------------------------------------------

 SCF Done:  E(RwB97X) =  -40.4984659121     A.U. after   11 cycles

 The electronic state is 1-A.
 Alpha  occ. eigenvalues --  -10.25274  -0.81532  -0.50088  -0.49106  -0.48776
 Alpha virt. eigenvalues --    0.21383   0.27044   0.27261   0.27484   0.63838
 Alpha virt. eigenvalues --    0.64103   0.65079   1.00459   1.01028   1.01660
 Alpha virt. eigenvalues --    1.06286   1.20691   1.75889   1.76080   2.31958

 Mulliken charges:
               1
     1  H    0.166015
     2  C   -0.664474
     3  H    0.164929
     4  H    0.165570
     5  H    0.167959
 Sum of Mulliken charges =  -0.00000

 Dipole moment (field-independent basis, Debye):
    X=              0.0216    Y=              0.0522    Z=              0.0116  Tot=              0.0576
 Quadrupole moment (field-independent basis, Debye-Ang):
   XX=             -8.0929   YY=             -8.3219   ZZ=             -8.4126
   XY=              0.0094   XZ=             -0.0002   YZ=             -0.0050

 Normal termination of Gaussian 16 at Fri Sep 22 16:32:59 2023.
