 Gaussian 16, Revision A.03,
 Gaussian 16:  ES64L-G16RevA.03 25-Dec-2016

 ----------------
 # 6-31g(d) wb97x
 ----------------

 -----------------------
 tmpdir/M2_conf_0_80.gjf
 -----------------------
 Symbolic Z-matrix:
 Charge =  0 Multiplicity = 1

                         Standard orientation:
 ---------------------------------------------------------------------
 Center     Atomic      Atomic             Coordinates (Angstroms)
 Number     Number       Type             X           Y           Z
 ---------------------------------------------------------------------
      1          6           0       -0.759932    0.003282   -0.008413
      2          6           0        0.770944   -0.015502   -0.003041
      3          1           0        1.120315    0.152423    1.022227
      4          1           0       -1.233179   -0.869278    0.622371
      5          1           0       -1.188272   -0.079492   -1.023100
      6          1           0       -1.093146    0.960244    0.435785
      7          1           0        1.217206   -0.943525   -0.405510
      8          1           0        1.111002    0.852949   -0.583050
 ---------------------------------------------------------------------

 SCF Done:  E(RwB97X) =  -79.7964968717     A.U. after   12 cycles

 The electronic state is 1-A.
 Alpha  occ. eigenvalues --  -10.26560 -10.25792  -0.87668  -0.72831  -0.54405
 Alpha  occ. eigenvalues --   -0.53483  -0.46447  -0.44380  -0.43282
 Alpha virt. eigenvalues --    0.19483   0.24467   0.25529   0.25913   0.28066
 Alpha virt. eigenvalues --    0.28824   0.33607   0.61761   0.65042   0.66057
 Alpha virt. eigenvalues --    0.74416   0.75237   0.78373   0.97065   0.99447

 Mulliken charges:
               1
     1  C   -0.458611
     2  C   -0.462488
     3  H    0.157749
     4  H    0.136041
     5  H    0.157474
     6  H    0.155433
     7  H    0.158501
     8  H    0.155901
 Sum of Mulliken charges =  -0.00000

 Dipole moment (field-independent basis, Debye):
    X=              0.0420    Y=              0.0893    Z=             -0.0148  Tot=              0.0997
 Quadrupole moment (field-independent basis, Debye-Ang):
   XX=            -15.4407   YY=            -14.6714   ZZ=            -14.8184
   XY=             -0.0304   XZ=              0.0573   YZ=              0.0893

 Normal termination of Gaussian 16 at Fri Sep 22 16:30:58 2023.
