 Gaussian 16, Revision A.03,
 Gaussian 16:  ES64L-G16RevA.03 25-Dec-2016

 ----------------
 # 6-31g(d) wb97x
 ----------------

 -----------------------
 tmpdir/M2_conf_1_74.gjf
 -----------------------
 Symbolic Z-matrix:
 Charge =  0 Multiplicity = 1

                         Standard orientation:
 ---------------------------------------------------------------------
 Center     Atomic      Atomic             Coordinates (Angstroms)
 Number     Number       Type             X           Y           Z
 ---------------------------------------------------------------------
      1          6           0        0.771084   -0.015113   -0.003170
      2          6           0       -0.759797    0.003266   -0.008214
      3          1           0       -1.099351    0.952440    0.447750
      4          1           0        1.217612   -0.937586   -0.417908
      5          1           0        1.124082    0.139095    1.023010
      6          1           0        1.110841    0.861047   -0.571646
      7          1           0       -1.232739   -0.877713    0.610985
      8          1           0       -1.188168   -0.066200   -1.023889
 ---------------------------------------------------------------------

 SCF Done:  E(RwB97X) =  -79.7965713379     A.U. after   12 cycles

 The electronic state is 1-A.
 Alpha  occ. eigenvalues --  -10.26563 -10.25798  -0.87657  -0.72855  -0.54370
 Alpha  occ. eigenvalues --   -0.53474  -0.46496  -0.44369  -0.43276
 Alpha virt. eigenvalues --    0.19500   0.24470   0.25498   0.25896   0.28077
 Alpha virt. eigenvalues --    0.28846   0.33631   0.61778   0.64999   0.66014
 Alpha virt. eigenvalues --    0.74454   0.75304   0.78380   0.97069   0.99477

 Mulliken charges:
               1
     1  C   -0.462516
     2  C   -0.458825
     3  H    0.155532
     4  H    0.158595
     5  H    0.157812
     6  H    0.155920
     7  H    0.135985
     8  H    0.157497
 Sum of Mulliken charges =  -0.00000

 Dipole moment (field-independent basis, Debye):
    X=              0.0418    Y=              0.0897    Z=             -0.0139  Tot=              0.0999
 Quadrupole moment (field-independent basis, Debye-Ang):
   XX=            -15.4227   YY=            -14.6786   ZZ=            -14.8209
   XY=             -0.0387   XZ=              0.0583   YZ=              0.0889

 Normal termination of Gaussian 16 at Fri Sep 22 16:32:02 2023.
