 Gaussian 16, Revision A.03,
 Gaussian 16:  ES64L-G16RevA.03 25-Dec-2016

 ----------------
 # 6-31g(d) wb97x
 ----------------

 -----------------------
 tmpdir/M2_conf_1_10.gjf
 -----------------------
 Symbolic Z-matrix:
 Charge =  0 Multiplicity = 1

                         Standard orientation:
 ---------------------------------------------------------------------
 Center     Atomic      Atomic             Coordinates (Angstroms)
 Number     Number       Type             X           Y           Z
 ---------------------------------------------------------------------
      1          6           0       -1.210057   -0.184244   -0.002686
      2          6           0        0.136425    0.473788   -0.011697
      3          6           0        1.260024   -0.236116    0.006973
      4          1           0       -1.182323   -1.276052   -0.172601
      5          1           0       -1.845072    0.320193   -0.738736
      6          1           0       -1.679340    0.033676    0.969048
      7          1           0        0.114399    1.599250   -0.003998
      8          1           0        1.282275   -1.321447   -0.020184
      9          1           0        2.191707    0.323816    0.010934
 ---------------------------------------------------------------------

 SCF Done:  E(RwB97X) =  -117.863259778     A.U. after   13 cycles

 The electronic state is 1-A.
 Alpha  occ. eigenvalues --  -10.27420 -10.26169 -10.25463  -0.91262  -0.80434
 Alpha  occ. eigenvalues --   -0.66259  -0.57220  -0.52751  -0.51423  -0.46868
 Alpha  occ. eigenvalues --   -0.44020  -0.34711
 Alpha virt. eigenvalues --    0.12293   0.20634   0.22377   0.24782   0.27142
 Alpha virt. eigenvalues --    0.28058   0.29727   0.38099   0.46845   0.60411
 Alpha virt. eigenvalues --    0.63942   0.64864   0.71665   0.73157   0.76891

 Mulliken charges:
               1
     1  C   -0.508510
     2  C   -0.081720
     3  C   -0.365179
     4  H    0.165467
     5  H    0.162998
     6  H    0.167690
     7  H    0.151591
     8  H    0.157027
     9  H    0.150634
 Sum of Mulliken charges =  -0.00000

 Dipole moment (field-independent basis, Debye):
    X=             -0.3507    Y=              0.1185    Z=              0.0222  Tot=              0.3708
 Quadrupole moment (field-independent basis, Debye-Ang):
   XX=            -19.3358   YY=            -18.2253   ZZ=            -21.4812
   XY=             -0.2778   XZ=             -0.0444   YZ=              0.0566

 Normal termination of Gaussian 16 at Fri Sep 22 16:31:34 2023.
