 Gaussian 16, Revision A.03,
 Gaussian 16:  ES64L-G16RevA.03 25-Dec-2016

 ----------------
 # 6-31g(d) wb97x
 ----------------

 -----------------------
 tmpdir/M2_conf_0_58.gjf
 -----------------------
 Symbolic Z-matrix:
 Charge =  0 Multiplicity = 1

                         Standard orientation:
 ---------------------------------------------------------------------
 Center     Atomic      Atomic             Coordinates (Angstroms)
 Number     Number       Type             X           Y           Z
 ---------------------------------------------------------------------
      1          6           0       -0.761609   -0.354781    0.129024
      2          6           0        0.495547    0.462237    0.177410
      3          8           0        1.681371   -0.188770   -0.264432
      4          8           0       -1.807581    0.086777   -0.161351
      5          1           0       -0.735370   -1.404307    0.410751
      6          1           0        0.420282    1.369728   -0.477751
      7          1           0        0.688756    0.822318    1.205358
      8          1           0        2.232377   -0.616530    0.429307
 ---------------------------------------------------------------------

 SCF Done:  E(RwB97X) =  -228.959496102     A.U. after   16 cycles

 The electronic state is 1-A.
 Alpha  occ. eigenvalues --  -19.22674 -19.22198 -10.35938 -10.33515  -1.20104
 Alpha  occ. eigenvalues --   -1.15011  -0.85870  -0.71504  -0.64292  -0.60716
 Alpha  occ. eigenvalues --   -0.56793  -0.53097  -0.50964  -0.43420  -0.41483
 Alpha  occ. eigenvalues --   -0.35144
 Alpha virt. eigenvalues --    0.07242   0.16064   0.21623   0.23071   0.25630
 Alpha virt. eigenvalues --    0.31867   0.37624   0.40958   0.62835   0.65736
 Alpha virt. eigenvalues --    0.66910   0.74513   0.77605   0.84892   0.86114

 Mulliken charges:
               1
     1  C    0.234696
     2  C   -0.140341
     3  O   -0.638866
     4  O   -0.352120
     5  H    0.121819
     6  H    0.198322
     7  H    0.166480
     8  H    0.410008
 Sum of Mulliken charges =  -0.00000

 Dipole moment (field-independent basis, Debye):
    X=              2.0813    Y=             -0.6033    Z=              2.2353  Tot=              3.1132
 Quadrupole moment (field-independent basis, Debye-Ang):
   XX=            -27.2699   YY=            -21.7931   ZZ=            -22.4205
   XY=             -0.2569   XZ=              2.7637   YZ=             -0.8442

 Normal termination of Gaussian 16 at Fri Sep 22 16:30:43 2023.
