 Gaussian 16, Revision A.03,
 Gaussian 16:  ES64L-G16RevA.03 25-Dec-2016

 ----------------
 # 6-31g(d) wb97x
 ----------------

 -----------------------
 tmpdir/M2_conf_2_49.gjf
 -----------------------
 Symbolic Z-matrix:
 Charge =  0 Multiplicity = 1

                         Standard orientation:
 ---------------------------------------------------------------------
 Center     Atomic      Atomic             Coordinates (Angstroms)
 Number     Number       Type             X           Y           Z
 ---------------------------------------------------------------------
      1          6           0       -1.456035   -0.444815    0.010634
      2          7           0       -0.459451    0.635082   -0.049369
      3          6           0        0.867129    0.446849    0.012630
      4          1           0       -1.223355   -1.397611   -0.504404
      5          1           0       -2.382521   -0.007245   -0.446088
      6          1           0       -1.687487   -0.655910    1.065086
      7          1           0       -0.929442    1.527494    0.062598
      8          8           0        1.436763   -0.659388   -0.004345
      9          1           0        1.478298    1.350604    0.063573
 ---------------------------------------------------------------------

 SCF Done:  E(RwB97X) =  -209.134974864     A.U. after   16 cycles

 The electronic state is 1-A.
 Alpha  occ. eigenvalues --  -19.17293 -14.44905 -10.36676 -10.31422  -1.14114
 Alpha  occ. eigenvalues --   -1.04919  -0.84341  -0.71869  -0.66040  -0.56361
 Alpha  occ. eigenvalues --   -0.56166  -0.51007  -0.49538  -0.47869  -0.35257
 Alpha  occ. eigenvalues --   -0.34601
 Alpha virt. eigenvalues --    0.12567   0.16364   0.21761   0.23540   0.25407
 Alpha virt. eigenvalues --    0.26526   0.30166   0.37707   0.46797   0.61554
 Alpha virt. eigenvalues --    0.62268   0.64722   0.69744   0.71721   0.77501

 Mulliken charges:
               1
     1  C   -0.336520
     2  N   -0.557764
     3  C    0.340960
     4  H    0.213120
     5  H    0.157835
     6  H    0.179504
     7  H    0.348455
     8  O   -0.477275
     9  H    0.131686
 Sum of Mulliken charges =   0.00000

 Dipole moment (field-independent basis, Debye):
    X=             -3.2680    Y=              2.6931    Z=              0.2613  Tot=              4.2428
 Quadrupole moment (field-independent basis, Debye-Ang):
   XX=            -24.9819   YY=            -21.8493   ZZ=            -24.6124
   XY=              2.5948   XZ=             -0.0696   YZ=              0.5095

 Normal termination of Gaussian 16 at Fri Sep 22 16:32:50 2023.
