 Gaussian 16, Revision A.03,
 Gaussian 16:  ES64L-G16RevA.03 25-Dec-2016

 ----------------
 # 6-31g(d) wb97x
 ----------------

 -----------------------
 tmpdir/M2_conf_2_28.gjf
 -----------------------
 Symbolic Z-matrix:
 Charge =  0 Multiplicity = 1

                         Standard orientation:
 ---------------------------------------------------------------------
 Center     Atomic      Atomic             Coordinates (Angstroms)
 Number     Number       Type             X           Y           Z
 ---------------------------------------------------------------------
      1          6           0        0.761041    0.000878    0.015824
      2          6           0       -0.768866   -0.000469   -0.018797
      3          1           0       -1.099399   -0.638434   -0.846293
      4          1           0        1.304248   -1.017592    0.078973
      5          1           0        1.140840    0.471525   -0.928998
      6          1           0        1.098955    0.635492    0.848342
      7          1           0       -1.173538    1.025060   -0.097667
      8          1           0       -1.224155   -0.478505    0.963481
 ---------------------------------------------------------------------

 SCF Done:  E(RwB97X) =  -79.7925950699     A.U. after   12 cycles

 The electronic state is 1-A.
 Alpha  occ. eigenvalues --  -10.26737 -10.26547  -0.87455  -0.72597  -0.54433
 Alpha  occ. eigenvalues --   -0.52863  -0.46894  -0.44161  -0.42743
 Alpha virt. eigenvalues --    0.19325   0.23846   0.24055   0.26339   0.27528
 Alpha virt. eigenvalues --    0.28870   0.33647   0.61777   0.65583   0.66084
 Alpha virt. eigenvalues --    0.73655   0.77048   0.78585   0.96465   0.98216

 Mulliken charges:
               1
     1  C   -0.459336
     2  C   -0.453696
     3  H    0.160980
     4  H    0.148097
     5  H    0.150153
     6  H    0.157902
     7  H    0.161699
     8  H    0.134201
 Sum of Mulliken charges =  -0.00000

 Dipole moment (field-independent basis, Debye):
    X=              0.0151    Y=              0.0667    Z=             -0.0617  Tot=              0.0921
 Quadrupole moment (field-independent basis, Debye-Ang):
   XX=            -15.4113   YY=            -14.7105   ZZ=            -14.9424
   XY=             -0.1905   XZ=             -0.0346   YZ=              0.1219

 Normal termination of Gaussian 16 at Fri Sep 22 16:32:32 2023.
