 Gaussian 16, Revision A.03,
 Gaussian 16:  ES64L-G16RevA.03 25-Dec-2016

 ----------------
 # 6-31g(d) wb97x
 ----------------

 ------------------------
 tmpdir/M2_conf_1_113.gjf
 ------------------------
 Symbolic Z-matrix:
 Charge =  0 Multiplicity = 1

                         Standard orientation:
 ---------------------------------------------------------------------
 Center     Atomic      Atomic             Coordinates (Angstroms)
 Number     Number       Type             X           Y           Z
 ---------------------------------------------------------------------
      1          6           0       -0.762985    0.001304   -0.002955
      2          6           0        0.763412    0.004224   -0.004080
      3          1           0        1.150138   -0.348722   -0.967156
      4          1           0       -1.209030    0.734113   -0.698628
      5          1           0       -1.128311   -0.999330   -0.259964
      6          1           0       -1.133945    0.226871    1.004581
      7          1           0        1.162470   -0.658036    0.770582
      8          1           0        1.156120    1.011935    0.192800
 ---------------------------------------------------------------------

 SCF Done:  E(RwB97X) =  -79.8009582295     A.U. after   12 cycles

 The electronic state is 1-A.
 Alpha  occ. eigenvalues --  -10.25571 -10.25504  -0.87907  -0.73331  -0.54252
 Alpha  occ. eigenvalues --   -0.54068  -0.46658  -0.44125  -0.43992
 Alpha virt. eigenvalues --    0.19947   0.25413   0.25931   0.26141   0.28838
 Alpha virt. eigenvalues --    0.29137   0.33972   0.61712   0.64803   0.65288
 Alpha virt. eigenvalues --    0.73855   0.75186   0.78923   0.99947   1.00047

 Mulliken charges:
               1
     1  C   -0.467707
     2  C   -0.467792
     3  H    0.156114
     4  H    0.156237
     5  H    0.155740
     6  H    0.155097
     7  H    0.156904
     8  H    0.155409
 Sum of Mulliken charges =   0.00000

 Dipole moment (field-independent basis, Debye):
    X=              0.0031    Y=             -0.0221    Z=              0.0237  Tot=              0.0326
 Quadrupole moment (field-independent basis, Debye-Ang):
   XX=            -15.3045   YY=            -14.6588   ZZ=            -14.7079
   XY=             -0.0649   XZ=              0.0588   YZ=             -0.0032

 Normal termination of Gaussian 16 at Fri Sep 22 16:32:18 2023.
