 Gaussian 16, Revision A.03,
 Gaussian 16:  ES64L-G16RevA.03 25-Dec-2016

 ----------------
 # 6-31g(d) wb97x
 ----------------

 -----------------------
 tmpdir/M2_conf_2_44.gjf
 -----------------------
 Symbolic Z-matrix:
 Charge =  0 Multiplicity = 1

                         Standard orientation:
 ---------------------------------------------------------------------
 Center     Atomic      Atomic             Coordinates (Angstroms)
 Number     Number       Type             X           Y           Z
 ---------------------------------------------------------------------
      1          7           0       -1.227506   -0.245784   -0.049095
      2          6           0       -0.035060    0.609273    0.050437
      3          6           0        1.236220   -0.272094   -0.040631
      4          1           0       -2.123135   -0.080791   -0.278701
      5          1           0       -1.029394   -1.143521    0.380597
      6          1           0        0.095739    1.410592   -0.703222
      7          1           0       -0.000920    1.055030    1.055495
      8          1           0        2.139573    0.329600   -0.007559
      9          1           0        1.130500   -1.042605    0.831451
     10          1           0        1.173223   -0.830892   -0.993234
 ---------------------------------------------------------------------

 SCF Done:  E(RwB97X) =  -135.103158745     A.U. after   13 cycles

 The electronic state is 1-A.
 Alpha  occ. eigenvalues --  -14.36549 -10.29080 -10.26297  -0.98957  -0.85035
 Alpha  occ. eigenvalues --   -0.71791  -0.61738  -0.55450  -0.52644  -0.48710
 Alpha  occ. eigenvalues --   -0.45000  -0.43549  -0.30298
 Alpha virt. eigenvalues --    0.18607   0.22490   0.23786   0.26400   0.27523
 Alpha virt. eigenvalues --    0.28668   0.29000   0.34479   0.35651   0.62870
 Alpha virt. eigenvalues --    0.67097   0.68198   0.70023   0.76494   0.78844

 Mulliken charges:
               1
     1  N   -0.797491
     2  C   -0.106560
     3  C   -0.473341
     4  H    0.331144
     5  H    0.306831
     6  H    0.148105
     7  H    0.134102
     8  H    0.164228
     9  H    0.128116
    10  H    0.164865
 Sum of Mulliken charges =  -0.00000

 Dipole moment (field-independent basis, Debye):
    X=             -0.1485    Y=             -0.0786    Z=              0.1778  Tot=              0.2446
 Quadrupole moment (field-independent basis, Debye-Ang):
   XX=            -18.7644   YY=            -19.7613   ZZ=            -21.4796
   XY=              0.9122   XZ=              0.0722   YZ=             -1.2465

 Normal termination of Gaussian 16 at Fri Sep 22 16:32:59 2023.
