 Gaussian 16, Revision A.03,
 Gaussian 16:  ES64L-G16RevA.03 25-Dec-2016

 ----------------
 # 6-31g(d) wb97x
 ----------------

 -----------------------
 tmpdir/M2_conf_1_86.gjf
 -----------------------
 Symbolic Z-matrix:
 Charge =  0 Multiplicity = 1

                         Standard orientation:
 ---------------------------------------------------------------------
 Center     Atomic      Atomic             Coordinates (Angstroms)
 Number     Number       Type             X           Y           Z
 ---------------------------------------------------------------------
      1          6           0        0.231172    0.460183   -0.003400
      2          6           0       -1.156036   -0.149551    0.000220
      3          1           0        0.274328    1.513530    0.008379
      4          8           0        1.217332   -0.298760    0.000699
      5          1           0       -1.265243   -0.758771    0.901460
      6          1           0       -1.239868   -0.819156   -0.859697
      7          1           0       -1.958693    0.590682   -0.036653
 ---------------------------------------------------------------------

 SCF Done:  E(RwB97X) =  -153.779152703     A.U. after   14 cycles

 The electronic state is 1-A.
 Alpha  occ. eigenvalues --  -19.21671 -10.36606 -10.27652  -1.15348  -0.87836
 Alpha  occ. eigenvalues --   -0.71709  -0.58724  -0.55108  -0.53477  -0.50256
 Alpha  occ. eigenvalues --   -0.45448  -0.35773
 Alpha virt. eigenvalues --    0.06179   0.21017   0.22480   0.27139   0.27291
 Alpha virt. eigenvalues --    0.33565   0.37239   0.63175   0.64127   0.68279
 Alpha virt. eigenvalues --    0.70676   0.75381   0.82448   0.88453   0.96332

 Mulliken charges:
               1
     1  C    0.222426
     2  C   -0.553853
     3  H    0.153573
     4  O   -0.395347
     5  H    0.204509
     6  H    0.204259
     7  H    0.164432
 Sum of Mulliken charges =  -0.00000

 Dipole moment (field-independent basis, Debye):
    X=             -2.3991    Y=              1.2516    Z=              0.0084  Tot=              2.7060
 Quadrupole moment (field-independent basis, Debye-Ang):
   XX=            -20.8872   YY=            -17.2589   ZZ=            -17.5329
   XY=              1.1458   XZ=             -0.0180   YZ=             -0.0015

 Normal termination of Gaussian 16 at Fri Sep 22 16:32:04 2023.
