 Gaussian 16, Revision A.03,
 Gaussian 16:  ES64L-G16RevA.03 25-Dec-2016

 ----------------
 # 6-31g(d) wb97x
 ----------------

 ----------------------
 tmpdir/M2_conf_1_1.gjf
 ----------------------
 Symbolic Z-matrix:
 Charge = -1 Multiplicity = 1

                         Standard orientation:
 ---------------------------------------------------------------------
 Center     Atomic      Atomic             Coordinates (Angstroms)
 Number     Number       Type             X           Y           Z
 ---------------------------------------------------------------------
      1          6           0       -0.000173    0.302930   -0.000786
      2          8           0       -1.146892   -0.200348    0.000205
      3          8           0        1.143448   -0.205382    0.000201
      4          1           0        0.028592    1.428262    0.001462
 ---------------------------------------------------------------------

 SCF Done:  E(RwB97X) =  -189.129501913     A.U. after   15 cycles

 The electronic state is 1-A.
 Alpha  occ. eigenvalues --  -18.91170 -18.91039 -10.11415  -0.89922  -0.81569
 Alpha  occ. eigenvalues --   -0.42062  -0.30549  -0.26694  -0.25727  -0.10651
 Alpha  occ. eigenvalues --   -0.10102  -0.08981
 Alpha virt. eigenvalues --    0.40308   0.46627   0.63929   0.65232   0.87557
 Alpha virt. eigenvalues --    0.97206   1.03723   1.08588   1.19013   1.21917
 Alpha virt. eigenvalues --    1.23814   1.32301   1.39814   1.41180   1.44326

 Mulliken charges:
               1
     1  C    0.318019
     2  O   -0.612161
     3  O   -0.612659
     4  H   -0.093199
 Sum of Mulliken charges =  -1.00000

 Dipole moment (field-independent basis, Debye):
    X=              0.0043    Y=              1.0422    Z=             -0.0022  Tot=              1.0422
 Quadrupole moment (field-independent basis, Debye-Ang):
   XX=            -26.9343   YY=            -19.5222   ZZ=            -17.5386
   XY=              0.0282   XZ=              0.0000   YZ=             -0.0011

 Normal termination of Gaussian 16 at Fri Sep 22 16:31:24 2023.
