 Gaussian 16, Revision A.03,
 Gaussian 16:  ES64L-G16RevA.03 25-Dec-2016

 ----------------
 # 6-31g(d) wb97x
 ----------------

 -----------------------
 tmpdir/M2_conf_0_72.gjf
 -----------------------
 Symbolic Z-matrix:
 Charge =  0 Multiplicity = 1

                         Standard orientation:
 ---------------------------------------------------------------------
 Center     Atomic      Atomic             Coordinates (Angstroms)
 Number     Number       Type             X           Y           Z
 ---------------------------------------------------------------------
      1          8           0        0.742912    0.123045    0.016825
      2          6           0       -0.682322   -0.019547    0.004840
      3          1           0       -0.941017   -0.670639   -0.851472
      4          1           0        1.264654   -0.699839   -0.060370
      5          1           0       -1.079443   -0.485223    0.928834
      6          1           0       -1.093558    0.988621   -0.180638
 ---------------------------------------------------------------------

 SCF Done:  E(RwB97X) =  -115.675851700     A.U. after   12 cycles

 The electronic state is 1-A.
 Alpha  occ. eigenvalues --  -19.20067 -10.31154  -1.12169  -0.80219  -0.60718
 Alpha  occ. eigenvalues --   -0.54146  -0.52843  -0.41917  -0.36409
 Alpha virt. eigenvalues --    0.17563   0.22677   0.26632   0.27343   0.30651
 Alpha virt. eigenvalues --    0.64334   0.66946   0.68898   0.90411   0.96327
 Alpha virt. eigenvalues --    0.98150   1.01659   1.06893   1.09548   1.12210

 Mulliken charges:
               1
     1  O   -0.646138
     2  C   -0.213984
     3  H    0.138515
     4  H    0.402542
     5  H    0.143972
     6  H    0.175092
 Sum of Mulliken charges =  -0.00000

 Dipole moment (field-independent basis, Debye):
    X=             -0.6624    Y=             -1.5352    Z=             -0.1954  Tot=              1.6834
 Quadrupole moment (field-independent basis, Debye-Ang):
   XX=            -11.9661   YY=            -12.1325   ZZ=            -13.5616
   XY=             -2.4007   XZ=             -0.2245   YZ=             -0.0012

 Normal termination of Gaussian 16 at Fri Sep 22 16:30:39 2023.
