 Gaussian 16, Revision A.03,
 Gaussian 16:  ES64L-G16RevA.03 25-Dec-2016

 ----------------
 # 6-31g(d) wb97x
 ----------------

 -----------------------
 tmpdir/M2_conf_0_29.gjf
 -----------------------
 Symbolic Z-matrix:
 Charge =  1 Multiplicity = 1

                         Standard orientation:
 ---------------------------------------------------------------------
 Center     Atomic      Atomic             Coordinates (Angstroms)
 Number     Number       Type             X           Y           Z
 ---------------------------------------------------------------------
      1          7           0        0.000837    0.002071   -0.003425
      2          1           0       -0.310472    0.954312   -0.247331
      3          1           0       -0.844963   -0.621236    0.084112
      4          1           0        0.503400    0.028393    0.887114
      5          1           0        0.646175   -0.375966   -0.699919
 ---------------------------------------------------------------------

 SCF Done:  E(RwB97X) =  -56.8752595904     A.U. after   10 cycles

 The electronic state is 1-A.
 Alpha  occ. eigenvalues --  -14.78939  -1.37259  -0.94043  -0.93161  -0.92757
 Alpha virt. eigenvalues --   -0.10314  -0.02671  -0.01725  -0.01450   0.44330
 Alpha virt. eigenvalues --    0.45502   0.46264   0.67992   0.69530   0.69801
 Alpha virt. eigenvalues --    0.72184   1.10163   1.35609   1.36095   2.07255

 Mulliken charges:
               1
     1  N   -0.882797
     2  H    0.471789
     3  H    0.472973
     4  H    0.467976
     5  H    0.470059
 Sum of Mulliken charges =   1.00000

 Dipole moment (field-independent basis, Debye):
    X=             -0.0228    Y=             -0.0285    Z=              0.0400  Tot=              0.0542
 Quadrupole moment (field-independent basis, Debye-Ang):
   XX=             -4.1886   YY=             -4.2930   ZZ=             -4.5329
   XY=             -0.0112   XZ=             -0.0027   YZ=              0.0019

 Normal termination of Gaussian 16 at Fri Sep 22 16:30:23 2023.
