 Gaussian 16, Revision A.03,
 Gaussian 16:  ES64L-G16RevA.03 25-Dec-2016

 ----------------
 # 6-31g(d) wb97x
 ----------------

 -----------------------
 tmpdir/M2_conf_2_64.gjf
 -----------------------
 Symbolic Z-matrix:
 Charge =  0 Multiplicity = 1

                         Standard orientation:
 ---------------------------------------------------------------------
 Center     Atomic      Atomic             Coordinates (Angstroms)
 Number     Number       Type             X           Y           Z
 ---------------------------------------------------------------------
      1          6           0       -1.147898   -0.126491    0.007861
      2          6           0        0.255900    0.402111   -0.007356
      3          1           0        0.358583    1.483912    0.019707
      4          1           0       -1.197301   -1.170675   -0.399168
      5          1           0       -1.906498    0.483836   -0.638221
      6          1           0       -1.540275   -0.164852    1.041420
      7          8           0        1.204685   -0.285743   -0.003346
 ---------------------------------------------------------------------

 SCF Done:  E(RwB97X) =  -153.778223530     A.U. after   15 cycles

 The electronic state is 1-A.
 Alpha  occ. eigenvalues --  -19.21657 -10.35988 -10.28584  -1.19440  -0.87290
 Alpha  occ. eigenvalues --   -0.70231  -0.59354  -0.55601  -0.54897  -0.48860
 Alpha  occ. eigenvalues --   -0.47384  -0.35642
 Alpha virt. eigenvalues --    0.08274   0.19927   0.22291   0.25111   0.25991
 Alpha virt. eigenvalues --    0.36096   0.38457   0.62968   0.64816   0.70168
 Alpha virt. eigenvalues --    0.72249   0.78698   0.85450   0.86264   0.94147

 Mulliken charges:
               1
     1  C   -0.567902
     2  C    0.251190
     3  H    0.118319
     4  H    0.192552
     5  H    0.162079
     6  H    0.195878
     7  O   -0.352116
 Sum of Mulliken charges =  -0.00000

 Dipole moment (field-independent basis, Debye):
    X=             -2.2342    Y=              1.0547    Z=              0.0877  Tot=              2.4722
 Quadrupole moment (field-independent basis, Debye-Ang):
   XX=            -20.4505   YY=            -17.8566   ZZ=            -17.5094
   XY=              1.1129   XZ=             -0.0727   YZ=             -0.0033

 Normal termination of Gaussian 16 at Fri Sep 22 16:32:54 2023.
