 Gaussian 16, Revision A.03,
 Gaussian 16:  ES64L-G16RevA.03 25-Dec-2016

 ----------------
 # 6-31g(d) wb97x
 ----------------

 -----------------------
 tmpdir/M2_conf_2_30.gjf
 -----------------------
 Symbolic Z-matrix:
 Charge =  1 Multiplicity = 1

                         Standard orientation:
 ---------------------------------------------------------------------
 Center     Atomic      Atomic             Coordinates (Angstroms)
 Number     Number       Type             X           Y           Z
 ---------------------------------------------------------------------
      1          7           0       -0.000242    0.002061    0.005502
      2          1           0        0.608218   -0.516085   -0.694494
      3          1           0       -0.131785    0.999998   -0.308126
      4          1           0       -0.962983   -0.474765    0.061265
      5          1           0        0.488242   -0.023576    0.902839
 ---------------------------------------------------------------------

 SCF Done:  E(RwB97X) =  -56.8726523154     A.U. after   11 cycles

 The electronic state is 1-A.
 Alpha  occ. eigenvalues --  -14.79236  -1.36008  -0.93202  -0.92067  -0.91608
 Alpha virt. eigenvalues --   -0.11000  -0.03540  -0.02903  -0.01538   0.45139
 Alpha virt. eigenvalues --    0.46286   0.47201   0.66822   0.67655   0.68354
 Alpha virt. eigenvalues --    0.70995   1.09202   1.36641   1.37103   2.04201

 Mulliken charges:
               1
     1  N   -0.889403
     2  H    0.471105
     3  H    0.472753
     4  H    0.475454
     5  H    0.470090
 Sum of Mulliken charges =   1.00000

 Dipole moment (field-independent basis, Debye):
    X=             -0.0129    Y=             -0.0298    Z=             -0.0773  Tot=              0.0839
 Quadrupole moment (field-independent basis, Debye-Ang):
   XX=             -4.1164   YY=             -4.2721   ZZ=             -4.5028
   XY=              0.0001   XZ=              0.0174   YZ=             -0.0056

 Normal termination of Gaussian 16 at Fri Sep 22 16:32:24 2023.
