 Gaussian 16, Revision A.03,
 Gaussian 16:  ES64L-G16RevA.03 25-Dec-2016

 ----------------
 # 6-31g(d) wb97x
 ----------------

 -----------------------
 tmpdir/M2_conf_0_37.gjf
 -----------------------
 Symbolic Z-matrix:
 Charge =  1 Multiplicity = 1

                         Standard orientation:
 ---------------------------------------------------------------------
 Center     Atomic      Atomic             Coordinates (Angstroms)
 Number     Number       Type             X           Y           Z
 ---------------------------------------------------------------------
      1          1           0        0.167832   -0.613917   -0.804075
      2          7           0        0.002943   -0.004389    0.000667
      3          1           0        0.401839   -0.432160    0.838751
      4          1           0        0.465026    0.929492   -0.160249
      5          1           0       -1.055299    0.147308    0.120901
 ---------------------------------------------------------------------

 SCF Done:  E(RwB97X) =  -56.8738091533     A.U. after   10 cycles

 The electronic state is 1-A.
 Alpha  occ. eigenvalues --  -14.79092  -1.36601  -0.93444  -0.92906  -0.91977
 Alpha virt. eigenvalues --   -0.10719  -0.03486  -0.02129  -0.01303   0.45078
 Alpha virt. eigenvalues --    0.45779   0.46534   0.66746   0.68160   0.70029
 Alpha virt. eigenvalues --    0.71627   1.09769   1.36168   1.36412   2.04561

 Mulliken charges:
               1
     1  H    0.469740
     2  N   -0.886130
     3  H    0.470004
     4  H    0.471859
     5  H    0.474527
 Sum of Mulliken charges =   1.00000

 Dipole moment (field-independent basis, Debye):
    X=             -0.0527    Y=              0.0666    Z=             -0.0074  Tot=              0.0853
 Quadrupole moment (field-independent basis, Debye-Ang):
   XX=             -4.1635   YY=             -4.3258   ZZ=             -4.4574
   XY=             -0.0060   XZ=              0.0071   YZ=              0.0024

 Normal termination of Gaussian 16 at Fri Sep 22 16:30:26 2023.
