 Gaussian 16, Revision A.03,
 Gaussian 16:  ES64L-G16RevA.03 25-Dec-2016

 ----------------
 # 6-31g(d) wb97x
 ----------------

 -----------------------
 tmpdir/M2_conf_2_80.gjf
 -----------------------
 Symbolic Z-matrix:
 Charge =  0 Multiplicity = 1

                         Standard orientation:
 ---------------------------------------------------------------------
 Center     Atomic      Atomic             Coordinates (Angstroms)
 Number     Number       Type             X           Y           Z
 ---------------------------------------------------------------------
      1          6           0       -0.760519    0.003434   -0.007762
      2          6           0        0.770358   -0.015486   -0.003404
      3          1           0        1.130810    0.143526    1.019450
      4          1           0       -1.233468   -0.874106    0.616300
      5          1           0       -1.189436   -0.071207   -1.022835
      6          1           0       -1.093420    0.956839    0.444253
      7          1           0        1.216333   -0.940293   -0.413523
      8          1           0        1.110146    0.857549   -0.576650
 ---------------------------------------------------------------------

 SCF Done:  E(RwB97X) =  -79.7965580557     A.U. after   12 cycles

 The electronic state is 1-A.
 Alpha  occ. eigenvalues --  -10.26571 -10.25790  -0.87657  -0.72857  -0.54376
 Alpha  occ. eigenvalues --   -0.53461  -0.46504  -0.44370  -0.43272
 Alpha virt. eigenvalues --    0.19500   0.24464   0.25511   0.25879   0.28089
 Alpha virt. eigenvalues --    0.28842   0.33634   0.61776   0.64956   0.66072
 Alpha virt. eigenvalues --    0.74515   0.75235   0.78377   0.97076   0.99474

 Mulliken charges:
               1
     1  C   -0.458432
     2  C   -0.462882
     3  H    0.157786
     4  H    0.136110
     5  H    0.157719
     6  H    0.155529
     7  H    0.158363
     8  H    0.155807
 Sum of Mulliken charges =   0.00000

 Dipole moment (field-independent basis, Debye):
    X=              0.0431    Y=              0.0897    Z=             -0.0146  Tot=              0.1006
 Quadrupole moment (field-independent basis, Debye-Ang):
   XX=            -15.4205   YY=            -14.6741   ZZ=            -14.8266
   XY=             -0.0285   XZ=              0.0719   YZ=              0.0888

 Normal termination of Gaussian 16 at Fri Sep 22 16:33:10 2023.
