 Gaussian 16, Revision A.03,
 Gaussian 16:  ES64L-G16RevA.03 25-Dec-2016

 ----------------
 # 6-31g(d) wb97x
 ----------------

 ------------------------
 tmpdir/M2_conf_1_107.gjf
 ------------------------
 Symbolic Z-matrix:
 Charge =  0 Multiplicity = 1

                         Standard orientation:
 ---------------------------------------------------------------------
 Center     Atomic      Atomic             Coordinates (Angstroms)
 Number     Number       Type             X           Y           Z
 ---------------------------------------------------------------------
      1          1           0        0.037141    0.751054   -0.789665
      2          6           0       -0.004382   -0.009454   -0.001833
      3          1           0        0.173828    0.511119    0.947310
      4          1           0        0.820551   -0.727767   -0.154895
      5          1           0       -1.005231   -0.477681    0.008246
 ---------------------------------------------------------------------

 SCF Done:  E(RwB97X) =  -40.4988079862     A.U. after   11 cycles

 The electronic state is 1-A.
 Alpha  occ. eigenvalues --  -10.25209  -0.81567  -0.49988  -0.49133  -0.48939
 Alpha virt. eigenvalues --    0.21436   0.27147   0.27312   0.27489   0.63875
 Alpha virt. eigenvalues --    0.64068   0.64918   1.00735   1.01176   1.01696
 Alpha virt. eigenvalues --    1.06343   1.20680   1.75853   1.76041   2.32530

 Mulliken charges:
               1
     1  H    0.165986
     2  C   -0.664800
     3  H    0.165362
     4  H    0.166184
     5  H    0.167268
 Sum of Mulliken charges =  -0.00000

 Dipole moment (field-independent basis, Debye):
    X=              0.0172    Y=              0.0449    Z=              0.0073  Tot=              0.0486
 Quadrupole moment (field-independent basis, Debye-Ang):
   XX=             -8.1173   YY=             -8.3166   ZZ=             -8.3802
   XY=              0.0040   XZ=             -0.0004   YZ=             -0.0025

 Normal termination of Gaussian 16 at Fri Sep 22 16:32:14 2023.
