 Gaussian 16, Revision A.03,
 Gaussian 16:  ES64L-G16RevA.03 25-Dec-2016

 ----------------
 # 6-31g(d) wb97x
 ----------------

 -----------------------
 tmpdir/M2_conf_1_92.gjf
 -----------------------
 Symbolic Z-matrix:
 Charge =  0 Multiplicity = 1

                         Standard orientation:
 ---------------------------------------------------------------------
 Center     Atomic      Atomic             Coordinates (Angstroms)
 Number     Number       Type             X           Y           Z
 ---------------------------------------------------------------------
      1          6           0       -0.002900   -0.007031   -0.005515
      2          1           0       -1.009336   -0.367265   -0.265819
      3          1           0        0.800876   -0.590457   -0.459895
      4          1           0        0.102775    1.034366   -0.321157
      5          1           0        0.123087   -0.034458    1.079959
 ---------------------------------------------------------------------

 SCF Done:  E(RwB97X) =  -40.4991082364     A.U. after   11 cycles

 The electronic state is 1-A.
 Alpha  occ. eigenvalues --  -10.24949  -0.81737  -0.50100  -0.49156  -0.49126
 Alpha virt. eigenvalues --    0.21603   0.27296   0.27477   0.27747   0.63814
 Alpha virt. eigenvalues --    0.63872   0.64641   1.01193   1.01568   1.02320
 Alpha virt. eigenvalues --    1.07049   1.20813   1.75695   1.75989   2.33642

 Mulliken charges:
               1
     1  C   -0.667213
     2  H    0.167226
     3  H    0.168374
     4  H    0.165813
     5  H    0.165800
 Sum of Mulliken charges =  -0.00000

 Dipole moment (field-independent basis, Debye):
    X=              0.0175    Y=              0.0283    Z=              0.0224  Tot=              0.0401
 Quadrupole moment (field-independent basis, Debye-Ang):
   XX=             -8.1154   YY=             -8.3212   ZZ=             -8.3293
   XY=             -0.0057   XZ=             -0.0046   YZ=              0.0064

 Normal termination of Gaussian 16 at Fri Sep 22 16:32:03 2023.
