 Gaussian 16, Revision A.03,
 Gaussian 16:  ES64L-G16RevA.03 25-Dec-2016

 ----------------
 # 6-31g(d) wb97x
 ----------------

 ----------------------
 tmpdir/M2_conf_2_4.gjf
 ----------------------
 Symbolic Z-matrix:
 Charge =  0 Multiplicity = 1

                         Standard orientation:
 ---------------------------------------------------------------------
 Center     Atomic      Atomic             Coordinates (Angstroms)
 Number     Number       Type             X           Y           Z
 ---------------------------------------------------------------------
      1          8           0       -1.732227   -0.198459    0.000366
      2          6           0       -0.659812    0.446658   -0.000237
      3          6           0        0.664036   -0.369080   -0.005472
      4          1           0       -0.459957    1.445748    0.005249
      5          1           0        0.537247   -1.446365    0.013961
      6          8           0        1.719397    0.140353    0.001515
 ---------------------------------------------------------------------

 SCF Done:  E(RwB97X) =  -227.744707420     A.U. after   16 cycles

 The electronic state is 1-A.
 Alpha  occ. eigenvalues --  -19.26293 -19.25575 -10.38969 -10.38156  -1.22883
 Alpha  occ. eigenvalues --   -1.18562  -0.83641  -0.73564  -0.61532  -0.60211
 Alpha  occ. eigenvalues --   -0.56921  -0.55960  -0.49606  -0.43889  -0.36375
 Alpha virt. eigenvalues --   -0.01613   0.12235   0.22162   0.24882   0.28698
 Alpha virt. eigenvalues --    0.37135   0.38586   0.59721   0.66847   0.67634
 Alpha virt. eigenvalues --    0.69848   0.72982   0.82896   0.89560   0.90506

 Mulliken charges:
               1
     1  O   -0.370464
     2  C    0.182639
     3  C    0.166072
     4  H    0.189470
     5  H    0.156763
     6  O   -0.324480
 Sum of Mulliken charges =  -0.00000

 Dipole moment (field-independent basis, Debye):
    X=              0.1217    Y=              0.3843    Z=             -0.0031  Tot=              0.4031
 Quadrupole moment (field-independent basis, Debye-Ang):
   XX=            -30.6637   YY=            -20.0137   ZZ=            -20.8092
   XY=             -2.1505   XZ=             -0.0050   YZ=             -0.0050

 Normal termination of Gaussian 16 at Fri Sep 22 16:32:33 2023.
