 Gaussian 16, Revision A.03,
 Gaussian 16:  ES64L-G16RevA.03 25-Dec-2016

 ----------------
 # 6-31g(d) wb97x
 ----------------

 -----------------------
 tmpdir/M2_conf_2_19.gjf
 -----------------------
 Symbolic Z-matrix:
 Charge =  0 Multiplicity = 1

                         Standard orientation:
 ---------------------------------------------------------------------
 Center     Atomic      Atomic             Coordinates (Angstroms)
 Number     Number       Type             X           Y           Z
 ---------------------------------------------------------------------
      1          1           0        0.344815    1.012283   -0.217862
      2          6           0       -0.008210   -0.003594   -0.010907
      3          1           0        0.187666   -0.188305    1.056565
      4          1           0        0.608761   -0.699759   -0.569214
      5          1           0       -1.091981   -0.102655   -0.204049
 ---------------------------------------------------------------------

 SCF Done:  E(RwB97X) =  -40.4985512089     A.U. after   11 cycles

 The electronic state is 1-A.
 Alpha  occ. eigenvalues --  -10.25033  -0.81698  -0.50264  -0.49288  -0.48715
 Alpha virt. eigenvalues --    0.21534   0.27078   0.27398   0.27835   0.63713
 Alpha virt. eigenvalues --    0.63946   0.64866   1.00635   1.01409   1.02360
 Alpha virt. eigenvalues --    1.07081   1.20886   1.75754   1.76009   2.32765

 Mulliken charges:
               1
     1  H    0.166119
     2  C   -0.666898
     3  H    0.162911
     4  H    0.170259
     5  H    0.167609
 Sum of Mulliken charges =   0.00000

 Dipole moment (field-independent basis, Debye):
    X=              0.0431    Y=              0.0081    Z=              0.0327  Tot=              0.0547
 Quadrupole moment (field-independent basis, Debye-Ang):
   XX=             -8.0773   YY=             -8.3140   ZZ=             -8.3923
   XY=             -0.0120   XZ=             -0.0139   YZ=              0.0191

 Normal termination of Gaussian 16 at Fri Sep 22 16:32:29 2023.
