 Gaussian 16, Revision A.03,
 Gaussian 16:  ES64L-G16RevA.03 25-Dec-2016

 ----------------
 # 6-31g(d) wb97x
 ----------------

 ------------------------
 tmpdir/M2_conf_0_101.gjf
 ------------------------
 Symbolic Z-matrix:
 Charge =  0 Multiplicity = 1

                         Standard orientation:
 ---------------------------------------------------------------------
 Center     Atomic      Atomic             Coordinates (Angstroms)
 Number     Number       Type             X           Y           Z
 ---------------------------------------------------------------------
      1          6           0       -0.004313   -0.009008   -0.002647
      2          1           0        0.172835    0.454961    0.976840
      3          1           0        0.824308   -0.712874   -0.197245
      4          1           0       -1.002536   -0.482690   -0.016995
      5          1           0        0.031268    0.794651   -0.746720
 ---------------------------------------------------------------------

 SCF Done:  E(RwB97X) =  -40.4988228189     A.U. after   11 cycles

 The electronic state is 1-A.
 Alpha  occ. eigenvalues --  -10.25221  -0.81557  -0.49988  -0.49123  -0.48936
 Alpha virt. eigenvalues --    0.21431   0.27112   0.27318   0.27491   0.63913
 Alpha virt. eigenvalues --    0.64054   0.64918   1.00684   1.01190   1.01698
 Alpha virt. eigenvalues --    1.06271   1.20658   1.75845   1.76066   2.32541

 Mulliken charges:
               1
     1  C   -0.664649
     2  H    0.165104
     3  H    0.166176
     4  H    0.167250
     5  H    0.166119
 Sum of Mulliken charges =  -0.00000

 Dipole moment (field-independent basis, Debye):
    X=              0.0168    Y=              0.0426    Z=              0.0098  Tot=              0.0468
 Quadrupole moment (field-independent basis, Debye-Ang):
   XX=             -8.1190   YY=             -8.3230   ZZ=             -8.3743
   XY=              0.0038   XZ=             -0.0005   YZ=             -0.0038

 Normal termination of Gaussian 16 at Fri Sep 22 16:31:02 2023.
