 Gaussian 16, Revision A.03,
 Gaussian 16:  ES64L-G16RevA.03 25-Dec-2016

 ----------------
 # 6-31g(d) wb97x
 ----------------

 -----------------------
 tmpdir/M2_conf_2_57.gjf
 -----------------------
 Symbolic Z-matrix:
 Charge =  0 Multiplicity = 1

                         Standard orientation:
 ---------------------------------------------------------------------
 Center     Atomic      Atomic             Coordinates (Angstroms)
 Number     Number       Type             X           Y           Z
 ---------------------------------------------------------------------
      1          6           0        0.778144   -0.009334   -0.011434
      2          6           0       -0.771310   -0.018527    0.007755
      3          1           0       -1.119549    0.081548   -1.037421
      4          1           0        1.132455   -0.956437   -0.463845
      5          1           0        1.062485    0.982149   -0.533402
      6          1           0        1.111406    0.032871    1.036019
      7          1           0       -1.157395   -0.932820    0.448429
      8          1           0       -1.070412    0.959853    0.572288
 ---------------------------------------------------------------------

 SCF Done:  E(RwB97X) =  -79.7898152009     A.U. after   12 cycles

 The electronic state is 1-A.
 Alpha  occ. eigenvalues --  -10.26414 -10.26294  -0.87514  -0.72066  -0.55072
 Alpha  occ. eigenvalues --   -0.53733  -0.44875  -0.44583  -0.43239
 Alpha virt. eigenvalues --    0.18480   0.24860   0.25776   0.25982   0.27166
 Alpha virt. eigenvalues --    0.28622   0.32051   0.61810   0.65847   0.68218
 Alpha virt. eigenvalues --    0.72239   0.74670   0.77327   0.95205   0.98492

 Mulliken charges:
               1
     1  C   -0.456231
     2  C   -0.458181
     3  H    0.154997
     4  H    0.157380
     5  H    0.145409
     6  H    0.156959
     7  H    0.162294
     8  H    0.137374
 Sum of Mulliken charges =   0.00000

 Dipole moment (field-independent basis, Debye):
    X=             -0.0084    Y=             -0.0558    Z=              0.0130  Tot=              0.0579
 Quadrupole moment (field-independent basis, Debye-Ang):
   XX=            -16.1353   YY=            -14.2995   ZZ=            -14.8860
   XY=              0.0509   XZ=              0.1466   YZ=             -0.0484

 Normal termination of Gaussian 16 at Fri Sep 22 16:32:45 2023.
