 Gaussian 16, Revision A.03,
 Gaussian 16:  ES64L-G16RevA.03 25-Dec-2016

 ----------------
 # 6-31g(d) wb97x
 ----------------

 -----------------------
 tmpdir/M2_conf_0_83.gjf
 -----------------------
 Symbolic Z-matrix:
 Charge =  0 Multiplicity = 1

                         Standard orientation:
 ---------------------------------------------------------------------
 Center     Atomic      Atomic             Coordinates (Angstroms)
 Number     Number       Type             X           Y           Z
 ---------------------------------------------------------------------
      1          6           0       -0.765119   -0.005189    0.000134
      2          6           0        0.762279   -0.005098   -0.002689
      3          1           0        1.142569    0.346281    0.965903
      4          1           0       -1.148317    1.017774    0.055981
      5          1           0       -1.169316   -0.558956    0.854711
      6          1           0       -1.159164   -0.457150   -0.915381
      7          1           0        1.219297   -0.995583   -0.198671
      8          1           0        1.131970    0.709359   -0.747211
 ---------------------------------------------------------------------

 SCF Done:  E(RwB97X) =  -79.8007622315     A.U. after   12 cycles

 The electronic state is 1-A.
 Alpha  occ. eigenvalues --  -10.25630 -10.25473  -0.87870  -0.73411  -0.54177
 Alpha  occ. eigenvalues --   -0.54010  -0.46736  -0.44190  -0.43920
 Alpha virt. eigenvalues --    0.19994   0.25318   0.25730   0.25936   0.29076
 Alpha virt. eigenvalues --    0.29479   0.34018   0.61782   0.64851   0.64954
 Alpha virt. eigenvalues --    0.74079   0.75479   0.78885   0.99896   1.00003

 Mulliken charges:
               1
     1  C   -0.468138
     2  C   -0.468928
     3  H    0.154849
     4  H    0.157083
     5  H    0.156662
     6  H    0.156908
     7  H    0.155511
     8  H    0.156052
 Sum of Mulliken charges =  -0.00000

 Dipole moment (field-independent basis, Debye):
    X=             -0.0064    Y=              0.0360    Z=              0.0058  Tot=              0.0371
 Quadrupole moment (field-independent basis, Debye-Ang):
   XX=            -15.2459   YY=            -14.6484   ZZ=            -14.7479
   XY=             -0.0492   XZ=             -0.0023   YZ=             -0.0046

 Normal termination of Gaussian 16 at Fri Sep 22 16:31:00 2023.
