 Gaussian 16, Revision A.03,
 Gaussian 16:  ES64L-G16RevA.03 25-Dec-2016

 ----------------
 # 6-31g(d) wb97x
 ----------------

 -----------------------
 tmpdir/M2_conf_0_68.gjf
 -----------------------
 Symbolic Z-matrix:
 Charge =  0 Multiplicity = 1

                         Standard orientation:
 ---------------------------------------------------------------------
 Center     Atomic      Atomic             Coordinates (Angstroms)
 Number     Number       Type             X           Y           Z
 ---------------------------------------------------------------------
      1          6           0        0.752497    0.006214   -0.002824
      2          6           0       -0.750277   -0.001131    0.002017
      3          1           0        1.086556   -1.024393   -0.460497
      4          1           0        1.178849    0.877516   -0.538908
      5          1           0        1.106408    0.041040    1.044864
      6          1           0       -1.188693   -0.804468    0.621274
      7          1           0       -1.107550   -0.096455   -1.029516
      8          1           0       -1.088892    0.976265    0.367628
 ---------------------------------------------------------------------

 SCF Done:  E(RwB97X) =  -79.7946195716     A.U. after   12 cycles

 The electronic state is 1-A.
 Alpha  occ. eigenvalues --  -10.26398 -10.25416  -0.88308  -0.72366  -0.54743
 Alpha  occ. eigenvalues --   -0.54180  -0.46763  -0.43934  -0.42952
 Alpha virt. eigenvalues --    0.19150   0.24968   0.25108   0.26101   0.27724
 Alpha virt. eigenvalues --    0.29079   0.34276   0.60821   0.65543   0.67180
 Alpha virt. eigenvalues --    0.72745   0.75837   0.80103   0.96519   0.99098

 Mulliken charges:
               1
     1  C   -0.453954
     2  C   -0.460370
     3  H    0.135214
     4  H    0.158954
     5  H    0.154416
     6  H    0.157474
     7  H    0.155505
     8  H    0.152762
 Sum of Mulliken charges =   0.00000

 Dipole moment (field-independent basis, Debye):
    X=             -0.0514    Y=              0.0636    Z=              0.0314  Tot=              0.0876
 Quadrupole moment (field-independent basis, Debye-Ang):
   XX=            -15.7461   YY=            -14.5473   ZZ=            -14.7816
   XY=              0.2623   XZ=             -0.0077   YZ=             -0.0897

 Normal termination of Gaussian 16 at Fri Sep 22 16:30:52 2023.
