 Gaussian 16, Revision A.03,
 Gaussian 16:  ES64L-G16RevA.03 25-Dec-2016

 ----------------
 # 6-31g(d) wb97x
 ----------------

 -----------------------
 tmpdir/M2_conf_0_28.gjf
 -----------------------
 Symbolic Z-matrix:
 Charge =  0 Multiplicity = 1

                         Standard orientation:
 ---------------------------------------------------------------------
 Center     Atomic      Atomic             Coordinates (Angstroms)
 Number     Number       Type             X           Y           Z
 ---------------------------------------------------------------------
      1          6           0       -0.752386   -0.014987    0.019953
      2          6           0        0.777120    0.012310   -0.021100
      3          1           0        0.943898    0.933750   -0.590422
      4          1           0       -1.301535    0.911569    0.439800
      5          1           0       -1.137422   -0.127550   -1.027673
      6          1           0       -1.078919   -0.904442    0.578749
      7          1           0        1.187650   -0.916597   -0.457319
      8          1           0        1.237923    0.119332    1.063743
 ---------------------------------------------------------------------

 SCF Done:  E(RwB97X) =  -79.7881879558     A.U. after   12 cycles

 The electronic state is 1-A.
 Alpha  occ. eigenvalues --  -10.26746 -10.26415  -0.87672  -0.72248  -0.55103
 Alpha  occ. eigenvalues --   -0.52927  -0.46847  -0.43476  -0.42817
 Alpha virt. eigenvalues --    0.19037   0.23840   0.23959   0.27022   0.27303
 Alpha virt. eigenvalues --    0.28560   0.33200   0.61628   0.65565   0.67586
 Alpha virt. eigenvalues --    0.72432   0.76982   0.78521   0.96481   0.97955

 Mulliken charges:
               1
     1  C   -0.463875
     2  C   -0.449191
     3  H    0.161636
     4  H    0.147409
     5  H    0.149359
     6  H    0.154830
     7  H    0.163637
     8  H    0.136193
 Sum of Mulliken charges =   0.00000

 Dipole moment (field-independent basis, Debye):
    X=             -0.0386    Y=             -0.0397    Z=             -0.0790  Tot=              0.0965
 Quadrupole moment (field-independent basis, Debye-Ang):
   XX=            -15.6634   YY=            -14.5912   ZZ=            -14.9551
   XY=             -0.4069   XZ=              0.1007   YZ=             -0.0485

 Normal termination of Gaussian 16 at Fri Sep 22 16:30:20 2023.
