 Gaussian 16, Revision A.03,
 Gaussian 16:  ES64L-G16RevA.03 25-Dec-2016

 ----------------
 # 6-31g(d) wb97x
 ----------------

 -----------------------
 tmpdir/M2_conf_1_65.gjf
 -----------------------
 Symbolic Z-matrix:
 Charge =  0 Multiplicity = 1

                         Standard orientation:
 ---------------------------------------------------------------------
 Center     Atomic      Atomic             Coordinates (Angstroms)
 Number     Number       Type             X           Y           Z
 ---------------------------------------------------------------------
      1          8           0        0.748653    0.122319    0.016642
      2          6           0       -0.686956   -0.019056    0.005055
      3          1           0        1.269085   -0.701135   -0.063249
      4          1           0       -1.084216   -0.486786    0.927954
      5          1           0       -1.096762    0.990272   -0.177255
      6          1           0       -0.955597   -0.666570   -0.850914
 ---------------------------------------------------------------------

 SCF Done:  E(RwB97X) =  -115.675617040     A.U. after   12 cycles

 The electronic state is 1-A.
 Alpha  occ. eigenvalues --  -19.20084 -10.31248  -1.11867  -0.80274  -0.60563
 Alpha  occ. eigenvalues --   -0.54031  -0.52711  -0.41982  -0.36454
 Alpha virt. eigenvalues --    0.17553   0.22574   0.26533   0.27308   0.30375
 Alpha virt. eigenvalues --    0.64031   0.66871   0.68830   0.90568   0.96299
 Alpha virt. eigenvalues --    0.98098   1.01574   1.06974   1.09570   1.12235

 Mulliken charges:
               1
     1  O   -0.648359
     2  C   -0.215274
     3  H    0.402368
     4  H    0.145393
     5  H    0.175987
     6  H    0.139884
 Sum of Mulliken charges =  -0.00000

 Dipole moment (field-independent basis, Debye):
    X=             -0.6986    Y=             -1.5370    Z=             -0.1997  Tot=              1.7001
 Quadrupole moment (field-independent basis, Debye-Ang):
   XX=            -11.9320   YY=            -12.1302   ZZ=            -13.5672
   XY=             -2.3971   XZ=             -0.2262   YZ=              0.0019

 Normal termination of Gaussian 16 at Fri Sep 22 16:31:55 2023.
