 Gaussian 16, Revision A.03,
 Gaussian 16:  ES64L-G16RevA.03 25-Dec-2016

 ----------------
 # 6-31g(d) wb97x
 ----------------

 -----------------------
 tmpdir/M2_conf_1_43.gjf
 -----------------------
 Symbolic Z-matrix:
 Charge =  0 Multiplicity = 1

                         Standard orientation:
 ---------------------------------------------------------------------
 Center     Atomic      Atomic             Coordinates (Angstroms)
 Number     Number       Type             X           Y           Z
 ---------------------------------------------------------------------
      1          6           0       -0.770074    0.003410   -0.016486
      2          6           0        0.759905   -0.002138    0.014333
      3          1           0        1.134915    0.498471    0.919193
      4          1           0       -1.173330    1.030028    0.055161
      5          1           0       -1.223967   -0.611469    0.887159
      6          1           0       -1.116658   -0.505110   -0.923280
      7          1           0        1.301673   -1.019652   -0.072175
      8          1           0        1.138378    0.600100   -0.853140
 ---------------------------------------------------------------------

 SCF Done:  E(RwB97X) =  -79.7929606239     A.U. after   12 cycles

 The electronic state is 1-A.
 Alpha  occ. eigenvalues --  -10.26778 -10.26559  -0.87410  -0.72719  -0.54253
 Alpha  occ. eigenvalues --   -0.52841  -0.47015  -0.44213  -0.42723
 Alpha virt. eigenvalues --    0.19400   0.23837   0.24072   0.26094   0.27608
 Alpha virt. eigenvalues --    0.28964   0.33766   0.61848   0.65312   0.65974
 Alpha virt. eigenvalues --    0.73980   0.77127   0.78604   0.96491   0.98200

 Mulliken charges:
               1
     1  C   -0.453578
     2  C   -0.460465
     3  H    0.158453
     4  H    0.161823
     5  H    0.134311
     6  H    0.161823
     7  H    0.147664
     8  H    0.149970
 Sum of Mulliken charges =  -0.00000

 Dipole moment (field-independent basis, Debye):
    X=              0.0163    Y=              0.0757    Z=             -0.0524  Tot=              0.0935
 Quadrupole moment (field-independent basis, Debye-Ang):
   XX=            -15.3230   YY=            -14.7652   ZZ=            -14.9362
   XY=             -0.1480   XZ=             -0.0010   YZ=              0.1333

 Normal termination of Gaussian 16 at Fri Sep 22 16:31:47 2023.
