 Gaussian 16, Revision A.03,
 Gaussian 16:  ES64L-G16RevA.03 25-Dec-2016

 ----------------
 # 6-31g(d) wb97x
 ----------------

 -----------------------
 tmpdir/M2_conf_0_38.gjf
 -----------------------
 Symbolic Z-matrix:
 Charge =  0 Multiplicity = 1

                         Standard orientation:
 ---------------------------------------------------------------------
 Center     Atomic      Atomic             Coordinates (Angstroms)
 Number     Number       Type             X           Y           Z
 ---------------------------------------------------------------------
      1          6           0       -0.702261   -0.019981    0.003124
      2          7           0        0.722012   -0.032477   -0.024713
      3          1           0       -1.240033   -0.862760   -0.474109
      4          1           0       -0.992030    0.930797   -0.516968
      5          1           0       -1.035993    0.071346    1.047290
      6          1           0        1.363635   -0.713088    0.060034
      7          1           0        1.063909    0.920931    0.038001
 ---------------------------------------------------------------------

 SCF Done:  E(RwB97X) =  -95.8015021547     A.U. after   12 cycles

 The electronic state is 1-A.
 Alpha  occ. eigenvalues --  -14.36270 -10.28241  -0.99311  -0.77864  -0.61397
 Alpha  occ. eigenvalues --   -0.53570  -0.51660  -0.46562  -0.29884
 Alpha virt. eigenvalues --    0.19353   0.24145   0.25024   0.28304   0.31371
 Alpha virt. eigenvalues --    0.35954   0.65165   0.68942   0.70527   0.85930
 Alpha virt. eigenvalues --    0.87711   0.92524   0.99003   0.99781   1.07270

 Mulliken charges:
               1
     1  C   -0.294966
     2  N   -0.786087
     3  H    0.156274
     4  H    0.144906
     5  H    0.137371
     6  H    0.330061
     7  H    0.312441
 Sum of Mulliken charges =   0.00000

 Dipole moment (field-independent basis, Debye):
    X=              0.2905    Y=              0.1932    Z=              0.2273  Tot=              0.4164
 Quadrupole moment (field-independent basis, Debye-Ang):
   XX=            -12.4713   YY=            -12.0562   ZZ=            -15.5251
   XY=              0.0036   XZ=              0.6408   YZ=             -0.0094

 Normal termination of Gaussian 16 at Fri Sep 22 16:30:31 2023.
