 Gaussian 16, Revision A.03,
 Gaussian 16:  ES64L-G16RevA.03 25-Dec-2016

 ----------------
 # 6-31g(d) wb97x
 ----------------

 -----------------------
 tmpdir/M2_conf_2_92.gjf
 -----------------------
 Symbolic Z-matrix:
 Charge =  0 Multiplicity = 1

                         Standard orientation:
 ---------------------------------------------------------------------
 Center     Atomic      Atomic             Coordinates (Angstroms)
 Number     Number       Type             X           Y           Z
 ---------------------------------------------------------------------
      1          6           0       -0.003102   -0.004280   -0.008332
      2          1           0       -0.981711   -0.243549   -0.433043
      3          1           0        0.834004   -0.324111   -0.632724
      4          1           0        0.071471    1.075516    0.145881
      5          1           0        0.094846   -0.482174    0.969881
 ---------------------------------------------------------------------

 SCF Done:  E(RwB97X) =  -40.4991600212     A.U. after   11 cycles

 The electronic state is 1-A.
 Alpha  occ. eigenvalues --  -10.24873  -0.81786  -0.50181  -0.49158  -0.49139
 Alpha virt. eigenvalues --    0.21653   0.27358   0.27477   0.27849   0.63792
 Alpha virt. eigenvalues --    0.63886   0.64492   1.01381   1.01575   1.02591
 Alpha virt. eigenvalues --    1.07224   1.20868   1.75661   1.75961   2.34219

 Mulliken charges:
               1
     1  C   -0.667950
     2  H    0.168690
     3  H    0.168151
     4  H    0.165561
     5  H    0.165548
 Sum of Mulliken charges =  -0.00000

 Dipole moment (field-independent basis, Debye):
    X=              0.0122    Y=              0.0157    Z=              0.0311  Tot=              0.0369
 Quadrupole moment (field-independent basis, Debye-Ang):
   XX=             -8.1130   YY=             -8.3215   ZZ=             -8.3176
   XY=              0.0004   XZ=             -0.0000   YZ=              0.0067

 Normal termination of Gaussian 16 at Fri Sep 22 16:33:06 2023.
