 Gaussian 16, Revision A.03,
 Gaussian 16:  ES64L-G16RevA.03 25-Dec-2016

 ----------------
 # 6-31g(d) wb97x
 ----------------

 -----------------------
 tmpdir/M2_conf_1_81.gjf
 -----------------------
 Symbolic Z-matrix:
 Charge =  0 Multiplicity = 1

                         Standard orientation:
 ---------------------------------------------------------------------
 Center     Atomic      Atomic             Coordinates (Angstroms)
 Number     Number       Type             X           Y           Z
 ---------------------------------------------------------------------
      1          6           0       -0.760706    0.003673   -0.008621
      2          6           0        0.770159   -0.015763   -0.002683
      3          1           0        1.121092    0.838749   -0.596756
      4          1           0       -1.234470   -0.856775    0.638197
      5          1           0       -1.188952   -0.097727   -1.021662
      6          1           0       -1.093505    0.968890    0.417680
      7          1           0        1.216015   -0.951326   -0.387774
      8          1           0        1.123099    0.170730    1.018141
 ---------------------------------------------------------------------

 SCF Done:  E(RwB97X) =  -79.7966140322     A.U. after   12 cycles

 The electronic state is 1-A.
 Alpha  occ. eigenvalues --  -10.26574 -10.25789  -0.87651  -0.72865  -0.54387
 Alpha  occ. eigenvalues --   -0.53432  -0.46503  -0.44375  -0.43281
 Alpha virt. eigenvalues --    0.19505   0.24419   0.25524   0.25906   0.28102
 Alpha virt. eigenvalues --    0.28836   0.33643   0.61784   0.65004   0.65990
 Alpha virt. eigenvalues --    0.74493   0.75298   0.78370   0.97069   0.99468

 Mulliken charges:
               1
     1  C   -0.458367
     2  C   -0.463028
     3  H    0.155904
     4  H    0.136342
     5  H    0.157614
     6  H    0.155547
     7  H    0.158321
     8  H    0.157668
 Sum of Mulliken charges =   0.00000

 Dipole moment (field-independent basis, Debye):
    X=              0.0433    Y=              0.0888    Z=             -0.0159  Tot=              0.1000
 Quadrupole moment (field-independent basis, Debye-Ang):
   XX=            -15.4140   YY=            -14.6750   ZZ=            -14.8285
   XY=             -0.0156   XZ=              0.0544   YZ=              0.0895

 Normal termination of Gaussian 16 at Fri Sep 22 16:31:57 2023.
