 Gaussian 16, Revision A.03,
 Gaussian 16:  ES64L-G16RevA.03 25-Dec-2016

 ----------------
 # 6-31g(d) wb97x
 ----------------

 -----------------------
 tmpdir/M2_conf_2_60.gjf
 -----------------------
 Symbolic Z-matrix:
 Charge =  0 Multiplicity = 1

                         Standard orientation:
 ---------------------------------------------------------------------
 Center     Atomic      Atomic             Coordinates (Angstroms)
 Number     Number       Type             X           Y           Z
 ---------------------------------------------------------------------
      1          8           0        0.738543   -0.125923    0.012026
      2          6           0       -0.676539    0.024930    0.012266
      3          1           0       -0.928844    0.947826   -0.542967
      4          1           0        1.268714    0.701980   -0.024960
      5          1           0       -1.058093   -0.833923   -0.600283
      6          1           0       -1.130892    0.041917    0.998401
 ---------------------------------------------------------------------

 SCF Done:  E(RwB97X) =  -115.674560264     A.U. after   13 cycles

 The electronic state is 1-A.
 Alpha  occ. eigenvalues --  -19.20164 -10.30982  -1.12357  -0.80170  -0.60858
 Alpha  occ. eigenvalues --   -0.54768  -0.52435  -0.41574  -0.36590
 Alpha virt. eigenvalues --    0.17214   0.22672   0.26058   0.28334   0.31217
 Alpha virt. eigenvalues --    0.64586   0.66802   0.68930   0.90792   0.96864
 Alpha virt. eigenvalues --    0.97775   1.01618   1.06204   1.09740   1.12486

 Mulliken charges:
               1
     1  O   -0.643571
     2  C   -0.213164
     3  H    0.136076
     4  H    0.403362
     5  H    0.163382
     6  H    0.153916
 Sum of Mulliken charges =  -0.00000

 Dipole moment (field-independent basis, Debye):
    X=             -0.6121    Y=              1.6113    Z=             -0.1154  Tot=              1.7275
 Quadrupole moment (field-independent basis, Debye-Ang):
   XX=            -11.9440   YY=            -12.2991   ZZ=            -13.4186
   XY=              2.3232   XZ=             -0.1344   YZ=              0.0240

 Normal termination of Gaussian 16 at Fri Sep 22 16:32:47 2023.
