 Gaussian 16, Revision A.03,
 Gaussian 16:  ES64L-G16RevA.03 25-Dec-2016

 ----------------
 # 6-31g(d) wb97x
 ----------------

 -----------------------
 tmpdir/M2_conf_0_39.gjf
 -----------------------
 Symbolic Z-matrix:
 Charge =  0 Multiplicity = 1

                         Standard orientation:
 ---------------------------------------------------------------------
 Center     Atomic      Atomic             Coordinates (Angstroms)
 Number     Number       Type             X           Y           Z
 ---------------------------------------------------------------------
      1          6           0        0.766108   -0.009359   -0.010689
      2          6           0       -0.760657   -0.018554    0.007394
      3          1           0        1.120721   -0.955608   -0.464656
      4          1           0        1.050658    0.983100   -0.530687
      5          1           0        1.098813    0.030932    1.037019
      6          1           0       -1.146912   -0.933600    0.446336
      7          1           0       -1.060124    0.958768    0.573574
      8          1           0       -1.095860    0.083883   -1.041812
 ---------------------------------------------------------------------

 SCF Done:  E(RwB97X) =  -79.7893624094     A.U. after   12 cycles

 The electronic state is 1-A.
 Alpha  occ. eigenvalues --  -10.26241 -10.26138  -0.88000  -0.71846  -0.55336
 Alpha  occ. eigenvalues --   -0.54037  -0.44994  -0.44473  -0.43119
 Alpha virt. eigenvalues --    0.18419   0.24830   0.25644   0.26144   0.27134
 Alpha virt. eigenvalues --    0.28637   0.32726   0.61119   0.66332   0.68635
 Alpha virt. eigenvalues --    0.71977   0.74473   0.78537   0.95177   0.98177

 Mulliken charges:
               1
     1  C   -0.454151
     2  C   -0.455607
     3  H    0.156466
     4  H    0.144520
     5  H    0.155968
     6  H    0.161726
     7  H    0.136760
     8  H    0.154318
 Sum of Mulliken charges =  -0.00000

 Dipole moment (field-independent basis, Debye):
    X=             -0.0074    Y=             -0.0580    Z=              0.0129  Tot=              0.0599
 Quadrupole moment (field-independent basis, Debye-Ang):
   XX=            -16.2210   YY=            -14.2887   ZZ=            -14.8606
   XY=              0.0528   XZ=              0.1264   YZ=             -0.0487

 Normal termination of Gaussian 16 at Fri Sep 22 16:30:28 2023.
