 Gaussian 16, Revision A.03,
 Gaussian 16:  ES64L-G16RevA.03 25-Dec-2016

 ----------------
 # 6-31g(d) wb97x
 ----------------

 -----------------------
 tmpdir/M2_conf_0_54.gjf
 -----------------------
 Symbolic Z-matrix:
 Charge =  0 Multiplicity = 1

                         Standard orientation:
 ---------------------------------------------------------------------
 Center     Atomic      Atomic             Coordinates (Angstroms)
 Number     Number       Type             X           Y           Z
 ---------------------------------------------------------------------
      1          6           0        0.016002   -0.011344   -0.008115
      2          1           0        0.249390    1.074175   -0.208150
      3          1           0       -0.167497   -0.108254    1.094321
      4          1           0        0.835505   -0.646231   -0.331396
      5          1           0       -1.013408   -0.251625   -0.506083
 ---------------------------------------------------------------------

 SCF Done:  E(RwB97X) =  -40.4940450160     A.U. after   11 cycles

 The electronic state is 1-A.
 Alpha  occ. eigenvalues --  -10.26319  -0.80869  -0.50475  -0.48565  -0.47709
 Alpha virt. eigenvalues --    0.20647   0.25381   0.26401   0.27720   0.64254
 Alpha virt. eigenvalues --    0.64738   0.66158   0.96857   0.99174   1.01683
 Alpha virt. eigenvalues --    1.03491   1.20030   1.76319   1.76600   2.27369

 Mulliken charges:
               1
     1  C   -0.652739
     2  H    0.161404
     3  H    0.162465
     4  H    0.177015
     5  H    0.151856
 Sum of Mulliken charges =  -0.00000

 Dipole moment (field-independent basis, Debye):
    X=              0.0132    Y=              0.0226    Z=              0.0439  Tot=              0.0511
 Quadrupole moment (field-independent basis, Debye-Ang):
   XX=             -8.1689   YY=             -8.3738   ZZ=             -8.4782
   XY=             -0.0867   XZ=             -0.0762   YZ=              0.0178

 Normal termination of Gaussian 16 at Fri Sep 22 16:30:30 2023.
