 Gaussian 16, Revision A.03,
 Gaussian 16:  ES64L-G16RevA.03 25-Dec-2016

 ----------------
 # 6-31g(d) wb97x
 ----------------

 -----------------------
 tmpdir/M2_conf_1_85.gjf
 -----------------------
 Symbolic Z-matrix:
 Charge =  0 Multiplicity = 1

                         Standard orientation:
 ---------------------------------------------------------------------
 Center     Atomic      Atomic             Coordinates (Angstroms)
 Number     Number       Type             X           Y           Z
 ---------------------------------------------------------------------
      1          6           0        0.540427   -0.008731   -0.002574
      2          8           0       -0.682054   -0.002685    0.000613
      3          1           0        1.144364   -0.872873    0.005551
      4          1           0        1.069510    0.946736    0.004989
 ---------------------------------------------------------------------

 SCF Done:  E(RwB97X) =  -114.463641908     A.U. after   13 cycles

 The electronic state is 1-A.
 Alpha  occ. eigenvalues --  -19.23365 -10.36567  -1.17440  -0.76883  -0.61271
 Alpha  occ. eigenvalues --   -0.55415  -0.49827  -0.36945
 Alpha virt. eigenvalues --    0.05574   0.21228   0.28886   0.31735   0.61966
 Alpha virt. eigenvalues --    0.71829   0.73445   0.79276   0.95587   0.96274
 Alpha virt. eigenvalues --    1.03091   1.07730   1.17469   1.48518   1.61021

 Mulliken charges:
               1
     1  C    0.057990
     2  O   -0.342769
     3  H    0.150183
     4  H    0.134596
 Sum of Mulliken charges =  -0.00000

 Dipole moment (field-independent basis, Debye):
    X=              2.4175    Y=             -0.0586    Z=              0.0006  Tot=              2.4182
 Quadrupole moment (field-independent basis, Debye-Ang):
   XX=            -11.7463   YY=            -11.3974   ZZ=            -11.3860
   XY=             -0.1345   XZ=              0.0047   YZ=              0.0006

 Normal termination of Gaussian 16 at Fri Sep 22 16:31:58 2023.
