 Gaussian 16, Revision A.03,
 Gaussian 16:  ES64L-G16RevA.03 25-Dec-2016

 ----------------
 # 6-31g(d) wb97x
 ----------------

 ------------------------
 tmpdir/M2_conf_1_111.gjf
 ------------------------
 Symbolic Z-matrix:
 Charge =  0 Multiplicity = 1

                         Standard orientation:
 ---------------------------------------------------------------------
 Center     Atomic      Atomic             Coordinates (Angstroms)
 Number     Number       Type             X           Y           Z
 ---------------------------------------------------------------------
      1          6           0       -0.763253    0.001383   -0.003267
      2          6           0        0.763144    0.004429   -0.003768
      3          1           0        1.160933   -0.694286    0.738854
      4          1           0       -1.209127    0.766513   -0.663345
      5          1           0       -1.128434   -0.985867   -0.307818
      6          1           0       -1.134543    0.178625    1.013767
      7          1           0        1.155726    1.001624    0.241075
      8          1           0        1.156095   -0.301482   -0.980320
 ---------------------------------------------------------------------

 SCF Done:  E(RwB97X) =  -79.8009806840     A.U. after   12 cycles

 The electronic state is 1-A.
 Alpha  occ. eigenvalues --  -10.25577 -10.25503  -0.87903  -0.73343  -0.54238
 Alpha  occ. eigenvalues --   -0.54060  -0.46675  -0.44124  -0.43991
 Alpha virt. eigenvalues --    0.19955   0.25414   0.25913   0.26137   0.28852
 Alpha virt. eigenvalues --    0.29138   0.33984   0.61719   0.64797   0.65256
 Alpha virt. eigenvalues --    0.73909   0.75179   0.78921   0.99946   1.00046

 Mulliken charges:
               1
     1  C   -0.467623
     2  C   -0.467989
     3  H    0.156837
     4  H    0.156250
     5  H    0.155789
     6  H    0.155220
     7  H    0.155358
     8  H    0.156158
 Sum of Mulliken charges =   0.00000

 Dipole moment (field-independent basis, Debye):
    X=              0.0036    Y=             -0.0233    Z=              0.0231  Tot=              0.0330
 Quadrupole moment (field-independent basis, Debye-Ang):
   XX=            -15.2949   YY=            -14.6591   ZZ=            -14.7129
   XY=             -0.0688   XZ=              0.0470   YZ=             -0.0030

 Normal termination of Gaussian 16 at Fri Sep 22 16:32:07 2023.
