 Gaussian 16, Revision A.03,
 Gaussian 16:  ES64L-G16RevA.03 25-Dec-2016

 ----------------
 # 6-31g(d) wb97x
 ----------------

 -----------------------
 tmpdir/M2_conf_1_66.gjf
 -----------------------
 Symbolic Z-matrix:
 Charge =  0 Multiplicity = 1

                         Standard orientation:
 ---------------------------------------------------------------------
 Center     Atomic      Atomic             Coordinates (Angstroms)
 Number     Number       Type             X           Y           Z
 ---------------------------------------------------------------------
      1          6           0       -1.183833    0.201210    0.008217
      2          8           0       -0.004508   -0.595071    0.026788
      3          6           0        1.189179    0.196348    0.003779
      4          1           0       -1.909762   -0.373518   -0.625138
      5          1           0       -1.598605    0.420705    0.987480
      6          1           0       -0.950879    1.135575   -0.536193
      7          1           0        1.366642    0.741336    0.952375
      8          1           0        2.012590   -0.491471   -0.258531
      9          1           0        1.083997    0.942595   -0.806272
 ---------------------------------------------------------------------

 SCF Done:  E(RwB97X) =  -154.972233268     A.U. after   13 cycles

 The electronic state is 1-A.
 Alpha  occ. eigenvalues --  -19.20896 -10.31036 -10.30769  -1.14288  -0.83930
 Alpha  occ. eigenvalues --   -0.75756  -0.58005  -0.57256  -0.57094  -0.50476
 Alpha  occ. eigenvalues --   -0.47032  -0.41467  -0.35060
 Alpha virt. eigenvalues --    0.18223   0.22963   0.24098   0.24638   0.26858
 Alpha virt. eigenvalues --    0.28456   0.28926   0.34482   0.62711   0.63813
 Alpha virt. eigenvalues --    0.65375   0.68518   0.69337   0.82603   0.94207

 Mulliken charges:
               1
     1  C   -0.214773
     2  O   -0.471900
     3  C   -0.218415
     4  H    0.163897
     5  H    0.156631
     6  H    0.130041
     7  H    0.144923
     8  H    0.173617
     9  H    0.135979
 Sum of Mulliken charges =   0.00000

 Dipole moment (field-independent basis, Debye):
    X=              0.0478    Y=              1.4651    Z=             -0.0982  Tot=              1.4691
 Quadrupole moment (field-independent basis, Debye-Ang):
   XX=            -17.0411   YY=            -20.9999   ZZ=            -19.8206
   XY=             -0.1204   XZ=             -0.0815   YZ=              0.2770

 Normal termination of Gaussian 16 at Fri Sep 22 16:31:48 2023.
