 Gaussian 16, Revision A.03,
 Gaussian 16:  ES64L-G16RevA.03 25-Dec-2016

 ----------------
 # 6-31g(d) wb97x
 ----------------

 -----------------------
 tmpdir/M2_conf_0_81.gjf
 -----------------------
 Symbolic Z-matrix:
 Charge =  0 Multiplicity = 1

                         Standard orientation:
 ---------------------------------------------------------------------
 Center     Atomic      Atomic             Coordinates (Angstroms)
 Number     Number       Type             X           Y           Z
 ---------------------------------------------------------------------
      1          6           0       -0.759550    0.002954   -0.007764
      2          6           0        0.771337   -0.015196   -0.003646
      3          1           0        1.100071    0.869563   -0.565258
      4          1           0       -1.232036   -0.884263    0.602809
      5          1           0       -1.188402   -0.056410   -1.023879
      6          1           0       -1.092982    0.949166    0.458753
      7          1           0        1.217825   -0.933392   -0.427821
      8          1           0        1.124806    0.128787    1.023854
 ---------------------------------------------------------------------

 SCF Done:  E(RwB97X) =  -79.7964024058     A.U. after   12 cycles

 The electronic state is 1-A.
 Alpha  occ. eigenvalues --  -10.26554 -10.25794  -0.87678  -0.72814  -0.54403
 Alpha  occ. eigenvalues --   -0.53520  -0.46432  -0.44378  -0.43273
 Alpha virt. eigenvalues --    0.19472   0.24514   0.25522   0.25896   0.28046
 Alpha virt. eigenvalues --    0.28824   0.33589   0.61748   0.65018   0.66140
 Alpha virt. eigenvalues --    0.74399   0.75181   0.78380   0.97068   0.99444

 Mulliken charges:
               1
     1  C   -0.458744
     2  C   -0.462215
     3  H    0.155840
     4  H    0.135787
     5  H    0.157502
     6  H    0.155385
     7  H    0.158588
     8  H    0.157857
 Sum of Mulliken charges =   0.00000

 Dipole moment (field-independent basis, Debye):
    X=              0.0414    Y=              0.0900    Z=             -0.0136  Tot=              0.1000
 Quadrupole moment (field-independent basis, Debye-Ang):
   XX=            -15.4537   YY=            -14.6695   ZZ=            -14.8143
   XY=             -0.0446   XZ=              0.0701   YZ=              0.0886

 Normal termination of Gaussian 16 at Fri Sep 22 16:30:49 2023.
