 Gaussian 16, Revision A.03,
 Gaussian 16:  ES64L-G16RevA.03 25-Dec-2016

 ----------------
 # 6-31g(d) wb97x
 ----------------

 -----------------------
 tmpdir/M2_conf_1_12.gjf
 -----------------------
 Symbolic Z-matrix:
 Charge =  0 Multiplicity = 1

                         Standard orientation:
 ---------------------------------------------------------------------
 Center     Atomic      Atomic             Coordinates (Angstroms)
 Number     Number       Type             X           Y           Z
 ---------------------------------------------------------------------
      1          6           0        0.010401    0.011084   -0.004755
      2          1           0       -0.361494   -0.659478   -0.787723
      3          1           0       -0.540190    0.943979   -0.064392
      4          1           0        1.108090    0.128176   -0.059929
      5          1           0       -0.268812   -0.479178    0.940576
 ---------------------------------------------------------------------

 SCF Done:  E(RwB97X) =  -40.4983646090     A.U. after   11 cycles

 The electronic state is 1-A.
 Alpha  occ. eigenvalues --  -10.25041  -0.81700  -0.50272  -0.49418  -0.48559
 Alpha virt. eigenvalues --    0.21521   0.27073   0.27386   0.27823   0.63803
 Alpha virt. eigenvalues --    0.63848   0.64892   1.00618   1.01275   1.02392
 Alpha virt. eigenvalues --    1.07152   1.20958   1.75841   1.75927   2.32643

 Mulliken charges:
               1
     1  C   -0.667056
     2  H    0.165397
     3  H    0.170610
     4  H    0.168048
     5  H    0.163001
 Sum of Mulliken charges =  -0.00000

 Dipole moment (field-independent basis, Debye):
    X=             -0.0498    Y=             -0.0318    Z=              0.0140  Tot=              0.0608
 Quadrupole moment (field-independent basis, Debye-Ang):
   XX=             -8.0693   YY=             -8.2873   ZZ=             -8.4297
   XY=             -0.0198   XZ=              0.0046   YZ=              0.0055

 Normal termination of Gaussian 16 at Fri Sep 22 16:31:20 2023.
