 Gaussian 16, Revision A.03,
 Gaussian 16:  ES64L-G16RevA.03 25-Dec-2016

 ----------------
 # 6-31g(d) wb97x
 ----------------

 -----------------------
 tmpdir/M2_conf_1_16.gjf
 -----------------------
 Symbolic Z-matrix:
 Charge =  0 Multiplicity = 1

                         Standard orientation:
 ---------------------------------------------------------------------
 Center     Atomic      Atomic             Coordinates (Angstroms)
 Number     Number       Type             X           Y           Z
 ---------------------------------------------------------------------
      1          6           0        0.249706    0.401330   -0.008981
      2          6           0       -1.143744   -0.150375   -0.004356
      3          1           0       -1.600937    0.093817    0.966895
      4          1           0        0.314995    1.525037    0.005942
      5          8           0        1.198512   -0.286392    0.003233
      6          1           0       -1.200645   -1.239908   -0.181453
      7          1           0       -1.737284    0.406465   -0.737226
 ---------------------------------------------------------------------

 SCF Done:  E(RwB97X) =  -153.782297642     A.U. after   14 cycles

 The electronic state is 1-A.
 Alpha  occ. eigenvalues --  -19.21563 -10.36200 -10.27697  -1.19330  -0.88027
 Alpha  occ. eigenvalues --   -0.69565  -0.59381  -0.55698  -0.54836  -0.50470
 Alpha  occ. eigenvalues --   -0.47247  -0.35422
 Alpha virt. eigenvalues --    0.08859   0.20532   0.22277   0.25267   0.25827
 Alpha virt. eigenvalues --    0.35410   0.38545   0.62962   0.65487   0.69296
 Alpha virt. eigenvalues --    0.70467   0.79121   0.85364   0.87229   0.95067

 Mulliken charges:
               1
     1  C    0.248189
     2  C   -0.561451
     3  H    0.186179
     4  H    0.109144
     5  O   -0.353978
     6  H    0.196452
     7  H    0.175466
 Sum of Mulliken charges =  -0.00000

 Dipole moment (field-independent basis, Debye):
    X=             -2.2735    Y=              1.1019    Z=              0.0437  Tot=              2.5269
 Quadrupole moment (field-independent basis, Debye-Ang):
   XX=            -20.5517   YY=            -17.6246   ZZ=            -17.6395
   XY=              0.9112   XZ=             -0.1094   YZ=              0.0297

 Normal termination of Gaussian 16 at Fri Sep 22 16:31:30 2023.
