 Gaussian 16, Revision A.03,
 Gaussian 16:  ES64L-G16RevA.03 25-Dec-2016

 ----------------
 # 6-31g(d) wb97x
 ----------------

 -----------------------
 tmpdir/M2_conf_1_60.gjf
 -----------------------
 Symbolic Z-matrix:
 Charge =  0 Multiplicity = 1

                         Standard orientation:
 ---------------------------------------------------------------------
 Center     Atomic      Atomic             Coordinates (Angstroms)
 Number     Number       Type             X           Y           Z
 ---------------------------------------------------------------------
      1          8           0        0.738618   -0.125839    0.012050
      2          6           0       -0.676478    0.024886    0.012271
      3          1           0       -0.930017    0.947276   -0.543233
      4          1           0        1.268712    0.702093   -0.025387
      5          1           0       -1.057980   -0.834318   -0.599818
      6          1           0       -1.130791    0.042342    0.998416
 ---------------------------------------------------------------------

 SCF Done:  E(RwB97X) =  -115.674577995     A.U. after   13 cycles

 The electronic state is 1-A.
 Alpha  occ. eigenvalues --  -19.20168 -10.30982  -1.12358  -0.80172  -0.60863
 Alpha  occ. eigenvalues --   -0.54765  -0.52431  -0.41579  -0.36592
 Alpha virt. eigenvalues --    0.17218   0.22671   0.26054   0.28334   0.31222
 Alpha virt. eigenvalues --    0.64586   0.66801   0.68928   0.90791   0.96866
 Alpha virt. eigenvalues --    0.97774   1.01624   1.06211   1.09739   1.12480

 Mulliken charges:
               1
     1  O   -0.643499
     2  C   -0.213227
     3  H    0.136078
     4  H    0.403372
     5  H    0.163373
     6  H    0.153903
 Sum of Mulliken charges =  -0.00000

 Dipole moment (field-independent basis, Debye):
    X=             -0.6121    Y=              1.6113    Z=             -0.1163  Tot=              1.7276
 Quadrupole moment (field-independent basis, Debye-Ang):
   XX=            -11.9431   YY=            -12.2993   ZZ=            -13.4191
   XY=              2.3221   XZ=             -0.1350   YZ=              0.0237

 Normal termination of Gaussian 16 at Fri Sep 22 16:31:42 2023.
