 Gaussian 16, Revision A.03,
 Gaussian 16:  ES64L-G16RevA.03 25-Dec-2016

 ----------------
 # 6-31g(d) wb97x
 ----------------

 ------------------------
 tmpdir/M2_conf_0_117.gjf
 ------------------------
 Symbolic Z-matrix:
 Charge =  0 Multiplicity = 1

                         Standard orientation:
 ---------------------------------------------------------------------
 Center     Atomic      Atomic             Coordinates (Angstroms)
 Number     Number       Type             X           Y           Z
 ---------------------------------------------------------------------
      1          6           0        0.007387   -0.001539   -0.002176
      2          1           0       -0.299703    0.097758    1.043447
      3          1           0        1.107044   -0.088786   -0.076335
      4          1           0       -0.498313   -0.881237   -0.415375
      5          1           0       -0.353346    0.881501   -0.538680
 ---------------------------------------------------------------------

 SCF Done:  E(RwB97X) =  -40.4991325966     A.U. after   11 cycles

 The electronic state is 1-A.
 Alpha  occ. eigenvalues --  -10.25070  -0.81653  -0.49850  -0.49243  -0.49143
 Alpha virt. eigenvalues --    0.21529   0.27370   0.27434   0.27461   0.63886
 Alpha virt. eigenvalues --    0.63952   0.64715   1.01298   1.01508   1.01566
 Alpha virt. eigenvalues --    1.06728   1.20742   1.75844   1.75900   2.33248

 Mulliken charges:
               1
     1  C   -0.665868
     2  H    0.166157
     3  H    0.166606
     4  H    0.166572
     5  H    0.166533
 Sum of Mulliken charges =   0.00000

 Dipole moment (field-independent basis, Debye):
    X=             -0.0373    Y=              0.0078    Z=              0.0098  Tot=              0.0394
 Quadrupole moment (field-independent basis, Debye-Ang):
   XX=             -8.1400   YY=             -8.3120   ZZ=             -8.3356
   XY=              0.0002   XZ=              0.0009   YZ=             -0.0003

 Normal termination of Gaussian 16 at Fri Sep 22 16:30:59 2023.
