 Gaussian 16, Revision A.03,
 Gaussian 16:  ES64L-G16RevA.03 25-Dec-2016

 ----------------
 # 6-31g(d) wb97x
 ----------------

 -----------------------
 tmpdir/M2_conf_2_45.gjf
 -----------------------
 Symbolic Z-matrix:
 Charge =  0 Multiplicity = 1

                         Standard orientation:
 ---------------------------------------------------------------------
 Center     Atomic      Atomic             Coordinates (Angstroms)
 Number     Number       Type             X           Y           Z
 ---------------------------------------------------------------------
      1          7           0        0.744577   -0.032453   -0.025055
      2          6           0       -0.725799   -0.020025    0.003188
      3          1           0       -1.050934    0.071585    1.050042
      4          1           0        1.386393   -0.712841    0.060046
      5          1           0        1.086140    0.921094    0.037415
      6          1           0       -1.263136   -0.863069   -0.474051
      7          1           0       -1.015704    0.930546   -0.517195
 ---------------------------------------------------------------------

 SCF Done:  E(RwB97X) =  -95.8011563187     A.U. after   12 cycles

 The electronic state is 1-A.
 Alpha  occ. eigenvalues --  -14.36358 -10.28730  -0.98139  -0.78085  -0.60793
 Alpha  occ. eigenvalues --   -0.52643  -0.51431  -0.47040  -0.29995
 Alpha virt. eigenvalues --    0.19405   0.23650   0.25219   0.28105   0.31121
 Alpha virt. eigenvalues --    0.34522   0.64599   0.68284   0.70174   0.86053
 Alpha virt. eigenvalues --    0.87789   0.93029   0.98495   0.99975   1.06945

 Mulliken charges:
               1
     1  N   -0.798536
     2  C   -0.297169
     3  H    0.144424
     4  H    0.330390
     5  H    0.311958
     6  H    0.159988
     7  H    0.148946
 Sum of Mulliken charges =   0.00000

 Dipole moment (field-independent basis, Debye):
    X=              0.1585    Y=              0.2014    Z=              0.2456  Tot=              0.3550
 Quadrupole moment (field-independent basis, Debye-Ang):
   XX=            -12.3004   YY=            -12.0768   ZZ=            -15.5365
   XY=              0.0051   XZ=              0.6321   YZ=             -0.0079

 Normal termination of Gaussian 16 at Fri Sep 22 16:32:40 2023.
