 Gaussian 16, Revision A.03,
 Gaussian 16:  ES64L-G16RevA.03 25-Dec-2016

 ----------------
 # 6-31g(d) wb97x
 ----------------

 ------------------------
 tmpdir/M2_conf_2_113.gjf
 ------------------------
 Symbolic Z-matrix:
 Charge =  0 Multiplicity = 1

                         Standard orientation:
 ---------------------------------------------------------------------
 Center     Atomic      Atomic             Coordinates (Angstroms)
 Number     Number       Type             X           Y           Z
 ---------------------------------------------------------------------
      1          6           0       -0.762747    0.001304   -0.002759
      2          6           0        0.763650    0.004067   -0.004283
      3          1           0        1.145854   -0.379924   -0.957243
      4          1           0       -1.208881    0.711690   -0.721257
      5          1           0       -1.128197   -1.006958   -0.227794
      6          1           0       -1.133485    0.258775    0.997182
      7          1           0        1.162819   -0.633295    0.790935
      8          1           0        1.156471    1.017490    0.160424
 ---------------------------------------------------------------------

 SCF Done:  E(RwB97X) =  -79.8009388487     A.U. after   12 cycles

 The electronic state is 1-A.
 Alpha  occ. eigenvalues --  -10.25566 -10.25504  -0.87911  -0.73320  -0.54263
 Alpha  occ. eigenvalues --   -0.54076  -0.46641  -0.44127  -0.43992
 Alpha virt. eigenvalues --    0.19940   0.25417   0.25943   0.26145   0.28827
 Alpha virt. eigenvalues --    0.29134   0.33962   0.61704   0.64812   0.65314
 Alpha virt. eigenvalues --    0.73815   0.75183   0.78924   0.99948   1.00048

 Mulliken charges:
               1
     1  C   -0.467780
     2  C   -0.467617
     3  H    0.156090
     4  H    0.156209
     5  H    0.155700
     6  H    0.154999
     7  H    0.156946
     8  H    0.155454
 Sum of Mulliken charges =   0.00000

 Dipole moment (field-independent basis, Debye):
    X=              0.0027    Y=             -0.0214    Z=              0.0241  Tot=              0.0323
 Quadrupole moment (field-independent basis, Debye-Ang):
   XX=            -15.3130   YY=            -14.6581   ZZ=            -14.7039
   XY=             -0.0609   XZ=              0.0663   YZ=             -0.0033

 Normal termination of Gaussian 16 at Fri Sep 22 16:33:22 2023.
