 Gaussian 16, Revision A.03,
 Gaussian 16:  ES64L-G16RevA.03 25-Dec-2016

 ----------------
 # 6-31g(d) wb97x
 ----------------

 -----------------------
 tmpdir/M2_conf_0_46.gjf
 -----------------------
 Symbolic Z-matrix:
 Charge =  0 Multiplicity = 1

                         Standard orientation:
 ---------------------------------------------------------------------
 Center     Atomic      Atomic             Coordinates (Angstroms)
 Number     Number       Type             X           Y           Z
 ---------------------------------------------------------------------
      1          6           0       -0.763134   -0.018907   -0.003704
      2          6           0        0.786435   -0.009049   -0.003408
      3          1           0        0.946258    0.035244    1.084022
      4          1           0       -1.154342   -0.932654    0.433572
      5          1           0       -1.069736    0.960161    0.555591
      6          1           0       -1.085698    0.079942   -1.057201
      7          1           0        1.146816   -0.956656   -0.449930
      8          1           0        1.076897    0.981702   -0.523386
 ---------------------------------------------------------------------

 SCF Done:  E(RwB97X) =  -79.7846977051     A.U. after   12 cycles

 The electronic state is 1-A.
 Alpha  occ. eigenvalues --  -10.26406 -10.26195  -0.87791  -0.71681  -0.55128
 Alpha  occ. eigenvalues --   -0.54485  -0.44923  -0.44060  -0.43023
 Alpha virt. eigenvalues --    0.18188   0.24868   0.25679   0.26426   0.26805
 Alpha virt. eigenvalues --    0.28695   0.31539   0.61566   0.67245   0.68039
 Alpha virt. eigenvalues --    0.70861   0.74730   0.77561   0.95050   0.98528

 Mulliken charges:
               1
     1  C   -0.462655
     2  C   -0.453245
     3  H    0.158012
     4  H    0.162214
     5  H    0.136406
     6  H    0.152038
     7  H    0.159501
     8  H    0.147728
 Sum of Mulliken charges =  -0.00000

 Dipole moment (field-independent basis, Debye):
    X=             -0.0385    Y=             -0.0601    Z=              0.0077  Tot=              0.0718
 Quadrupole moment (field-independent basis, Debye-Ang):
   XX=            -16.4404   YY=            -14.2772   ZZ=            -14.7776
   XY=              0.0466   XZ=             -0.1450   YZ=             -0.0477

 Normal termination of Gaussian 16 at Fri Sep 22 16:30:34 2023.
