 Gaussian 16, Revision A.03,
 Gaussian 16:  ES64L-G16RevA.03 25-Dec-2016

 ----------------
 # 6-31g(d) wb97x
 ----------------

 ------------------------
 tmpdir/M2_conf_1_119.gjf
 ------------------------
 Symbolic Z-matrix:
 Charge =  0 Multiplicity = 1

                         Standard orientation:
 ---------------------------------------------------------------------
 Center     Atomic      Atomic             Coordinates (Angstroms)
 Number     Number       Type             X           Y           Z
 ---------------------------------------------------------------------
      1          6           0       -0.007304    0.001699   -0.002023
      2          1           0        0.343214   -0.822389   -0.628130
      3          1           0       -1.106269    0.106172   -0.062982
      4          1           0        0.301193   -0.209094    1.025979
      5          1           0        0.505687    0.915117   -0.322727
 ---------------------------------------------------------------------

 SCF Done:  E(RwB97X) =  -40.4991340141     A.U. after   11 cycles

 The electronic state is 1-A.
 Alpha  occ. eigenvalues --  -10.25046  -0.81670  -0.49851  -0.49263  -0.49152
 Alpha virt. eigenvalues --    0.21542   0.27380   0.27460   0.27478   0.63858
 Alpha virt. eigenvalues --    0.63932   0.64714   1.01314   1.01569   1.01605
 Alpha virt. eigenvalues --    1.06823   1.20758   1.75834   1.75889   2.33264

 Mulliken charges:
               1
     1  C   -0.666104
     2  H    0.166891
     3  H    0.166525
     4  H    0.166203
     5  H    0.166486
 Sum of Mulliken charges =   0.00000

 Dipole moment (field-independent basis, Debye):
    X=              0.0377    Y=             -0.0101    Z=              0.0085  Tot=              0.0399
 Quadrupole moment (field-independent basis, Debye-Ang):
   XX=             -8.1382   YY=             -8.3109   ZZ=             -8.3339
   XY=             -0.0009   XZ=             -0.0013   YZ=              0.0024

 Normal termination of Gaussian 16 at Fri Sep 22 16:32:13 2023.
