 Gaussian 16, Revision A.03,
 Gaussian 16:  ES64L-G16RevA.03 25-Dec-2016

 ----------------
 # 6-31g(d) wb97x
 ----------------

 -----------------------
 tmpdir/M2_conf_0_25.gjf
 -----------------------
 Symbolic Z-matrix:
 Charge =  0 Multiplicity = 1

                         Standard orientation:
 ---------------------------------------------------------------------
 Center     Atomic      Atomic             Coordinates (Angstroms)
 Number     Number       Type             X           Y           Z
 ---------------------------------------------------------------------
      1          6           0        0.747672    0.008806   -0.009423
      2          6           0       -0.778995    0.019489    0.007719
      3          1           0       -0.951823    0.115878    1.085604
      4          1           0        1.200043    0.994360    0.023119
      5          1           0        1.153874   -0.584338    0.816800
      6          1           0        1.110322   -0.492718   -0.919887
      7          1           0       -1.137776   -1.040563   -0.377291
      8          1           0       -1.186703    0.837608   -0.618121
 ---------------------------------------------------------------------

 SCF Done:  E(RwB97X) =  -79.7894209172     A.U. after   12 cycles

 The electronic state is 1-A.
 Alpha  occ. eigenvalues --  -10.26595 -10.25199  -0.88017  -0.72519  -0.55002
 Alpha  occ. eigenvalues --   -0.53993  -0.46056  -0.44122  -0.43006
 Alpha virt. eigenvalues --    0.18963   0.23564   0.24742   0.25955   0.29288
 Alpha virt. eigenvalues --    0.31019   0.33290   0.61490   0.65335   0.66981
 Alpha virt. eigenvalues --    0.72551   0.76640   0.79262   0.96325   0.99399

 Mulliken charges:
               1
     1  C   -0.475198
     2  C   -0.452196
     3  H    0.161426
     4  H    0.160003
     5  H    0.154580
     6  H    0.150937
     7  H    0.137907
     8  H    0.162541
 Sum of Mulliken charges =   0.00000

 Dipole moment (field-independent basis, Debye):
    X=              0.0958    Y=              0.0289    Z=              0.0308  Tot=              0.1047
 Quadrupole moment (field-independent basis, Debye-Ang):
   XX=            -15.8082   YY=            -14.5714   ZZ=            -14.6869
   XY=             -0.0311   XZ=              0.2697   YZ=             -0.0851

 Normal termination of Gaussian 16 at Fri Sep 22 16:30:25 2023.
