 Gaussian 16, Revision A.03,
 Gaussian 16:  ES64L-G16RevA.03 25-Dec-2016

 ----------------
 # 6-31g(d) wb97x
 ----------------

 ------------------------
 tmpdir/M2_conf_2_118.gjf
 ------------------------
 Symbolic Z-matrix:
 Charge =  0 Multiplicity = 1

                         Standard orientation:
 ---------------------------------------------------------------------
 Center     Atomic      Atomic             Coordinates (Angstroms)
 Number     Number       Type             X           Y           Z
 ---------------------------------------------------------------------
      1          6           0        0.007337   -0.001465   -0.002205
      2          1           0       -0.496172   -0.866305   -0.446923
      3          1           0        1.107140   -0.082935   -0.080565
      4          1           0       -0.298735    0.058254    1.046198
      5          1           0       -0.356254    0.899776   -0.505479
 ---------------------------------------------------------------------

 SCF Done:  E(RwB97X) =  -40.4991359905     A.U. after   11 cycles

 The electronic state is 1-A.
 Alpha  occ. eigenvalues --  -10.25059  -0.81661  -0.49851  -0.49246  -0.49153
 Alpha virt. eigenvalues --    0.21535   0.27380   0.27440   0.27470   0.63873
 Alpha virt. eigenvalues --    0.63944   0.64713   1.01315   1.01522   1.01590
 Alpha virt. eigenvalues --    1.06770   1.20749   1.75839   1.75896   2.33261

 Mulliken charges:
               1
     1  C   -0.665974
     2  H    0.166661
     3  H    0.166566
     4  H    0.166252
     5  H    0.166496
 Sum of Mulliken charges =   0.00000

 Dipole moment (field-independent basis, Debye):
    X=             -0.0375    Y=              0.0070    Z=              0.0103  Tot=              0.0396
 Quadrupole moment (field-independent basis, Debye-Ang):
   XX=             -8.1394   YY=             -8.3113   ZZ=             -8.3348
   XY=              0.0006   XZ=              0.0008   YZ=              0.0003

 Normal termination of Gaussian 16 at Fri Sep 22 16:33:13 2023.
