 Gaussian 16, Revision A.03,
 Gaussian 16:  ES64L-G16RevA.03 25-Dec-2016

 ----------------
 # 6-31g(d) wb97x
 ----------------

 -----------------------
 tmpdir/M2_conf_2_53.gjf
 -----------------------
 Symbolic Z-matrix:
 Charge =  0 Multiplicity = 1

                         Standard orientation:
 ---------------------------------------------------------------------
 Center     Atomic      Atomic             Coordinates (Angstroms)
 Number     Number       Type             X           Y           Z
 ---------------------------------------------------------------------
      1          6           0       -0.680337    0.025286    0.012240
      2          8           0        0.740966   -0.126647    0.011759
      3          1           0       -1.061891   -0.830149   -0.605075
      4          1           0       -1.135085    0.037104    0.998261
      5          1           0       -0.920120    0.953219   -0.540135
      6          1           0        1.271392    0.701286   -0.020561
 ---------------------------------------------------------------------

 SCF Done:  E(RwB97X) =  -115.674228620     A.U. after   13 cycles

 The electronic state is 1-A.
 Alpha  occ. eigenvalues --  -19.20119 -10.31042  -1.12145  -0.80180  -0.60692
 Alpha  occ. eigenvalues --   -0.54750  -0.52410  -0.41553  -0.36582
 Alpha virt. eigenvalues --    0.17168   0.22641   0.26041   0.28303   0.30981
 Alpha virt. eigenvalues --    0.64384   0.66770   0.68914   0.90908   0.96803
 Alpha virt. eigenvalues --    0.97778   1.01492   1.06141   1.09777   1.12595

 Mulliken charges:
               1
     1  C   -0.213099
     2  O   -0.646109
     3  H    0.164197
     4  H    0.154967
     5  H    0.136986
     6  H    0.403058
 Sum of Mulliken charges =   0.00000

 Dipole moment (field-independent basis, Debye):
    X=             -0.6348    Y=              1.6118    Z=             -0.1066  Tot=              1.7356
 Quadrupole moment (field-independent basis, Debye-Ang):
   XX=            -11.9362   YY=            -12.2962   ZZ=            -13.4133
   XY=              2.3374   XZ=             -0.1290   YZ=              0.0267

 Normal termination of Gaussian 16 at Fri Sep 22 16:32:56 2023.
