 Gaussian 16, Revision A.03,
 Gaussian 16:  ES64L-G16RevA.03 25-Dec-2016

 ----------------
 # 6-31g(d) wb97x
 ----------------

 ------------------------
 tmpdir/M2_conf_2_109.gjf
 ------------------------
 Symbolic Z-matrix:
 Charge =  0 Multiplicity = 1

                         Standard orientation:
 ---------------------------------------------------------------------
 Center     Atomic      Atomic             Coordinates (Angstroms)
 Number     Number       Type             X           Y           Z
 ---------------------------------------------------------------------
      1          6           0       -0.007933    0.000201   -0.000996
      2          1           0        0.352816    0.915110   -0.487235
      3          1           0       -1.110220    0.000477    0.076433
      4          1           0        0.459603   -0.049598    0.987366
      5          1           0        0.345402   -0.867193   -0.570589
 ---------------------------------------------------------------------

 SCF Done:  E(RwB97X) =  -40.4991081160     A.U. after   11 cycles

 The electronic state is 1-A.
 Alpha  occ. eigenvalues --  -10.25103  -0.81631  -0.49859  -0.49344  -0.48995
 Alpha virt. eigenvalues --    0.21511   0.27285   0.27437   0.27470   0.63835
 Alpha virt. eigenvalues --    0.64090   0.64696   1.01209   1.01486   1.01527
 Alpha virt. eigenvalues --    1.06599   1.20705   1.75813   1.75982   2.33306

 Mulliken charges:
               1
     1  C   -0.665562
     2  H    0.166150
     3  H    0.166867
     4  H    0.166233
     5  H    0.166311
 Sum of Mulliken charges =   0.00000

 Dipole moment (field-independent basis, Debye):
    X=              0.0380    Y=             -0.0017    Z=              0.0058  Tot=              0.0384
 Quadrupole moment (field-independent basis, Debye-Ang):
   XX=             -8.1434   YY=             -8.2890   ZZ=             -8.3613
   XY=             -0.0005   XZ=              0.0002   YZ=              0.0007

 Normal termination of Gaussian 16 at Fri Sep 22 16:33:12 2023.
