 Gaussian 16, Revision A.03,
 Gaussian 16:  ES64L-G16RevA.03 25-Dec-2016

 ----------------
 # 6-31g(d) wb97x
 ----------------

 ------------------------
 tmpdir/M2_conf_0_115.gjf
 ------------------------
 Symbolic Z-matrix:
 Charge =  0 Multiplicity = 1

                         Standard orientation:
 ---------------------------------------------------------------------
 Center     Atomic      Atomic             Coordinates (Angstroms)
 Number     Number       Type             X           Y           Z
 ---------------------------------------------------------------------
      1          1           0       -0.465365   -0.316929    0.936242
      2          6           0        0.006748   -0.000745    0.000792
      3          1           0       -0.192016    1.067618   -0.143254
      4          1           0        1.095251   -0.190274    0.016873
      5          1           0       -0.478358   -0.555944   -0.814609
 ---------------------------------------------------------------------

 SCF Done:  E(RwB97X) =  -40.4991894316     A.U. after   11 cycles

 The electronic state is 1-A.
 Alpha  occ. eigenvalues --  -10.25127  -0.81611  -0.49811  -0.49291  -0.49071
 Alpha virt. eigenvalues --    0.21502   0.27285   0.27353   0.27508   0.63926
 Alpha virt. eigenvalues --    0.64063   0.64670   1.01194   1.01324   1.01645
 Alpha virt. eigenvalues --    1.06443   1.20668   1.75842   1.75965   2.33398

 Mulliken charges:
               1
     1  H    0.166806
     2  C   -0.665203
     3  H    0.166371
     4  H    0.166627
     5  H    0.165398
 Sum of Mulliken charges =   0.00000

 Dipole moment (field-independent basis, Debye):
    X=             -0.0326    Y=              0.0052    Z=              0.0009  Tot=              0.0330
 Quadrupole moment (field-independent basis, Debye-Ang):
   XX=             -8.1574   YY=             -8.3014   ZZ=             -8.3388
   XY=             -0.0014   XZ=             -0.0047   YZ=             -0.0048

 Normal termination of Gaussian 16 at Fri Sep 22 16:31:01 2023.
