 Gaussian 16, Revision A.03,
 Gaussian 16:  ES64L-G16RevA.03 25-Dec-2016

 ----------------
 # 6-31g(d) wb97x
 ----------------

 -----------------------
 tmpdir/M2_conf_0_23.gjf
 -----------------------
 Symbolic Z-matrix:
 Charge =  1 Multiplicity = 1

                         Standard orientation:
 ---------------------------------------------------------------------
 Center     Atomic      Atomic             Coordinates (Angstroms)
 Number     Number       Type             X           Y           Z
 ---------------------------------------------------------------------
      1          6           0        1.333178   -0.228250   -0.004536
      2          6           0        0.035727    0.576460    0.008878
      3          7           0       -1.221328   -0.252254   -0.004347
      4          1           0        2.207563    0.342018   -0.299909
      5          1           0        1.532533   -0.683995    0.971179
      6          1           0        1.241631   -1.078353   -0.698025
      7          1           0       -0.020478    1.271210   -0.852159
      8          1           0       -0.079704    1.142619    0.940076
      9          1           0       -2.066811    0.400130   -0.134337
     10          1           0       -1.186599   -0.919070   -0.779247
     11          1           0       -1.292269   -0.798041    0.856797
 ---------------------------------------------------------------------

 SCF Done:  E(RwB97X) =  -135.490519966     A.U. after   12 cycles

 The electronic state is 1-A.
 Alpha  occ. eigenvalues --  -14.75589 -10.52944 -10.44882  -1.34358  -1.08866
 Alpha  occ. eigenvalues --   -0.96688  -0.91531  -0.89607  -0.79884  -0.74708
 Alpha  occ. eigenvalues --   -0.69315  -0.66614  -0.64509
 Alpha virt. eigenvalues --   -0.07991  -0.01338  -0.00254   0.02309   0.04560
 Alpha virt. eigenvalues --    0.05980   0.07850   0.12039   0.12639   0.14755
 Alpha virt. eigenvalues --    0.40677   0.42582   0.43969   0.47392   0.50954

 Mulliken charges:
               1
     1  C   -0.521107
     2  C   -0.248275
     3  N   -0.745017
     4  H    0.258326
     5  H    0.216352
     6  H    0.192474
     7  H    0.253102
     8  H    0.248887
     9  H    0.456906
    10  H    0.440786
    11  H    0.447566
 Sum of Mulliken charges =   1.00000

 Dipole moment (field-independent basis, Debye):
    X=             -4.0618    Y=             -0.6909    Z=             -0.0544  Tot=              4.1205
 Quadrupole moment (field-independent basis, Debye-Ang):
   XX=             -8.3139   YY=            -15.9531   ZZ=            -16.5524
   XY=              1.1119   XZ=             -0.0104   YZ=             -0.2640

 Normal termination of Gaussian 16 at Fri Sep 22 16:30:28 2023.
