 Gaussian 16, Revision A.03,
 Gaussian 16:  ES64L-G16RevA.03 25-Dec-2016

 ----------------
 # 6-31g(d) wb97x
 ----------------

 -----------------------
 tmpdir/M2_conf_0_89.gjf
 -----------------------
 Symbolic Z-matrix:
 Charge =  0 Multiplicity = 1

                         Standard orientation:
 ---------------------------------------------------------------------
 Center     Atomic      Atomic             Coordinates (Angstroms)
 Number     Number       Type             X           Y           Z
 ---------------------------------------------------------------------
      1          8           0        1.245529   -0.277688    0.000723
      2          6           0        0.223717    0.432535   -0.003381
      3          6           0       -1.168529   -0.148927    0.000215
      4          1           0        0.215742    1.486736    0.008108
      5          1           0       -1.289128   -0.755731    0.901632
      6          1           0       -1.264617   -0.817163   -0.859497
      7          1           0       -1.957353    0.606015   -0.037029
 ---------------------------------------------------------------------

 SCF Done:  E(RwB97X) =  -153.779018698     A.U. after   14 cycles

 The electronic state is 1-A.
 Alpha  occ. eigenvalues --  -19.21823 -10.36596 -10.27767  -1.15340  -0.88352
 Alpha  occ. eigenvalues --   -0.71551  -0.58795  -0.55259  -0.53679  -0.50256
 Alpha  occ. eigenvalues --   -0.45570  -0.35842
 Alpha virt. eigenvalues --    0.06201   0.20670   0.22544   0.26987   0.27239
 Alpha virt. eigenvalues --    0.34315   0.36992   0.63135   0.64443   0.67541
 Alpha virt. eigenvalues --    0.70824   0.75778   0.82037   0.89332   0.96215

 Mulliken charges:
               1
     1  O   -0.396387
     2  C    0.229862
     3  C   -0.559756
     4  H    0.147286
     5  H    0.205177
     6  H    0.204594
     7  H    0.169224
 Sum of Mulliken charges =  -0.00000

 Dipole moment (field-independent basis, Debye):
    X=             -2.5251    Y=              1.1406    Z=              0.0084  Tot=              2.7708
 Quadrupole moment (field-independent basis, Debye-Ang):
   XX=            -20.8996   YY=            -17.4011   ZZ=            -17.5229
   XY=              0.9779   XZ=             -0.0187   YZ=             -0.0039

 Normal termination of Gaussian 16 at Fri Sep 22 16:31:09 2023.
