 Gaussian 16, Revision A.03,
 Gaussian 16:  ES64L-G16RevA.03 25-Dec-2016

 ----------------
 # 6-31g(d) wb97x
 ----------------

 -----------------------
 tmpdir/M2_conf_2_62.gjf
 -----------------------
 Symbolic Z-matrix:
 Charge =  0 Multiplicity = 1

                         Standard orientation:
 ---------------------------------------------------------------------
 Center     Atomic      Atomic             Coordinates (Angstroms)
 Number     Number       Type             X           Y           Z
 ---------------------------------------------------------------------
      1          6           0        1.273774   -0.226602    0.000977
      2          6           0        0.136340    0.461074   -0.009972
      3          6           0       -1.232660   -0.151930    0.009095
      4          1           0        2.283329    0.271356    0.006914
      5          1           0        1.298926   -1.310897   -0.025167
      6          1           0        0.220370    1.544694    0.006458
      7          1           0       -1.218004   -1.200502   -0.389303
      8          1           0       -2.026468    0.405710   -0.642291
      9          1           0       -1.622877   -0.205616    1.042787
 ---------------------------------------------------------------------

 SCF Done:  E(RwB97X) =  -117.861199662     A.U. after   13 cycles

 The electronic state is 1-A.
 Alpha  occ. eigenvalues --  -10.27450 -10.27251 -10.26060  -0.91070  -0.80059
 Alpha  occ. eigenvalues --   -0.66723  -0.56742  -0.52233  -0.51505  -0.46128
 Alpha  occ. eigenvalues --   -0.44127  -0.34979
 Alpha virt. eigenvalues --    0.11704   0.19990   0.22599   0.24503   0.26965
 Alpha virt. eigenvalues --    0.27818   0.28793   0.38984   0.46809   0.60173
 Alpha virt. eigenvalues --    0.63952   0.64713   0.71255   0.74261   0.77027

 Mulliken charges:
               1
     1  C   -0.361848
     2  C   -0.074601
     3  C   -0.512061
     4  H    0.151907
     5  H    0.150927
     6  H    0.153501
     7  H    0.164434
     8  H    0.151571
     9  H    0.176170
 Sum of Mulliken charges =   0.00000

 Dipole moment (field-independent basis, Debye):
    X=             -0.2819    Y=              0.0206    Z=              0.0565  Tot=              0.2882
 Quadrupole moment (field-independent basis, Debye-Ang):
   XX=            -18.8599   YY=            -18.7643   ZZ=            -21.3998
   XY=             -0.0138   XZ=             -0.0130   YZ=              0.0408

 Normal termination of Gaussian 16 at Fri Sep 22 16:32:57 2023.
