 Gaussian 16, Revision A.03,
 Gaussian 16:  ES64L-G16RevA.03 25-Dec-2016

 ----------------
 # 6-31g(d) wb97x
 ----------------

 -----------------------
 tmpdir/M2_conf_0_63.gjf
 -----------------------
 Symbolic Z-matrix:
 Charge =  0 Multiplicity = 1

                         Standard orientation:
 ---------------------------------------------------------------------
 Center     Atomic      Atomic             Coordinates (Angstroms)
 Number     Number       Type             X           Y           Z
 ---------------------------------------------------------------------
      1          6           0        0.658427   -0.013142    0.004427
      2          6           0       -0.670657    0.001307   -0.005607
      3          1           0       -1.153833    0.974989    0.002154
      4          1           0        1.275073    0.928630    0.001213
      5          1           0        1.230878   -0.934546   -0.013693
      6          1           0       -1.278740   -0.898066    0.017404
 ---------------------------------------------------------------------

 SCF Done:  E(RwB97X) =  -78.5557515670     A.U. after   12 cycles

 The electronic state is 1-A.
 Alpha  occ. eigenvalues --  -10.27033 -10.26706  -0.88429  -0.69230  -0.57670
 Alpha  occ. eigenvalues --   -0.51890  -0.45197  -0.36860
 Alpha virt. eigenvalues --    0.11348   0.21570   0.23652   0.25816   0.34768
 Alpha virt. eigenvalues --    0.42721   0.58450   0.65548   0.67979   0.75021
 Alpha virt. eigenvalues --    0.75912   0.81878   0.95646   0.99241   1.04533

 Mulliken charges:
               1
     1  C   -0.322230
     2  C   -0.320690
     3  H    0.159732
     4  H    0.156079
     5  H    0.160149
     6  H    0.166959
 Sum of Mulliken charges =  -0.00000

 Dipole moment (field-independent basis, Debye):
    X=              0.0032    Y=             -0.0105    Z=              0.0070  Tot=              0.0130
 Quadrupole moment (field-independent basis, Debye-Ang):
   XX=            -11.9784   YY=            -12.0130   ZZ=            -15.1508
   XY=              0.1206   XZ=             -0.0433   YZ=             -0.0003

 Normal termination of Gaussian 16 at Fri Sep 22 16:30:35 2023.
