 Gaussian 16, Revision A.03,
 Gaussian 16:  ES64L-G16RevA.03 25-Dec-2016

 ----------------
 # 6-31g(d) wb97x
 ----------------

 -----------------------
 tmpdir/M2_conf_0_53.gjf
 -----------------------
 Symbolic Z-matrix:
 Charge =  0 Multiplicity = 1

                         Standard orientation:
 ---------------------------------------------------------------------
 Center     Atomic      Atomic             Coordinates (Angstroms)
 Number     Number       Type             X           Y           Z
 ---------------------------------------------------------------------
      1          6           0       -0.654642    0.026447    0.011966
      2          8           0        0.714659   -0.128148    0.012131
      3          1           0       -1.041032   -0.827168   -0.604861
      4          1           0       -1.109682    0.041695    0.997805
      5          1           0       -0.888708    0.955376   -0.541187
      6          1           0        1.250000    0.696599   -0.020600
 ---------------------------------------------------------------------

 SCF Done:  E(RwB97X) =  -115.673622822     A.U. after   13 cycles

 The electronic state is 1-A.
 Alpha  occ. eigenvalues --  -19.20171 -10.30572  -1.13873  -0.79964  -0.61688
 Alpha  occ. eigenvalues --   -0.55277  -0.53034  -0.41262  -0.36434
 Alpha virt. eigenvalues --    0.17171   0.22937   0.26515   0.28597   0.32529
 Alpha virt. eigenvalues --    0.66361   0.67034   0.69199   0.90110   0.97118
 Alpha virt. eigenvalues --    0.97873   1.02048   1.06004   1.09532   1.12295

 Mulliken charges:
               1
     1  C   -0.209298
     2  O   -0.629373
     3  H    0.157834
     4  H    0.147038
     5  H    0.129099
     6  H    0.404700
 Sum of Mulliken charges =  -0.00000

 Dipole moment (field-independent basis, Debye):
    X=             -0.4411    Y=              1.6086    Z=             -0.1086  Tot=              1.6715
 Quadrupole moment (field-independent basis, Debye-Ang):
   XX=            -12.0724   YY=            -12.3105   ZZ=            -13.4151
   XY=              2.3130   XZ=             -0.1251   YZ=              0.0282

 Normal termination of Gaussian 16 at Fri Sep 22 16:30:45 2023.
