 Gaussian 16, Revision A.03,
 Gaussian 16:  ES64L-G16RevA.03 25-Dec-2016

 ----------------
 # 6-31g(d) wb97x
 ----------------

 -----------------------
 tmpdir/M2_conf_2_40.gjf
 -----------------------
 Symbolic Z-matrix:
 Charge =  0 Multiplicity = 1

                         Standard orientation:
 ---------------------------------------------------------------------
 Center     Atomic      Atomic             Coordinates (Angstroms)
 Number     Number       Type             X           Y           Z
 ---------------------------------------------------------------------
      1          6           0       -0.008278   -0.006975   -0.015545
      2          1           0       -0.152190   -0.843592    0.673257
      3          1           0       -0.912343    0.098750   -0.646980
      4          1           0        1.012435   -0.130340   -0.543989
      5          1           0        0.101765    0.917031    0.610981
 ---------------------------------------------------------------------

 SCF Done:  E(RwB97X) =  -40.4946202549     A.U. after   11 cycles

 The electronic state is 1-A.
 Alpha  occ. eigenvalues --  -10.26040  -0.81070  -0.50245  -0.49086  -0.47671
 Alpha virt. eigenvalues --    0.20756   0.25620   0.27169   0.27299   0.63815
 Alpha virt. eigenvalues --    0.64420   0.66612   0.97227   1.00332   1.01127
 Alpha virt. eigenvalues --    1.04715   1.20052   1.76038   1.76907   2.26668

 Mulliken charges:
               1
     1  C   -0.657324
     2  H    0.169550
     3  H    0.170648
     4  H    0.157167
     5  H    0.159959
 Sum of Mulliken charges =   0.00000

 Dipole moment (field-independent basis, Debye):
    X=             -0.0162    Y=              0.0093    Z=              0.0813  Tot=              0.0834
 Quadrupole moment (field-independent basis, Debye-Ang):
   XX=             -8.0259   YY=             -8.4503   ZZ=             -8.4940
   XY=              0.0088   XZ=              0.0557   YZ=             -0.0522

 Normal termination of Gaussian 16 at Fri Sep 22 16:32:43 2023.
