 Gaussian 16, Revision A.03,
 Gaussian 16:  ES64L-G16RevA.03 25-Dec-2016

 ----------------
 # 6-31g(d) wb97x
 ----------------

 -----------------------
 tmpdir/M2_conf_2_51.gjf
 -----------------------
 Symbolic Z-matrix:
 Charge =  0 Multiplicity = 1

                         Standard orientation:
 ---------------------------------------------------------------------
 Center     Atomic      Atomic             Coordinates (Angstroms)
 Number     Number       Type             X           Y           Z
 ---------------------------------------------------------------------
      1          6           0        0.151810    0.385030    0.002168
      2          7           0       -1.076859   -0.152420   -0.022473
      3          1           0       -1.877229    0.465182    0.065861
      4          8           0        1.216916   -0.258450    0.002777
      5          1           0        0.198454    1.476236    0.003444
      6          1           0       -1.429400   -1.117060    0.052787
 ---------------------------------------------------------------------

 SCF Done:  E(RwB97X) =  -169.834673035     A.U. after   16 cycles

 The electronic state is 1-A.
 Alpha  occ. eigenvalues --  -19.17519 -14.44863 -10.37559  -1.14109  -1.03815
 Alpha  occ. eigenvalues --   -0.75874  -0.65834  -0.59711  -0.51011  -0.50314
 Alpha  occ. eigenvalues --   -0.36905  -0.34940
 Alpha virt. eigenvalues --    0.12372   0.16975   0.19369   0.27410   0.36792
 Alpha virt. eigenvalues --    0.45780   0.64314   0.64449   0.74656   0.77702
 Alpha virt. eigenvalues --    0.81968   0.85668   0.95243   0.98024   0.98821

 Mulliken charges:
               1
     1  C    0.345504
     2  N   -0.729311
     3  H    0.342907
     4  O   -0.468269
     5  H    0.139182
     6  H    0.369987
 Sum of Mulliken charges =  -0.00000

 Dipole moment (field-independent basis, Debye):
    X=             -4.2388    Y=              0.9340    Z=              0.2813  Tot=              4.3496
 Quadrupole moment (field-independent basis, Debye-Ang):
   XX=            -16.8273   YY=            -14.8834   ZZ=            -18.4676
   XY=              1.7249   XZ=             -0.5074   YZ=             -0.0721

 Normal termination of Gaussian 16 at Fri Sep 22 16:32:45 2023.
