 Gaussian 16, Revision A.03,
 Gaussian 16:  ES64L-G16RevA.03 25-Dec-2016

 ----------------
 # 6-31g(d) wb97x
 ----------------

 -----------------------
 tmpdir/M2_conf_2_18.gjf
 -----------------------
 Symbolic Z-matrix:
 Charge =  0 Multiplicity = 1

                         Standard orientation:
 ---------------------------------------------------------------------
 Center     Atomic      Atomic             Coordinates (Angstroms)
 Number     Number       Type             X           Y           Z
 ---------------------------------------------------------------------
      1          6           0       -0.765616    0.018990    0.001592
      2          6           0        0.761156    0.010059    0.004362
      3          1           0        1.113469   -0.481013   -0.915805
      4          1           0       -1.118065   -1.035510   -0.403954
      5          1           0       -1.166033    0.846008   -0.617218
      6          1           0       -1.171685    0.095797    1.016577
      7          1           0        1.211901    0.995447    0.057801
      8          1           0        1.157171   -0.595025    0.826870
 ---------------------------------------------------------------------

 SCF Done:  E(RwB97X) =  -79.7947687222     A.U. after   12 cycles

 The electronic state is 1-A.
 Alpha  occ. eigenvalues --  -10.26565 -10.25402  -0.87736  -0.72940  -0.54387
 Alpha  occ. eigenvalues --   -0.53724  -0.46491  -0.44344  -0.43166
 Alpha virt. eigenvalues --    0.19290   0.23698   0.24915   0.25396   0.29609
 Alpha virt. eigenvalues --    0.30801   0.33939   0.61750   0.64758   0.66000
 Alpha virt. eigenvalues --    0.74638   0.76556   0.78888   0.96148   0.99436

 Mulliken charges:
               1
     1  C   -0.458765
     2  C   -0.468504
     3  H    0.155293
     4  H    0.134544
     5  H    0.159391
     6  H    0.160510
     7  H    0.160706
     8  H    0.156825
 Sum of Mulliken charges =   0.00000

 Dipole moment (field-independent basis, Debye):
    X=              0.0586    Y=              0.0208    Z=              0.0350  Tot=              0.0713
 Quadrupole moment (field-independent basis, Debye-Ang):
   XX=            -15.4467   YY=            -14.5878   ZZ=            -14.8394
   XY=             -0.0662   XZ=             -0.0435   YZ=             -0.0772

 Normal termination of Gaussian 16 at Fri Sep 22 16:32:27 2023.
