 Gaussian 16, Revision A.03,
 Gaussian 16:  ES64L-G16RevA.03 25-Dec-2016

 ----------------
 # 6-31g(d) wb97x
 ----------------

 ------------------------
 tmpdir/M2_conf_0_105.gjf
 ------------------------
 Symbolic Z-matrix:
 Charge =  0 Multiplicity = 1

                         Standard orientation:
 ---------------------------------------------------------------------
 Center     Atomic      Atomic             Coordinates (Angstroms)
 Number     Number       Type             X           Y           Z
 ---------------------------------------------------------------------
      1          6           0        0.762227    0.005056   -0.003895
      2          6           0       -0.764166    0.000749   -0.003371
      3          1           0       -1.113079   -1.012089   -0.234013
      4          1           0        1.161527   -0.635192    0.788930
      5          1           0        1.153919    1.018184    0.165272
      6          1           0        1.155630   -0.373138   -0.954614
      7          1           0       -1.210555    0.713535   -0.719327
      8          1           0       -1.135809    0.253871    0.997349
 ---------------------------------------------------------------------

 SCF Done:  E(RwB97X) =  -79.8008661228     A.U. after   12 cycles

 The electronic state is 1-A.
 Alpha  occ. eigenvalues --  -10.25581 -10.25486  -0.87918  -0.73308  -0.54304
 Alpha  occ. eigenvalues --   -0.54058  -0.46630  -0.44118  -0.43995
 Alpha virt. eigenvalues --    0.19930   0.25418   0.25918   0.26191   0.28821
 Alpha virt. eigenvalues --    0.29122   0.33948   0.61695   0.64790   0.65387
 Alpha virt. eigenvalues --    0.73797   0.75146   0.78919   0.99942   1.00050

 Mulliken charges:
               1
     1  C   -0.468324
     2  C   -0.466970
     3  H    0.155719
     4  H    0.156746
     5  H    0.155000
     6  H    0.156018
     7  H    0.156448
     8  H    0.155364
 Sum of Mulliken charges =  -0.00000

 Dipole moment (field-independent basis, Debye):
    X=              0.0054    Y=             -0.0220    Z=              0.0244  Tot=              0.0333
 Quadrupole moment (field-independent basis, Debye-Ang):
   XX=            -15.3220   YY=            -14.6469   ZZ=            -14.7107
   XY=             -0.0875   XZ=              0.0490   YZ=             -0.0033

 Normal termination of Gaussian 16 at Fri Sep 22 16:30:59 2023.
