 Gaussian 16, Revision A.03,
 Gaussian 16:  ES64L-G16RevA.03 25-Dec-2016

 ----------------
 # 6-31g(d) wb97x
 ----------------

 -----------------------
 tmpdir/M2_conf_1_53.gjf
 -----------------------
 Symbolic Z-matrix:
 Charge =  0 Multiplicity = 1

                         Standard orientation:
 ---------------------------------------------------------------------
 Center     Atomic      Atomic             Coordinates (Angstroms)
 Number     Number       Type             X           Y           Z
 ---------------------------------------------------------------------
      1          6           0       -0.681187    0.025249    0.012249
      2          8           0        0.741834   -0.126600    0.011747
      3          1           0       -1.062589   -0.830242   -0.605082
      4          1           0       -1.135925    0.036960    0.998275
      5          1           0       -0.921148    0.953151   -0.540102
      6          1           0        1.272106    0.701432   -0.020560
 ---------------------------------------------------------------------

 SCF Done:  E(RwB97X) =  -115.674186470     A.U. after   13 cycles

 The electronic state is 1-A.
 Alpha  occ. eigenvalues --  -19.20118 -10.31058  -1.12092  -0.80188  -0.60660
 Alpha  occ. eigenvalues --   -0.54735  -0.52392  -0.41561  -0.36586
 Alpha virt. eigenvalues --    0.17165   0.22629   0.26025   0.28294   0.30931
 Alpha virt. eigenvalues --    0.64331   0.66761   0.68904   0.90933   0.96792
 Alpha virt. eigenvalues --    0.97776   1.01475   1.06144   1.09783   1.12606

 Mulliken charges:
               1
     1  C   -0.213267
     2  O   -0.646572
     3  H    0.164392
     4  H    0.155211
     5  H    0.137231
     6  H    0.403004
 Sum of Mulliken charges =  -0.00000

 Dipole moment (field-independent basis, Debye):
    X=             -0.6410    Y=              1.6119    Z=             -0.1065  Tot=              1.7379
 Quadrupole moment (field-independent basis, Debye-Ang):
   XX=            -11.9317   YY=            -12.2958   ZZ=            -13.4133
   XY=              2.3382   XZ=             -0.1291   YZ=              0.0266

 Normal termination of Gaussian 16 at Fri Sep 22 16:31:52 2023.
