 Gaussian 16, Revision A.03,
 Gaussian 16:  ES64L-G16RevA.03 25-Dec-2016

 ----------------
 # 6-31g(d) wb97x
 ----------------

 -----------------------
 tmpdir/M2_conf_2_31.gjf
 -----------------------
 Symbolic Z-matrix:
 Charge =  1 Multiplicity = 1

                         Standard orientation:
 ---------------------------------------------------------------------
 Center     Atomic      Atomic             Coordinates (Angstroms)
 Number     Number       Type             X           Y           Z
 ---------------------------------------------------------------------
      1          7           0       -0.001778   -0.000598   -0.001821
      2          1           0       -0.644643   -0.390469   -0.710501
      3          1           0       -0.043033    1.052817   -0.014433
      4          1           0        1.014300   -0.311029   -0.170798
      5          1           0       -0.314177   -0.347135    0.908478
 ---------------------------------------------------------------------

 SCF Done:  E(RwB97X) =  -56.8735209436     A.U. after   10 cycles

 The electronic state is 1-A.
 Alpha  occ. eigenvalues --  -14.79131  -1.36436  -0.93198  -0.92792  -0.91905
 Alpha virt. eigenvalues --   -0.10805  -0.03452  -0.02096  -0.01681   0.44647
 Alpha virt. eigenvalues --    0.46090   0.47033   0.66773   0.68209   0.69442
 Alpha virt. eigenvalues --    0.71345   1.09529   1.36294   1.36757   2.04361

 Mulliken charges:
               1
     1  N   -0.887340
     2  H    0.471019
     3  H    0.472818
     4  H    0.475528
     5  H    0.467975
 Sum of Mulliken charges =   1.00000

 Dipole moment (field-independent basis, Debye):
    X=              0.0419    Y=              0.0123    Z=              0.0141  Tot=              0.0459
 Quadrupole moment (field-independent basis, Debye-Ang):
   XX=             -4.1005   YY=             -4.2694   ZZ=             -4.5607
   XY=              0.0083   XZ=              0.0043   YZ=             -0.0009

 Normal termination of Gaussian 16 at Fri Sep 22 16:32:27 2023.
