 Gaussian 16, Revision A.03,
 Gaussian 16:  ES64L-G16RevA.03 25-Dec-2016

 ----------------
 # 6-31g(d) wb97x
 ----------------

 -----------------------
 tmpdir/M2_conf_1_62.gjf
 -----------------------
 Symbolic Z-matrix:
 Charge =  0 Multiplicity = 1

                         Standard orientation:
 ---------------------------------------------------------------------
 Center     Atomic      Atomic             Coordinates (Angstroms)
 Number     Number       Type             X           Y           Z
 ---------------------------------------------------------------------
      1          6           0        1.273090   -0.226987    0.000974
      2          6           0        0.136394    0.461908   -0.009983
      3          6           0       -1.232196   -0.152017    0.009101
      4          1           0        2.283178    0.269888    0.006936
      5          1           0        1.297080   -1.311308   -0.025184
      6          1           0        0.221586    1.545437    0.006464
      7          1           0       -1.216837   -1.200566   -0.389319
      8          1           0       -2.026391    0.405111   -0.642255
      9          1           0       -1.622346   -0.205992    1.042801
 ---------------------------------------------------------------------

 SCF Done:  E(RwB97X) =  -117.861195355     A.U. after   13 cycles

 The electronic state is 1-A.
 Alpha  occ. eigenvalues --  -10.27448 -10.27250 -10.26058  -0.91073  -0.80053
 Alpha  occ. eigenvalues --   -0.66726  -0.56745  -0.52227  -0.51504  -0.46117
 Alpha  occ. eigenvalues --   -0.44140  -0.34978
 Alpha virt. eigenvalues --    0.11704   0.19997   0.22590   0.24502   0.26969
 Alpha virt. eigenvalues --    0.27823   0.28791   0.38982   0.46801   0.60168
 Alpha virt. eigenvalues --    0.63982   0.64714   0.71245   0.74263   0.77016

 Mulliken charges:
               1
     1  C   -0.361789
     2  C   -0.074655
     3  C   -0.512042
     4  H    0.151844
     5  H    0.150926
     6  H    0.153607
     7  H    0.164453
     8  H    0.151516
     9  H    0.176142
 Sum of Mulliken charges =  -0.00000

 Dipole moment (field-independent basis, Debye):
    X=             -0.2811    Y=              0.0205    Z=              0.0565  Tot=              0.2875
 Quadrupole moment (field-independent basis, Debye-Ang):
   XX=            -18.8639   YY=            -18.7617   ZZ=            -21.4000
   XY=             -0.0120   XZ=             -0.0129   YZ=              0.0411

 Normal termination of Gaussian 16 at Fri Sep 22 16:31:53 2023.
