 Gaussian 16, Revision A.03,
 Gaussian 16:  ES64L-G16RevA.03 25-Dec-2016

 ----------------
 # 6-31g(d) wb97x
 ----------------

 -----------------------
 tmpdir/M2_conf_0_86.gjf
 -----------------------
 Symbolic Z-matrix:
 Charge =  0 Multiplicity = 1

                         Standard orientation:
 ---------------------------------------------------------------------
 Center     Atomic      Atomic             Coordinates (Angstroms)
 Number     Number       Type             X           Y           Z
 ---------------------------------------------------------------------
      1          6           0        0.221312    0.458463   -0.003403
      2          6           0       -1.143394   -0.151448    0.000225
      3          1           0        0.257972    1.512056    0.008340
      4          8           0        1.212132   -0.294384    0.000695
      5          1           0       -1.248818   -0.761301    0.901488
      6          1           0       -1.223118   -0.821587   -0.859668
      7          1           0       -1.950601    0.583819   -0.036651
 ---------------------------------------------------------------------

 SCF Done:  E(RwB97X) =  -153.778998872     A.U. after   14 cycles

 The electronic state is 1-A.
 Alpha  occ. eigenvalues --  -19.21527 -10.36407 -10.27552  -1.15305  -0.88229
 Alpha  occ. eigenvalues --   -0.71644  -0.58898  -0.55342  -0.53569  -0.50149
 Alpha  occ. eigenvalues --   -0.45280  -0.35762
 Alpha virt. eigenvalues --    0.06205   0.20986   0.22457   0.27168   0.27459
 Alpha virt. eigenvalues --    0.33851   0.37685   0.63283   0.64017   0.68539
 Alpha virt. eigenvalues --    0.70644   0.75549   0.82701   0.88531   0.96338

 Mulliken charges:
               1
     1  C    0.223113
     2  C   -0.553058
     3  H    0.152318
     4  O   -0.398044
     5  H    0.205868
     6  H    0.205553
     7  H    0.164250
 Sum of Mulliken charges =  -0.00000

 Dipole moment (field-independent basis, Debye):
    X=             -2.4354    Y=              1.2257    Z=              0.0088  Tot=              2.7265
 Quadrupole moment (field-independent basis, Debye-Ang):
   XX=            -20.8989   YY=            -17.2576   ZZ=            -17.5007
   XY=              1.1136   XZ=             -0.0186   YZ=             -0.0019

 Normal termination of Gaussian 16 at Fri Sep 22 16:30:56 2023.
