 Gaussian 16, Revision A.03,
 Gaussian 16:  ES64L-G16RevA.03 25-Dec-2016

 ----------------
 # 6-31g(d) wb97x
 ----------------

 ------------------------
 tmpdir/M2_conf_1_117.gjf
 ------------------------
 Symbolic Z-matrix:
 Charge =  0 Multiplicity = 1

                         Standard orientation:
 ---------------------------------------------------------------------
 Center     Atomic      Atomic             Coordinates (Angstroms)
 Number     Number       Type             X           Y           Z
 ---------------------------------------------------------------------
      1          6           0        0.007352   -0.001511   -0.002136
      2          1           0       -0.295354    0.086399    1.044843
      3          1           0        1.106675   -0.088349   -0.081549
      4          1           0       -0.500323   -0.876456   -0.422934
      5          1           0       -0.355113    0.887471   -0.527545
 ---------------------------------------------------------------------

 SCF Done:  E(RwB97X) =  -40.4991329580     A.U. after   11 cycles

 The electronic state is 1-A.
 Alpha  occ. eigenvalues --  -10.25060  -0.81660  -0.49850  -0.49242  -0.49156
 Alpha virt. eigenvalues --    0.21534   0.27382   0.27443   0.27462   0.63865
 Alpha virt. eigenvalues --    0.63954   0.64715   1.01319   1.01528   1.01572
 Alpha virt. eigenvalues --    1.06769   1.20749   1.75840   1.75895   2.33253

 Mulliken charges:
               1
     1  C   -0.665965
     2  H    0.166360
     3  H    0.166573
     4  H    0.166536
     5  H    0.166497
 Sum of Mulliken charges =  -0.00000

 Dipole moment (field-independent basis, Debye):
    X=             -0.0375    Y=              0.0077    Z=              0.0107  Tot=              0.0397
 Quadrupole moment (field-independent basis, Debye-Ang):
   XX=             -8.1392   YY=             -8.3112   ZZ=             -8.3353
   XY=              0.0001   XZ=              0.0002   YZ=             -0.0001

 Normal termination of Gaussian 16 at Fri Sep 22 16:32:07 2023.
