 Gaussian 16, Revision A.03,
 Gaussian 16:  ES64L-G16RevA.03 25-Dec-2016

 ----------------
 # 6-31g(d) wb97x
 ----------------

 -----------------------
 tmpdir/M2_conf_1_56.gjf
 -----------------------
 Symbolic Z-matrix:
 Charge =  0 Multiplicity = 1

                         Standard orientation:
 ---------------------------------------------------------------------
 Center     Atomic      Atomic             Coordinates (Angstroms)
 Number     Number       Type             X           Y           Z
 ---------------------------------------------------------------------
      1          6           0        1.263660   -0.234012    0.021411
      2          6           0       -0.075875    0.544439   -0.008915
      3          8           0       -1.180263   -0.349758   -0.086030
      4          1           0        2.097577    0.494888   -0.001199
      5          1           0        1.178897   -0.934743    0.936901
      6          1           0        1.299368   -0.846156   -0.891829
      7          1           0       -0.095738    1.268892   -0.817590
      8          1           0       -0.177670    1.048662    0.970411
      9          1           0       -1.987040   -0.096041    0.416572
 ---------------------------------------------------------------------

 SCF Done:  E(RwB97X) =  -154.978696345     A.U. after   13 cycles

 The electronic state is 1-A.
 Alpha  occ. eigenvalues --  -19.19985 -10.31162 -10.26490  -1.12480  -0.86624
 Alpha  occ. eigenvalues --   -0.72566  -0.61727  -0.57340  -0.49263  -0.49016
 Alpha  occ. eigenvalues --   -0.46412  -0.40501  -0.36280
 Alpha virt. eigenvalues --    0.16958   0.21073   0.25264   0.26170   0.26996
 Alpha virt. eigenvalues --    0.29169   0.32318   0.32447   0.63525   0.66876
 Alpha virt. eigenvalues --    0.67376   0.70379   0.76961   0.78625   0.91762

 Mulliken charges:
               1
     1  C   -0.467735
     2  C   -0.036195
     3  O   -0.649912
     4  H    0.155322
     5  H    0.155148
     6  H    0.171505
     7  H    0.142440
     8  H    0.124296
     9  H    0.405131
 Sum of Mulliken charges =  -0.00000

 Dipole moment (field-independent basis, Debye):
    X=             -0.2373    Y=              1.2730    Z=              0.9075  Tot=              1.5812
 Quadrupole moment (field-independent basis, Debye-Ang):
   XX=            -17.1183   YY=            -20.4664   ZZ=            -19.4502
   XY=             -0.8759   XZ=             -2.3453   YZ=             -0.3265

 Normal termination of Gaussian 16 at Fri Sep 22 16:31:59 2023.
