 Gaussian 16, Revision A.03,
 Gaussian 16:  ES64L-G16RevA.03 25-Dec-2016

 ----------------
 # 6-31g(d) wb97x
 ----------------

 ------------------------
 tmpdir/M2_conf_1_109.gjf
 ------------------------
 Symbolic Z-matrix:
 Charge =  0 Multiplicity = 1

                         Standard orientation:
 ---------------------------------------------------------------------
 Center     Atomic      Atomic             Coordinates (Angstroms)
 Number     Number       Type             X           Y           Z
 ---------------------------------------------------------------------
      1          6           0       -0.007957    0.000187   -0.000972
      2          1           0        0.358515    0.920278   -0.474802
      3          1           0       -1.110364    0.005003    0.074564
      4          1           0        0.457562   -0.065022    0.987445
      5          1           0        0.342030   -0.861380   -0.581374
 ---------------------------------------------------------------------

 SCF Done:  E(RwB97X) =  -40.4991035873     A.U. after   10 cycles

 The electronic state is 1-A.
 Alpha  occ. eigenvalues --  -10.25111  -0.81625  -0.49859  -0.49336  -0.48993
 Alpha virt. eigenvalues --    0.21506   0.27278   0.27426   0.27470   0.63837
 Alpha virt. eigenvalues --    0.64104   0.64696   1.01193   1.01485   1.01500
 Alpha virt. eigenvalues --    1.06568   1.20699   1.75817   1.75986   2.33297

 Mulliken charges:
               1
     1  C   -0.665474
     2  H    0.165971
     3  H    0.166896
     4  H    0.166265
     5  H    0.166342
 Sum of Mulliken charges =  -0.00000

 Dipole moment (field-independent basis, Debye):
    X=              0.0378    Y=             -0.0024    Z=              0.0061  Tot=              0.0383
 Quadrupole moment (field-independent basis, Debye-Ang):
   XX=             -8.1440   YY=             -8.2894   ZZ=             -8.3619
   XY=             -0.0011   XZ=              0.0005   YZ=              0.0014

 Normal termination of Gaussian 16 at Fri Sep 22 16:32:06 2023.
