 Gaussian 16, Revision A.03,
 Gaussian 16:  ES64L-G16RevA.03 25-Dec-2016

 ----------------
 # 6-31g(d) wb97x
 ----------------

 -----------------------
 tmpdir/M2_conf_1_91.gjf
 -----------------------
 Symbolic Z-matrix:
 Charge =  0 Multiplicity = 1

                         Standard orientation:
 ---------------------------------------------------------------------
 Center     Atomic      Atomic             Coordinates (Angstroms)
 Number     Number       Type             X           Y           Z
 ---------------------------------------------------------------------
      1          6           0       -0.003098   -0.006199   -0.006958
      2          1           0        0.088274   -0.239705    1.054938
      3          1           0        0.839035   -0.461372   -0.532817
      4          1           0        0.068807    1.079798   -0.110651
      5          1           0       -0.977531   -0.341528   -0.369720
 ---------------------------------------------------------------------

 SCF Done:  E(RwB97X) =  -40.4991565239     A.U. after   11 cycles

 The electronic state is 1-A.
 Alpha  occ. eigenvalues --  -10.24842  -0.81808  -0.50189  -0.49169  -0.49157
 Alpha virt. eigenvalues --    0.21671   0.27377   0.27513   0.27862   0.63762
 Alpha virt. eigenvalues --    0.63866   0.64480   1.01421   1.01653   1.02629
 Alpha virt. eigenvalues --    1.07336   1.20889   1.75648   1.75947   2.34278

 Mulliken charges:
               1
     1  C   -0.668251
     2  H    0.165970
     3  H    0.168047
     4  H    0.165451
     5  H    0.168783
 Sum of Mulliken charges =   0.00000

 Dipole moment (field-independent basis, Debye):
    X=              0.0116    Y=              0.0221    Z=              0.0279  Tot=              0.0374
 Quadrupole moment (field-independent basis, Debye-Ang):
   XX=             -8.1109   YY=             -8.3158   ZZ=             -8.3197
   XY=              0.0009   XZ=              0.0010   YZ=              0.0071

 Normal termination of Gaussian 16 at Fri Sep 22 16:32:00 2023.
