 Gaussian 16, Revision A.03,
 Gaussian 16:  ES64L-G16RevA.03 25-Dec-2016

 ----------------
 # 6-31g(d) wb97x
 ----------------

 ------------------------
 tmpdir/M2_conf_2_112.gjf
 ------------------------
 Symbolic Z-matrix:
 Charge =  0 Multiplicity = 1

                         Standard orientation:
 ---------------------------------------------------------------------
 Center     Atomic      Atomic             Coordinates (Angstroms)
 Number     Number       Type             X           Y           Z
 ---------------------------------------------------------------------
      1          6           0       -0.762784    0.000620   -0.003368
      2          6           0        0.763612    0.004417   -0.003966
      3          1           0        1.146154    1.016059    0.192739
      4          1           0       -1.209008    0.732357   -0.700051
      5          1           0       -1.127445   -1.000474   -0.259498
      6          1           0       -1.134223    0.227152    1.003778
      7          1           0        1.162782   -0.656842    0.771494
      8          1           0        1.156774   -0.348474   -0.964457
 ---------------------------------------------------------------------

 SCF Done:  E(RwB97X) =  -79.8009411321     A.U. after   12 cycles

 The electronic state is 1-A.
 Alpha  occ. eigenvalues --  -10.25567 -10.25504  -0.87910  -0.73322  -0.54277
 Alpha  occ. eigenvalues --   -0.54057  -0.46650  -0.44122  -0.43992
 Alpha virt. eigenvalues --    0.19940   0.25413   0.25920   0.26171   0.28831
 Alpha virt. eigenvalues --    0.29129   0.33963   0.61707   0.64789   0.65331
 Alpha virt. eigenvalues --    0.73848   0.75156   0.78922   0.99946   1.00049

 Mulliken charges:
               1
     1  C   -0.467770
     2  C   -0.467645
     3  H    0.155298
     4  H    0.156196
     5  H    0.155583
     6  H    0.155160
     7  H    0.156937
     8  H    0.156240
 Sum of Mulliken charges =   0.00000

 Dipole moment (field-independent basis, Debye):
    X=              0.0027    Y=             -0.0215    Z=              0.0242  Tot=              0.0324
 Quadrupole moment (field-independent basis, Debye-Ang):
   XX=            -15.3115   YY=            -14.6509   ZZ=            -14.7119
   XY=             -0.0801   XZ=              0.0489   YZ=             -0.0033

 Normal termination of Gaussian 16 at Fri Sep 22 16:33:17 2023.
