 Gaussian 16, Revision A.03,
 Gaussian 16:  ES64L-G16RevA.03 25-Dec-2016

 ----------------
 # 6-31g(d) wb97x
 ----------------

 ----------------------
 tmpdir/M2_conf_1_8.gjf
 ----------------------
 Symbolic Z-matrix:
 Charge =  0 Multiplicity = 1

                         Standard orientation:
 ---------------------------------------------------------------------
 Center     Atomic      Atomic             Coordinates (Angstroms)
 Number     Number       Type             X           Y           Z
 ---------------------------------------------------------------------
      1          6           0        0.968869   -0.687739    0.003546
      2          6           0       -0.510275   -0.208223   -0.011374
      3          6           0       -0.748178    1.271441   -0.001714
      4          8           0        1.781091    0.264359   -0.003843
      5          1           0        1.096427   -1.698480    0.020480
      6          8           0       -1.415300   -0.952621    0.000727
      7          1           0       -1.800221    1.562696   -0.175153
      8          1           0       -0.078169    1.732997   -0.734868
      9          1           0       -0.406859    1.656010    0.971723
 ---------------------------------------------------------------------

 SCF Done:  E(RwB97X) =  -267.059195296     A.U. after   16 cycles

 The electronic state is 1-A.
 Alpha  occ. eigenvalues --  -19.25727 -19.23099 -10.38673 -10.37359 -10.27508
 Alpha  occ. eigenvalues --   -1.21445  -1.18307  -0.88341  -0.81255  -0.68200
 Alpha  occ. eigenvalues --   -0.60707  -0.58849  -0.57825  -0.54851  -0.50720
 Alpha  occ. eigenvalues --   -0.50217  -0.47662  -0.43014  -0.34798
 Alpha virt. eigenvalues --   -0.00542   0.13340   0.21034   0.22864   0.25124
 Alpha virt. eigenvalues --    0.26752   0.29301   0.34929   0.39862   0.42956
 Alpha virt. eigenvalues --    0.60853   0.63863   0.65659   0.68331   0.71229

 Mulliken charges:
               1
     1  C    0.182415
     2  C    0.351182
     3  C   -0.555835
     4  O   -0.373607
     5  H    0.193616
     6  O   -0.377251
     7  H    0.194369
     8  H    0.193119
     9  H    0.191992
 Sum of Mulliken charges =  -0.00000

 Dipole moment (field-independent basis, Debye):
    X=              0.2456    Y=              0.0090    Z=              0.0477  Tot=              0.2503
 Quadrupole moment (field-independent basis, Debye-Ang):
   XX=            -35.0204   YY=            -27.3017   ZZ=            -27.0631
   XY=             -5.3564   XZ=              0.0215   YZ=              0.0564

 Normal termination of Gaussian 16 at Fri Sep 22 16:31:42 2023.
