 Gaussian 16, Revision A.03,
 Gaussian 16:  ES64L-G16RevA.03 25-Dec-2016

 ----------------
 # 6-31g(d) wb97x
 ----------------

 -----------------------
 tmpdir/M2_conf_1_58.gjf
 -----------------------
 Symbolic Z-matrix:
 Charge =  0 Multiplicity = 1

                         Standard orientation:
 ---------------------------------------------------------------------
 Center     Atomic      Atomic             Coordinates (Angstroms)
 Number     Number       Type             X           Y           Z
 ---------------------------------------------------------------------
      1          6           0       -0.723135   -0.335882    0.152937
      2          6           0        0.502103    0.529607    0.157623
      3          8           0        1.626417   -0.235599   -0.261424
      4          8           0       -1.783333    0.048008   -0.166369
      5          1           0       -0.659011   -1.365402    0.495779
      6          1           0        0.396426    1.393755   -0.549852
      7          1           0        0.675861    0.956205    1.163350
      8          1           0        2.168238   -0.646177    0.449714
 ---------------------------------------------------------------------

 SCF Done:  E(RwB97X) =  -228.961273490     A.U. after   16 cycles

 The electronic state is 1-A.
 Alpha  occ. eigenvalues --  -19.22765 -19.21867 -10.35605 -10.33543  -1.19850
 Alpha  occ. eigenvalues --   -1.15116  -0.85794  -0.71306  -0.64371  -0.60539
 Alpha  occ. eigenvalues --   -0.56817  -0.53144  -0.50670  -0.43762  -0.41362
 Alpha  occ. eigenvalues --   -0.34992
 Alpha virt. eigenvalues --    0.07624   0.16204   0.21497   0.22660   0.25991
 Alpha virt. eigenvalues --    0.31653   0.37670   0.40371   0.63038   0.65025
 Alpha virt. eigenvalues --    0.67319   0.74303   0.77368   0.84486   0.86110

 Mulliken charges:
               1
     1  C    0.236586
     2  C   -0.142577
     3  O   -0.637688
     4  O   -0.354989
     5  H    0.120549
     6  H    0.198855
     7  H    0.167653
     8  H    0.411612
 Sum of Mulliken charges =  -0.00000

 Dipole moment (field-independent basis, Debye):
    X=              2.1630    Y=             -0.3306    Z=              2.2779  Tot=              3.1586
 Quadrupole moment (field-independent basis, Debye-Ang):
   XX=            -27.3316   YY=            -21.6167   ZZ=            -22.3534
   XY=             -0.3154   XZ=              2.6449   YZ=             -0.9366

 Normal termination of Gaussian 16 at Fri Sep 22 16:31:52 2023.
