 Gaussian 16, Revision A.03,
 Gaussian 16:  ES64L-G16RevA.03 25-Dec-2016

 ----------------
 # 6-31g(d) wb97x
 ----------------

 -----------------------
 tmpdir/M2_conf_0_32.gjf
 -----------------------
 Symbolic Z-matrix:
 Charge =  1 Multiplicity = 1

                         Standard orientation:
 ---------------------------------------------------------------------
 Center     Atomic      Atomic             Coordinates (Angstroms)
 Number     Number       Type             X           Y           Z
 ---------------------------------------------------------------------
      1          6           0        0.796935    0.001450   -0.000252
      2          7           0       -0.708763   -0.000829   -0.001541
      3          1           0       -1.123232    0.988477    0.081161
      4          1           0        1.122774   -1.028745   -0.233113
      5          1           0        1.202106    0.730434   -0.729393
      6          1           0        1.090877    0.299595    1.012515
      7          1           0       -1.052213   -0.404751   -0.876304
      8          1           0       -1.060584   -0.587906    0.757437
 ---------------------------------------------------------------------

 SCF Done:  E(RwB97X) =  -96.1818328217     A.U. after   12 cycles

 The electronic state is 1-A.
 Alpha  occ. eigenvalues --  -14.76716 -10.53565  -1.35151  -1.05703  -0.92187
 Alpha  occ. eigenvalues --   -0.91453  -0.81204  -0.73039  -0.72630
 Alpha virt. eigenvalues --   -0.08738  -0.01865  -0.00382   0.01720   0.05162
 Alpha virt. eigenvalues --    0.06239   0.06478   0.40147   0.41967   0.42219
 Alpha virt. eigenvalues --    0.55460   0.57061   0.58715   0.69432   0.72547

 Mulliken charges:
               1
     1  C   -0.417687
     2  N   -0.750326
     3  H    0.457208
     4  H    0.266525
     5  H    0.273543
     6  H    0.265364
     7  H    0.451205
     8  H    0.454168
 Sum of Mulliken charges =   1.00000

 Dipole moment (field-independent basis, Debye):
    X=             -2.2999    Y=              0.0347    Z=             -0.0464  Tot=              2.3007
 Quadrupole moment (field-independent basis, Debye-Ang):
   XX=             -7.0957   YY=             -9.8561   ZZ=            -10.2907
   XY=             -0.0544   XZ=             -0.0792   YZ=             -0.0256

 Normal termination of Gaussian 16 at Fri Sep 22 16:30:20 2023.
