 Gaussian 16, Revision A.03,
 Gaussian 16:  ES64L-G16RevA.03 25-Dec-2016

 ----------------
 # 6-31g(d) wb97x
 ----------------

 ----------------------
 tmpdir/M2_conf_1_3.gjf
 ----------------------
 Symbolic Z-matrix:
 Charge = -1 Multiplicity = 1

                         Standard orientation:
 ---------------------------------------------------------------------
 Center     Atomic      Atomic             Coordinates (Angstroms)
 Number     Number       Type             X           Y           Z
 ---------------------------------------------------------------------
      1          8           0        1.122542   -0.216908    0.000193
      2          6           0       -0.005366    0.325379   -0.000784
      3          8           0       -1.125646   -0.208294    0.000205
      4          1           0        0.057029    1.449345    0.001522
 ---------------------------------------------------------------------

 SCF Done:  E(RwB97X) =  -189.128951061     A.U. after   15 cycles

 The electronic state is 1-A.
 Alpha  occ. eigenvalues --  -18.90974 -18.90394 -10.11101  -0.90181  -0.81171
 Alpha  occ. eigenvalues --   -0.42237  -0.30453  -0.26432  -0.25751  -0.10305
 Alpha  occ. eigenvalues --   -0.09659  -0.09093
 Alpha virt. eigenvalues --    0.40552   0.46300   0.64442   0.65230   0.87460
 Alpha virt. eigenvalues --    0.98374   1.03832   1.09035   1.18611   1.22427
 Alpha virt. eigenvalues --    1.23691   1.32814   1.39430   1.42281   1.44338

 Mulliken charges:
               1
     1  O   -0.614779
     2  C    0.304842
     3  O   -0.600332
     4  H   -0.089731
 Sum of Mulliken charges =  -1.00000

 Dipole moment (field-independent basis, Debye):
    X=             -0.0638    Y=              1.1730    Z=             -0.0022  Tot=              1.1747
 Quadrupole moment (field-independent basis, Debye-Ang):
   XX=            -26.7310   YY=            -19.4374   ZZ=            -17.5172
   XY=              0.0596   XZ=              0.0001   YZ=             -0.0012

 Normal termination of Gaussian 16 at Fri Sep 22 16:31:21 2023.
