 Gaussian 16, Revision A.03,
 Gaussian 16:  ES64L-G16RevA.03 25-Dec-2016

 ----------------
 # 6-31g(d) wb97x
 ----------------

 -----------------------
 tmpdir/M2_conf_0_14.gjf
 -----------------------
 Symbolic Z-matrix:
 Charge =  0 Multiplicity = 1

                         Standard orientation:
 ---------------------------------------------------------------------
 Center     Atomic      Atomic             Coordinates (Angstroms)
 Number     Number       Type             X           Y           Z
 ---------------------------------------------------------------------
      1          6           0       -0.956746    0.402847    0.046016
      2          6           0        0.506656    0.714358   -0.040689
      3          6           0        1.449233   -0.484782    0.028130
      4          1           0       -1.626898    1.300335    0.158320
      5          8           0       -1.372722   -0.690116   -0.029795
      6          1           0        0.751246    1.440966    0.741417
      7          1           0        0.675928    1.252197   -0.986236
      8          1           0        2.495335   -0.128640   -0.395546
      9          1           0        1.052439   -1.346885   -0.543314
     10          1           0        1.638867   -0.791574    1.062978
 ---------------------------------------------------------------------

 SCF Done:  E(RwB97X) =  -193.082664108     A.U. after   14 cycles

 The electronic state is 1-A.
 Alpha  occ. eigenvalues --  -19.21704 -10.35906 -10.27939 -10.27410  -1.19449
 Alpha  occ. eigenvalues --   -0.91210  -0.78583  -0.67069  -0.60613  -0.57816
 Alpha  occ. eigenvalues --   -0.55198  -0.50106  -0.47626  -0.46679  -0.44746
 Alpha  occ. eigenvalues --   -0.35371
 Alpha virt. eigenvalues --    0.08831   0.18428   0.22044   0.22685   0.25034
 Alpha virt. eigenvalues --    0.27203   0.29439   0.31079   0.38860   0.40208
 Alpha virt. eigenvalues --    0.61995   0.63606   0.67340   0.68041   0.70461

 Mulliken charges:
               1
     1  C    0.245113
     2  C   -0.382037
     3  C   -0.466554
     4  H    0.111755
     5  O   -0.356600
     6  H    0.171526
     7  H    0.181978
     8  H    0.137665
     9  H    0.186617
    10  H    0.170538
 Sum of Mulliken charges =   0.00000

 Dipole moment (field-independent basis, Debye):
    X=              1.2533    Y=              2.0502    Z=              0.0884  Tot=              2.4045
 Quadrupole moment (field-independent basis, Debye-Ang):
   XX=            -26.9435   YY=            -25.1559   ZZ=            -24.0188
   XY=             -2.2912   XZ=             -0.0562   YZ=             -0.0640

 Normal termination of Gaussian 16 at Fri Sep 22 16:30:27 2023.
