 Gaussian 16, Revision A.03,
 Gaussian 16:  ES64L-G16RevA.03 25-Dec-2016

 ----------------
 # 6-31g(d) wb97x
 ----------------

 -----------------------
 tmpdir/M2_conf_0_56.gjf
 -----------------------
 Symbolic Z-matrix:
 Charge =  0 Multiplicity = 1

                         Standard orientation:
 ---------------------------------------------------------------------
 Center     Atomic      Atomic             Coordinates (Angstroms)
 Number     Number       Type             X           Y           Z
 ---------------------------------------------------------------------
      1          6           0        1.326528   -0.203264    0.019531
      2          6           0       -0.069144    0.469424   -0.009648
      3          8           0       -1.246491   -0.326514   -0.084188
      4          1           0        2.101653    0.587836   -0.004271
      5          1           0        1.297084   -0.908011    0.935390
      6          1           0        1.408434   -0.811259   -0.893506
      7          1           0       -0.145733    1.189794   -0.818586
      8          1           0       -0.208537    0.964749    0.969589
      9          1           0       -2.025281   -0.007953    0.425585
 ---------------------------------------------------------------------

 SCF Done:  E(RwB97X) =  -154.970281275     A.U. after   13 cycles

 The electronic state is 1-A.
 Alpha  occ. eigenvalues --  -19.19618 -10.31130 -10.27055  -1.12293  -0.86869
 Alpha  occ. eigenvalues --   -0.72739  -0.61177  -0.57324  -0.50123  -0.49425
 Alpha  occ. eigenvalues --   -0.46891  -0.39583  -0.35779
 Alpha virt. eigenvalues --    0.16407   0.20965   0.24986   0.26118   0.26662
 Alpha virt. eigenvalues --    0.29007   0.31301   0.34439   0.63257   0.66534
 Alpha virt. eigenvalues --    0.68238   0.70138   0.77504   0.78400   0.91941

 Mulliken charges:
               1
     1  C   -0.476454
     2  C   -0.023267
     3  O   -0.660819
     4  H    0.165544
     5  H    0.156317
     6  H    0.171898
     7  H    0.140056
     8  H    0.118976
     9  H    0.407752
 Sum of Mulliken charges =  -0.00000

 Dipole moment (field-independent basis, Debye):
    X=             -0.0185    Y=              1.2952    Z=              0.9265  Tot=              1.5926
 Quadrupole moment (field-independent basis, Debye-Ang):
   XX=            -17.0966   YY=            -20.5744   ZZ=            -19.4473
   XY=             -1.2533   XZ=             -2.4179   YZ=             -0.2472

 Normal termination of Gaussian 16 at Fri Sep 22 16:30:51 2023.
