 Gaussian 16, Revision A.03,
 Gaussian 16:  ES64L-G16RevA.03 25-Dec-2016

 ----------------
 # 6-31g(d) wb97x
 ----------------

 -----------------------
 tmpdir/M2_conf_1_48.gjf
 -----------------------
 Symbolic Z-matrix:
 Charge =  0 Multiplicity = 1

                         Standard orientation:
 ---------------------------------------------------------------------
 Center     Atomic      Atomic             Coordinates (Angstroms)
 Number     Number       Type             X           Y           Z
 ---------------------------------------------------------------------
      1          7           0        0.014977   -0.025489   -0.016919
      2          1           0       -0.049657    0.998094    0.032256
      3          1           0       -0.931956   -0.426212    0.039906
      4          1           0        0.876775   -0.393461    0.046268
 ---------------------------------------------------------------------

 SCF Done:  E(RwB97X) =  -56.5103582775     A.U. after   12 cycles

 The electronic state is 1-A.
 Alpha  occ. eigenvalues --  -14.36228  -0.95112  -0.60664  -0.54774  -0.32367
 Alpha virt. eigenvalues --    0.19241   0.27331   0.30056   0.77261   0.83734
 Alpha virt. eigenvalues --    0.89367   0.94045   1.03579   1.10704   1.21762
 Alpha virt. eigenvalues --    1.79773   1.82678   2.26359   2.37245   2.56249

 Mulliken charges:
               1
     1  N   -0.986545
     2  H    0.311827
     3  H    0.332545
     4  H    0.342173
 Sum of Mulliken charges =  -0.00000

 Dipole moment (field-independent basis, Debye):
    X=             -0.1303    Y=              0.2046    Z=              0.3370  Tot=              0.4152
 Quadrupole moment (field-independent basis, Debye-Ang):
   XX=             -5.0350   YY=             -5.8961   ZZ=             -9.2755
   XY=             -0.0584   XZ=              0.0164   YZ=             -0.0190

 Normal termination of Gaussian 16 at Fri Sep 22 16:31:35 2023.
