 Gaussian 16, Revision A.03,
 Gaussian 16:  ES64L-G16RevA.03 25-Dec-2016

 ----------------
 # 6-31g(d) wb97x
 ----------------

 -----------------------
 tmpdir/M2_conf_1_27.gjf
 -----------------------
 Symbolic Z-matrix:
 Charge =  1 Multiplicity = 1

                         Standard orientation:
 ---------------------------------------------------------------------
 Center     Atomic      Atomic             Coordinates (Angstroms)
 Number     Number       Type             X           Y           Z
 ---------------------------------------------------------------------
      1          7           0       -0.710405   -0.000441   -0.003434
      2          6           0        0.795288   -0.002103    0.000795
      3          1           0        1.054417    0.336211    1.010443
      4          1           0       -1.057352    1.016858    0.042265
      5          1           0       -1.053283   -0.436253   -0.862985
      6          1           0       -1.065272   -0.557589    0.776401
      7          1           0        1.118765   -1.041219   -0.192275
      8          1           0        1.203834    0.697696   -0.754581
 ---------------------------------------------------------------------

 SCF Done:  E(RwB97X) =  -96.1807139565     A.U. after   12 cycles

 The electronic state is 1-A.
 Alpha  occ. eigenvalues --  -14.76676 -10.53574  -1.35192  -1.05582  -0.92282
 Alpha  occ. eigenvalues --   -0.91863  -0.80839  -0.73114  -0.72739
 Alpha virt. eigenvalues --   -0.08866  -0.01773  -0.00399   0.01749   0.04971
 Alpha virt. eigenvalues --    0.06158   0.06357   0.40113   0.42071   0.42831
 Alpha virt. eigenvalues --    0.54811   0.56721   0.58288   0.69255   0.72517

 Mulliken charges:
               1
     1  N   -0.747776
     2  C   -0.419295
     3  H    0.262416
     4  H    0.457785
     5  H    0.451670
     6  H    0.455198
     7  H    0.266583
     8  H    0.273420
 Sum of Mulliken charges =   1.00000

 Dipole moment (field-independent basis, Debye):
    X=             -2.2458    Y=              0.0599    Z=             -0.0609  Tot=              2.2475
 Quadrupole moment (field-independent basis, Debye-Ang):
   XX=             -7.4361   YY=             -9.7312   ZZ=            -10.2617
   XY=              0.0333   XZ=             -0.1233   YZ=             -0.0310

 Normal termination of Gaussian 16 at Fri Sep 22 16:31:23 2023.
