 Gaussian 16, Revision A.03,
 Gaussian 16:  ES64L-G16RevA.03 25-Dec-2016

 ----------------
 # 6-31g(d) wb97x
 ----------------

 -----------------------
 tmpdir/M2_conf_0_33.gjf
 -----------------------
 Symbolic Z-matrix:
 Charge =  1 Multiplicity = 1

                         Standard orientation:
 ---------------------------------------------------------------------
 Center     Atomic      Atomic             Coordinates (Angstroms)
 Number     Number       Type             X           Y           Z
 ---------------------------------------------------------------------
      1          6           0        0.793858   -0.002656   -0.000879
      2          7           0       -0.711839    0.000292   -0.001374
      3          1           0       -1.063717   -0.409442   -0.870063
      4          1           0        1.115989   -1.036074   -0.224413
      5          1           0        1.201162    0.718033   -0.737034
      6          1           0        1.089387    0.303774    1.008955
      7          1           0       -1.057815    1.016132    0.074279
      8          1           0       -1.065284   -0.578534    0.763165
 ---------------------------------------------------------------------

 SCF Done:  E(RwB97X) =  -96.1812530327     A.U. after   12 cycles

 The electronic state is 1-A.
 Alpha  occ. eigenvalues --  -14.76722 -10.53541  -1.35183  -1.05582  -0.92261
 Alpha  occ. eigenvalues --   -0.91805  -0.81012  -0.73022  -0.72662
 Alpha virt. eigenvalues --   -0.08830  -0.01765  -0.00415   0.01719   0.05122
 Alpha virt. eigenvalues --    0.06206   0.06361   0.40126   0.41848   0.42780
 Alpha virt. eigenvalues --    0.55268   0.56740   0.58261   0.69281   0.72520

 Mulliken charges:
               1
     1  C   -0.422335
     2  N   -0.747434
     3  H    0.452234
     4  H    0.266274
     5  H    0.273044
     6  H    0.265152
     7  H    0.457811
     8  H    0.455254
 Sum of Mulliken charges =   1.00000

 Dipole moment (field-independent basis, Debye):
    X=             -2.2481    Y=              0.0672    Z=             -0.0410  Tot=              2.2495
 Quadrupole moment (field-independent basis, Debye-Ang):
   XX=             -7.3318   YY=             -9.7387   ZZ=            -10.2948
   XY=              0.0575   XZ=             -0.0609   YZ=             -0.0248

 Normal termination of Gaussian 16 at Fri Sep 22 16:30:15 2023.
