 Gaussian 16, Revision A.03,
 Gaussian 16:  ES64L-G16RevA.03 25-Dec-2016

 ----------------
 # 6-31g(d) wb97x
 ----------------

 -----------------------
 tmpdir/M2_conf_0_40.gjf
 -----------------------
 Symbolic Z-matrix:
 Charge =  0 Multiplicity = 1

                         Standard orientation:
 ---------------------------------------------------------------------
 Center     Atomic      Atomic             Coordinates (Angstroms)
 Number     Number       Type             X           Y           Z
 ---------------------------------------------------------------------
      1          6           0        0.007728   -0.003016   -0.017772
      2          1           0        0.188681    1.066313    0.263850
      3          1           0        0.897587   -0.389771   -0.552368
      4          1           0       -1.018877   -0.081642   -0.543344
      5          1           0       -0.113760   -0.576803    0.938492
 ---------------------------------------------------------------------

 SCF Done:  E(RwB97X) =  -40.4941759913     A.U. after   11 cycles

 The electronic state is 1-A.
 Alpha  occ. eigenvalues --  -10.26338  -0.80855  -0.50276  -0.48691  -0.47684
 Alpha virt. eigenvalues --    0.20612   0.25544   0.26601   0.27250   0.64223
 Alpha virt. eigenvalues --    0.64632   0.66590   0.97167   0.99546   1.00919
 Alpha virt. eigenvalues --    1.03299   1.19840   1.76148   1.77046   2.26598

 Mulliken charges:
               1
     1  C   -0.654137
     2  H    0.163183
     3  H    0.171735
     4  H    0.158212
     5  H    0.161008
 Sum of Mulliken charges =   0.00000

 Dipole moment (field-independent basis, Debye):
    X=              0.0140    Y=              0.0060    Z=              0.0730  Tot=              0.0746
 Quadrupole moment (field-independent basis, Debye-Ang):
   XX=             -8.0496   YY=             -8.4269   ZZ=             -8.5483
   XY=             -0.0251   XZ=             -0.0562   YZ=              0.0231

 Normal termination of Gaussian 16 at Fri Sep 22 16:30:31 2023.
