 Gaussian 16, Revision A.03,
 Gaussian 16:  ES64L-G16RevA.03 25-Dec-2016

 ----------------
 # 6-31g(d) wb97x
 ----------------

 -----------------------
 tmpdir/M2_conf_0_47.gjf
 -----------------------
 Symbolic Z-matrix:
 Charge =  0 Multiplicity = 1

                         Standard orientation:
 ---------------------------------------------------------------------
 Center     Atomic      Atomic             Coordinates (Angstroms)
 Number     Number       Type             X           Y           Z
 ---------------------------------------------------------------------
      1          7           0       -1.121849   -0.151373   -0.022625
      2          6           0        0.182616    0.391412    0.002001
      3          1           0       -1.491711   -1.109399    0.053966
      4          1           0       -1.887455    0.508550    0.067763
      5          8           0        1.235933   -0.271201    0.002836
      6          1           0        0.248956    1.481599    0.001950
 ---------------------------------------------------------------------

 SCF Done:  E(RwB97X) =  -169.832105150     A.U. after   16 cycles

 The electronic state is 1-A.
 Alpha  occ. eigenvalues --  -19.18735 -14.44439 -10.38633  -1.14182  -1.02289
 Alpha  occ. eigenvalues --   -0.74951  -0.64379  -0.59912  -0.51282  -0.50141
 Alpha  occ. eigenvalues --   -0.36974  -0.35713
 Alpha virt. eigenvalues --    0.11119   0.17058   0.19776   0.26987   0.36141
 Alpha virt. eigenvalues --    0.41400   0.64603   0.65506   0.74202   0.77090
 Alpha virt. eigenvalues --    0.82350   0.84894   0.95522   0.97374   0.99184

 Mulliken charges:
               1
     1  N   -0.762867
     2  C    0.353746
     3  H    0.368542
     4  H    0.339266
     5  O   -0.448095
     6  H    0.149408
 Sum of Mulliken charges =  -0.00000

 Dipole moment (field-independent basis, Debye):
    X=             -3.8732    Y=              1.0933    Z=              0.2927  Tot=              4.0352
 Quadrupole moment (field-independent basis, Debye-Ang):
   XX=            -16.9359   YY=            -14.7693   ZZ=            -18.6161
   XY=              1.7497   XZ=             -0.5343   YZ=             -0.0661

 Normal termination of Gaussian 16 at Fri Sep 22 16:30:40 2023.
