 Gaussian 16, Revision A.03,
 Gaussian 16:  ES64L-G16RevA.03 25-Dec-2016

 ----------------
 # 6-31g(d) wb97x
 ----------------

 -----------------------
 tmpdir/M2_conf_2_25.gjf
 -----------------------
 Symbolic Z-matrix:
 Charge =  0 Multiplicity = 1

                         Standard orientation:
 ---------------------------------------------------------------------
 Center     Atomic      Atomic             Coordinates (Angstroms)
 Number     Number       Type             X           Y           Z
 ---------------------------------------------------------------------
      1          6           0        0.759148    0.010134    0.004277
      2          6           0       -0.767627    0.018363    0.000968
      3          1           0       -1.161045    0.072395    1.022391
      4          1           0        1.209366    0.994314    0.079822
      5          1           0        1.155083   -0.613027    0.813208
      6          1           0        1.134990   -0.456545   -0.919271
      7          1           0       -1.119347   -1.026965   -0.428275
      8          1           0       -1.168173    0.858843   -0.599346
 ---------------------------------------------------------------------

 SCF Done:  E(RwB97X) =  -79.7948052965     A.U. after   12 cycles

 The electronic state is 1-A.
 Alpha  occ. eigenvalues --  -10.26591 -10.25382  -0.87726  -0.72969  -0.54405
 Alpha  occ. eigenvalues --   -0.53634  -0.46552  -0.44348  -0.43151
 Alpha virt. eigenvalues --    0.19315   0.23668   0.24919   0.25363   0.29655
 Alpha virt. eigenvalues --    0.30807   0.33935   0.61762   0.64753   0.65940
 Alpha virt. eigenvalues --    0.74720   0.76550   0.78893   0.96218   0.99443

 Mulliken charges:
               1
     1  C   -0.469671
     2  C   -0.457983
     3  H    0.160916
     4  H    0.160425
     5  H    0.156506
     6  H    0.155055
     7  H    0.135055
     8  H    0.159697
 Sum of Mulliken charges =  -0.00000

 Dipole moment (field-independent basis, Debye):
    X=              0.0622    Y=              0.0196    Z=              0.0369  Tot=              0.0749
 Quadrupole moment (field-independent basis, Debye-Ang):
   XX=            -15.4305   YY=            -14.5888   ZZ=            -14.8466
   XY=             -0.0761   XZ=             -0.0555   YZ=             -0.0804

 Normal termination of Gaussian 16 at Fri Sep 22 16:32:37 2023.
