 Gaussian 16, Revision A.03,
 Gaussian 16:  ES64L-G16RevA.03 25-Dec-2016

 ----------------
 # 6-31g(d) wb97x
 ----------------

 -----------------------
 tmpdir/M2_conf_2_66.gjf
 -----------------------
 Symbolic Z-matrix:
 Charge =  0 Multiplicity = 1

                         Standard orientation:
 ---------------------------------------------------------------------
 Center     Atomic      Atomic             Coordinates (Angstroms)
 Number     Number       Type             X           Y           Z
 ---------------------------------------------------------------------
      1          6           0       -1.193818    0.197481    0.008139
      2          8           0       -0.004462   -0.583729    0.027090
      3          6           0        1.199099    0.192580    0.003653
      4          1           0       -1.912598   -0.387062   -0.624386
      5          1           0       -1.611014    0.412670    0.987328
      6          1           0       -0.972943    1.134185   -0.537286
      7          1           0        1.383106    0.736272    0.951739
      8          1           0        2.013873   -0.505832   -0.257658
      9          1           0        1.103583    0.939234   -0.807214
 ---------------------------------------------------------------------

 SCF Done:  E(RwB97X) =  -154.972272109     A.U. after   13 cycles

 The electronic state is 1-A.
 Alpha  occ. eigenvalues --  -19.20791 -10.31051 -10.30794  -1.14151  -0.84042
 Alpha  occ. eigenvalues --   -0.75631  -0.57897  -0.57216  -0.57104  -0.50528
 Alpha  occ. eigenvalues --   -0.47238  -0.41157  -0.34983
 Alpha virt. eigenvalues --    0.18232   0.22884   0.24226   0.24594   0.26849
 Alpha virt. eigenvalues --    0.28464   0.28853   0.34480   0.62646   0.64012
 Alpha virt. eigenvalues --    0.64868   0.68385   0.69567   0.82342   0.94181

 Mulliken charges:
               1
     1  C   -0.213815
     2  O   -0.473929
     3  C   -0.216923
     4  H    0.164058
     5  H    0.156395
     6  H    0.130035
     7  H    0.144697
     8  H    0.173987
     9  H    0.135495
 Sum of Mulliken charges =   0.00000

 Dipole moment (field-independent basis, Debye):
    X=              0.0482    Y=              1.4431    Z=             -0.0998  Tot=              1.4473
 Quadrupole moment (field-independent basis, Debye-Ang):
   XX=            -16.9745   YY=            -20.9744   ZZ=            -19.8202
   XY=             -0.1237   XZ=             -0.0803   YZ=              0.2802

 Normal termination of Gaussian 16 at Fri Sep 22 16:32:53 2023.
