 Gaussian 16, Revision A.03,
 Gaussian 16:  ES64L-G16RevA.03 25-Dec-2016

 ----------------
 # 6-31g(d) wb97x
 ----------------

 -----------------------
 tmpdir/M2_conf_2_32.gjf
 -----------------------
 Symbolic Z-matrix:
 Charge =  1 Multiplicity = 1

                         Standard orientation:
 ---------------------------------------------------------------------
 Center     Atomic      Atomic             Coordinates (Angstroms)
 Number     Number       Type             X           Y           Z
 ---------------------------------------------------------------------
      1          6           0        0.795606   -0.000045   -0.000372
      2          7           0       -0.710093   -0.000518   -0.001517
      3          1           0       -1.098096    0.999979    0.074698
      4          1           0        1.120182   -1.032324   -0.225640
      5          1           0        1.201587    0.723041   -0.734915
      6          1           0        1.090003    0.305223    1.010138
      7          1           0       -1.054112   -0.410479   -0.873242
      8          1           0       -1.062551   -0.581545    0.761809
 ---------------------------------------------------------------------

 SCF Done:  E(RwB97X) =  -96.1816956898     A.U. after   12 cycles

 The electronic state is 1-A.
 Alpha  occ. eigenvalues --  -14.76720 -10.53552  -1.35163  -1.05644  -0.92211
 Alpha  occ. eigenvalues --   -0.91619  -0.81119  -0.73036  -0.72641
 Alpha virt. eigenvalues --   -0.08772  -0.01811  -0.00393   0.01709   0.05147
 Alpha virt. eigenvalues --    0.06222   0.06432   0.40156   0.41938   0.42414
 Alpha virt. eigenvalues --    0.55389   0.56918   0.58491   0.69377   0.72541

 Mulliken charges:
               1
     1  C   -0.419671
     2  N   -0.749045
     3  H    0.457462
     4  H    0.266386
     5  H    0.273330
     6  H    0.265248
     7  H    0.451640
     8  H    0.454650
 Sum of Mulliken charges =   1.00000

 Dipole moment (field-independent basis, Debye):
    X=             -2.2779    Y=              0.0474    Z=             -0.0453  Tot=              2.2789
 Quadrupole moment (field-independent basis, Debye-Ang):
   XX=             -7.1996   YY=             -9.8069   ZZ=            -10.2886
   XY=             -0.0148   XZ=             -0.0758   YZ=             -0.0250

 Normal termination of Gaussian 16 at Fri Sep 22 16:32:32 2023.
