 Gaussian 16, Revision A.03,
 Gaussian 16:  ES64L-G16RevA.03 25-Dec-2016

 ----------------
 # 6-31g(d) wb97x
 ----------------

 -----------------------
 tmpdir/M2_conf_2_52.gjf
 -----------------------
 Symbolic Z-matrix:
 Charge =  0 Multiplicity = 1

                         Standard orientation:
 ---------------------------------------------------------------------
 Center     Atomic      Atomic             Coordinates (Angstroms)
 Number     Number       Type             X           Y           Z
 ---------------------------------------------------------------------
      1          6           0       -1.145279   -0.121482    0.007901
      2          6           0        0.250272    0.400640   -0.007048
      3          1           0       -1.196964   -1.165265   -0.399872
      4          1           0       -1.902677    0.490928   -0.637624
      5          1           0       -1.537583   -0.159750    1.041490
      6          8           0        1.197591   -0.289225   -0.003516
      7          1           0        0.426532    1.472936    0.019019
 ---------------------------------------------------------------------

 SCF Done:  E(RwB97X) =  -153.777115325     A.U. after   15 cycles

 The electronic state is 1-A.
 Alpha  occ. eigenvalues --  -19.21340 -10.35768 -10.28694  -1.19314  -0.87431
 Alpha  occ. eigenvalues --   -0.70072  -0.59521  -0.55705  -0.54791  -0.48898
 Alpha  occ. eigenvalues --   -0.47262  -0.35470
 Alpha virt. eigenvalues --    0.08390   0.19929   0.21968   0.25432   0.25905
 Alpha virt. eigenvalues --    0.36499   0.38485   0.63066   0.64177   0.70553
 Alpha virt. eigenvalues --    0.72228   0.79578   0.84989   0.86674   0.94179

 Mulliken charges:
               1
     1  C   -0.567948
     2  C    0.248062
     3  H    0.194833
     4  H    0.163284
     5  H    0.197075
     6  O   -0.353842
     7  H    0.118536
 Sum of Mulliken charges =  -0.00000

 Dipole moment (field-independent basis, Debye):
    X=             -2.2590    Y=              1.0473    Z=              0.0872  Tot=              2.4915
 Quadrupole moment (field-independent basis, Debye-Ang):
   XX=            -20.3675   YY=            -17.8700   ZZ=            -17.4928
   XY=              1.2116   XZ=             -0.0678   YZ=              0.0005

 Normal termination of Gaussian 16 at Fri Sep 22 16:32:51 2023.
