 Gaussian 16, Revision A.03,
 Gaussian 16:  ES64L-G16RevA.03 25-Dec-2016

 ----------------
 # 6-31g(d) wb97x
 ----------------

 -----------------------
 tmpdir/M2_conf_2_90.gjf
 -----------------------
 Symbolic Z-matrix:
 Charge =  0 Multiplicity = 1

                         Standard orientation:
 ---------------------------------------------------------------------
 Center     Atomic      Atomic             Coordinates (Angstroms)
 Number     Number       Type             X           Y           Z
 ---------------------------------------------------------------------
      1          6           0        0.003069   -0.006791   -0.006296
      2          1           0       -0.063586   -0.177292    1.068424
      3          1           0       -0.839702   -0.505802   -0.489648
      4          1           0       -0.092047    1.069259   -0.173446
      5          1           0        0.976921   -0.345420   -0.367554
 ---------------------------------------------------------------------

 SCF Done:  E(RwB97X) =  -40.4991540204     A.U. after   10 cycles

 The electronic state is 1-A.
 Alpha  occ. eigenvalues --  -10.24830  -0.81816  -0.50187  -0.49205  -0.49138
 Alpha virt. eigenvalues --    0.21678   0.27380   0.27537   0.27862   0.63754
 Alpha virt. eigenvalues --    0.63848   0.64482   1.01422   1.01709   1.02629
 Alpha virt. eigenvalues --    1.07384   1.20897   1.75643   1.75941   2.34278

 Mulliken charges:
               1
     1  C   -0.668366
     2  H    0.166232
     3  H    0.168004
     4  H    0.165394
     5  H    0.168736
 Sum of Mulliken charges =  -0.00000

 Dipole moment (field-independent basis, Debye):
    X=             -0.0115    Y=              0.0246    Z=              0.0263  Tot=              0.0378
 Quadrupole moment (field-independent basis, Debye-Ang):
   XX=             -8.1101   YY=             -8.3184   ZZ=             -8.3156
   XY=             -0.0003   XZ=             -0.0016   YZ=              0.0070

 Normal termination of Gaussian 16 at Fri Sep 22 16:33:01 2023.
