 Gaussian 16, Revision A.03,
 Gaussian 16:  ES64L-G16RevA.03 25-Dec-2016

 ----------------
 # 6-31g(d) wb97x
 ----------------

 ------------------------
 tmpdir/M2_conf_1_105.gjf
 ------------------------
 Symbolic Z-matrix:
 Charge =  0 Multiplicity = 1

                         Standard orientation:
 ---------------------------------------------------------------------
 Center     Atomic      Atomic             Coordinates (Angstroms)
 Number     Number       Type             X           Y           Z
 ---------------------------------------------------------------------
      1          6           0        0.763325    0.004224   -0.003823
      2          6           0       -0.763072    0.001446   -0.003163
      3          1           0       -1.132789   -0.981632   -0.315636
      4          1           0        1.162147   -0.700599    0.732446
      5          1           0        1.156115    0.999219    0.249496
      6          1           0        1.156104   -0.293394   -0.983013
      7          1           0       -1.208888    0.772162   -0.656742
      8          1           0       -1.134209    0.170222    1.015367
 ---------------------------------------------------------------------

 SCF Done:  E(RwB97X) =  -79.8010018784     A.U. after   12 cycles

 The electronic state is 1-A.
 Alpha  occ. eigenvalues --  -10.25578 -10.25508  -0.87898  -0.73357  -0.54220
 Alpha  occ. eigenvalues --   -0.54054  -0.46697  -0.44122  -0.43988
 Alpha virt. eigenvalues --    0.19964   0.25406   0.25911   0.26124   0.28860
 Alpha virt. eigenvalues --    0.29145   0.33997   0.61729   0.64786   0.65222
 Alpha virt. eigenvalues --    0.73939   0.75204   0.78922   0.99947   1.00044

 Mulliken charges:
               1
     1  C   -0.467960
     2  C   -0.467787
     3  H    0.155822
     4  H    0.156879
     5  H    0.155445
     6  H    0.156181
     7  H    0.156224
     8  H    0.155195
 Sum of Mulliken charges =   0.00000

 Dipole moment (field-independent basis, Debye):
    X=              0.0033    Y=             -0.0232    Z=              0.0229  Tot=              0.0328
 Quadrupole moment (field-independent basis, Debye-Ang):
   XX=            -15.2844   YY=            -14.6636   ZZ=            -14.7142
   XY=             -0.0644   XZ=              0.0492   YZ=             -0.0029

 Normal termination of Gaussian 16 at Fri Sep 22 16:32:06 2023.
