 Gaussian 16, Revision A.03,
 Gaussian 16:  ES64L-G16RevA.03 25-Dec-2016

 ----------------
 # 6-31g(d) wb97x
 ----------------

 -----------------------
 tmpdir/M2_conf_0_96.gjf
 -----------------------
 Symbolic Z-matrix:
 Charge =  0 Multiplicity = 1

                         Standard orientation:
 ---------------------------------------------------------------------
 Center     Atomic      Atomic             Coordinates (Angstroms)
 Number     Number       Type             X           Y           Z
 ---------------------------------------------------------------------
      1          1           0        0.066519    1.036923    0.322097
      2          6           0       -0.003093   -0.002745   -0.008884
      3          1           0        0.090671   -0.636612    0.876718
      4          1           0        0.838864   -0.212791   -0.672123
      5          1           0       -0.977498   -0.171048   -0.473388
 ---------------------------------------------------------------------

 SCF Done:  E(RwB97X) =  -40.4991674436     A.U. after   11 cycles

 The electronic state is 1-A.
 Alpha  occ. eigenvalues --  -10.24864  -0.81792  -0.50189  -0.49166  -0.49134
 Alpha virt. eigenvalues --    0.21659   0.27359   0.27482   0.27863   0.63782
 Alpha virt. eigenvalues --    0.63894   0.64475   1.01389   1.01589   1.02626
 Alpha virt. eigenvalues --    1.07241   1.20869   1.75653   1.75965   2.34288

 Mulliken charges:
               1
     1  H    0.165560
     2  C   -0.668025
     3  H    0.165521
     4  H    0.168107
     5  H    0.168838
 Sum of Mulliken charges =  -0.00000

 Dipole moment (field-independent basis, Debye):
    X=              0.0115    Y=              0.0098    Z=              0.0327  Tot=              0.0360
 Quadrupole moment (field-independent basis, Debye-Ang):
   XX=             -8.1132   YY=             -8.3203   ZZ=             -8.3169
   XY=              0.0008   XZ=              0.0009   YZ=              0.0051

 Normal termination of Gaussian 16 at Fri Sep 22 16:30:53 2023.
