 Gaussian 16, Revision A.03,
 Gaussian 16:  ES64L-G16RevA.03 25-Dec-2016

 ----------------
 # 6-31g(d) wb97x
 ----------------

 ----------------------
 tmpdir/M2_conf_1_6.gjf
 ----------------------
 Symbolic Z-matrix:
 Charge =  0 Multiplicity = 1

                         Standard orientation:
 ---------------------------------------------------------------------
 Center     Atomic      Atomic             Coordinates (Angstroms)
 Number     Number       Type             X           Y           Z
 ---------------------------------------------------------------------
      1          6           0        0.261355    0.403044   -0.009383
      2          6           0       -1.160246   -0.148630   -0.004261
      3          1           0        0.334302    1.526284    0.004967
      4          8           0        1.205455   -0.291122    0.003264
      5          1           0       -1.224576   -1.237867   -0.180635
      6          1           0       -1.750051    0.411875   -0.737356
      7          1           0       -1.609967    0.102199    0.968779
 ---------------------------------------------------------------------

 SCF Done:  E(RwB97X) =  -153.782278483     A.U. after   14 cycles

 The electronic state is 1-A.
 Alpha  occ. eigenvalues --  -19.21731 -10.36440 -10.27811  -1.19396  -0.87509
 Alpha  occ. eigenvalues --   -0.69617  -0.59163  -0.55441  -0.54743  -0.50589
 Alpha  occ. eigenvalues --   -0.47433  -0.35407
 Alpha virt. eigenvalues --    0.08800   0.20580   0.22175   0.25313   0.25778
 Alpha virt. eigenvalues --    0.34836   0.38146   0.62822   0.65329   0.69306
 Alpha virt. eigenvalues --    0.70259   0.78924   0.85357   0.87117   0.94964

 Mulliken charges:
               1
     1  C    0.245243
     2  C   -0.561908
     3  H    0.111460
     4  O   -0.350339
     5  H    0.195878
     6  H    0.174932
     7  H    0.184734
 Sum of Mulliken charges =  -0.00000

 Dipole moment (field-independent basis, Debye):
    X=             -2.2239    Y=              1.1278    Z=              0.0406  Tot=              2.4939
 Quadrupole moment (field-independent basis, Debye-Ang):
   XX=            -20.5648   YY=            -17.6128   ZZ=            -17.6723
   XY=              0.9483   XZ=             -0.1007   YZ=              0.0347

 Normal termination of Gaussian 16 at Fri Sep 22 16:31:24 2023.
