 Gaussian 16, Revision A.03,
 Gaussian 16:  ES64L-G16RevA.03 25-Dec-2016

 ----------------
 # 6-31g(d) wb97x
 ----------------

 ----------------------
 tmpdir/M2_conf_2_9.gjf
 ----------------------
 Symbolic Z-matrix:
 Charge =  0 Multiplicity = 1

                         Standard orientation:
 ---------------------------------------------------------------------
 Center     Atomic      Atomic             Coordinates (Angstroms)
 Number     Number       Type             X           Y           Z
 ---------------------------------------------------------------------
      1          6           0        0.703713    0.469382    0.000288
      2          6           0       -0.560377   -0.436205    0.003951
      3          6           0       -1.773211    0.107598   -0.005117
      4          8           0        1.766408   -0.191631    0.000597
      5          1           0        0.518770    1.471340   -0.005101
      6          1           0       -0.359166   -1.502097   -0.015905
      7          1           0       -2.689758   -0.474314    0.016964
      8          1           0       -1.821860    1.193470    0.004532
 ---------------------------------------------------------------------

 SCF Done:  E(RwB97X) =  -191.835758792     A.U. after   15 cycles

 The electronic state is 1-A.
 Alpha  occ. eigenvalues --  -19.22181 -10.37024 -10.29335 -10.28888  -1.15423
 Alpha  occ. eigenvalues --   -0.92176  -0.77027  -0.70481  -0.58955  -0.57829
 Alpha  occ. eigenvalues --   -0.52906  -0.49767  -0.48808  -0.38287  -0.35966
 Alpha virt. eigenvalues --    0.02896   0.14297   0.19791   0.22213   0.25347
 Alpha virt. eigenvalues --    0.28655   0.33868   0.41939   0.43427   0.60774
 Alpha virt. eigenvalues --    0.61406   0.67242   0.69073   0.71890   0.74377

 Mulliken charges:
               1
     1  C    0.224066
     2  C   -0.155127
     3  C   -0.358723
     4  O   -0.413217
     5  H    0.165747
     6  H    0.186723
     7  H    0.186356
     8  H    0.164175
 Sum of Mulliken charges =  -0.00000

 Dipole moment (field-independent basis, Debye):
    X=             -2.6973    Y=              1.1605    Z=              0.0051  Tot=              2.9363
 Quadrupole moment (field-independent basis, Debye-Ang):
   XX=            -26.7428   YY=            -20.7022   ZZ=            -24.5137
   XY=              1.3608   XZ=             -0.0520   YZ=              0.0194

 Normal termination of Gaussian 16 at Fri Sep 22 16:32:30 2023.
