 Gaussian 16, Revision A.03,
 Gaussian 16:  ES64L-G16RevA.03 25-Dec-2016

 ----------------
 # 6-31g(d) wb97x
 ----------------

 -----------------------
 tmpdir/M2_conf_1_71.gjf
 -----------------------
 Symbolic Z-matrix:
 Charge =  0 Multiplicity = 1

                         Standard orientation:
 ---------------------------------------------------------------------
 Center     Atomic      Atomic             Coordinates (Angstroms)
 Number     Number       Type             X           Y           Z
 ---------------------------------------------------------------------
      1          8           0        1.144894   -0.385659   -0.036939
      2          6           0        0.077604    0.569131   -0.004710
      3          6           0       -1.216226   -0.239453    0.011452
      4          1           0        2.037204   -0.050461    0.179253
      5          1           0        0.122801    1.298518   -0.837946
      6          1           0        0.154261    1.129298    0.946321
      7          1           0       -1.319721   -0.894632    0.895228
      8          1           0       -1.268062   -0.843512   -0.901350
      9          1           0       -2.053906    0.467997   -0.026447
 ---------------------------------------------------------------------

 SCF Done:  E(RwB97X) =  -154.985542397     A.U. after   13 cycles

 The electronic state is 1-A.
 Alpha  occ. eigenvalues --  -19.19948 -10.31444 -10.25605  -1.12314  -0.87065
 Alpha  occ. eigenvalues --   -0.72859  -0.61978  -0.56992  -0.49790  -0.47937
 Alpha  occ. eigenvalues --   -0.46578  -0.41519  -0.36300
 Alpha virt. eigenvalues --    0.17817   0.21540   0.24903   0.26109   0.27527
 Alpha virt. eigenvalues --    0.30158   0.31323   0.33653   0.63235   0.66360
 Alpha virt. eigenvalues --    0.66979   0.69486   0.77413   0.81158   0.92151

 Mulliken charges:
               1
     1  O   -0.645580
     2  C   -0.037292
     3  C   -0.473847
     4  H    0.400715
     5  H    0.135857
     6  H    0.128569
     7  H    0.170964
     8  H    0.171527
     9  H    0.149088
 Sum of Mulliken charges =  -0.00000

 Dipole moment (field-independent basis, Debye):
    X=              0.3336    Y=              1.4329    Z=              0.4042  Tot=              1.5257
 Quadrupole moment (field-independent basis, Debye-Ang):
   XX=            -16.2656   YY=            -20.3716   ZZ=            -19.7850
   XY=              1.4824   XZ=              0.9160   YZ=             -0.2063

 Normal termination of Gaussian 16 at Fri Sep 22 16:32:00 2023.
