 Gaussian 16, Revision A.03,
 Gaussian 16:  ES64L-G16RevA.03 25-Dec-2016

 ----------------
 # 6-31g(d) wb97x
 ----------------

 -----------------------
 tmpdir/M2_conf_1_47.gjf
 -----------------------
 Symbolic Z-matrix:
 Charge =  0 Multiplicity = 1

                         Standard orientation:
 ---------------------------------------------------------------------
 Center     Atomic      Atomic             Coordinates (Angstroms)
 Number     Number       Type             X           Y           Z
 ---------------------------------------------------------------------
      1          7           0       -1.093183   -0.154246   -0.022617
      2          6           0        0.161609    0.386830    0.001913
      3          1           0       -1.450769   -1.116962    0.053458
      4          1           0       -1.867218    0.495778    0.067715
      5          8           0        1.223330   -0.262231    0.002920
      6          1           0        0.213974    1.477778    0.002305
 ---------------------------------------------------------------------

 SCF Done:  E(RwB97X) =  -169.834976128     A.U. after   16 cycles

 The electronic state is 1-A.
 Alpha  occ. eigenvalues --  -19.17935 -14.44721 -10.37914  -1.14077  -1.03315
 Alpha  occ. eigenvalues --   -0.75421  -0.65312  -0.59925  -0.50778  -0.50531
 Alpha  occ. eigenvalues --   -0.36954  -0.35205
 Alpha virt. eigenvalues --    0.11922   0.17027   0.19485   0.27340   0.36551
 Alpha virt. eigenvalues --    0.44237   0.64465   0.64821   0.74751   0.77458
 Alpha virt. eigenvalues --    0.82014   0.84563   0.95335   0.97706   0.98959

 Mulliken charges:
               1
     1  N   -0.740438
     2  C    0.347226
     3  H    0.370583
     4  H    0.341270
     5  O   -0.461222
     6  H    0.142581
 Sum of Mulliken charges =  -0.00000

 Dipole moment (field-independent basis, Debye):
    X=             -4.0981    Y=              0.9969    Z=              0.2873  Tot=              4.2274
 Quadrupole moment (field-independent basis, Debye-Ang):
   XX=            -16.9517   YY=            -14.7966   ZZ=            -18.5229
   XY=              1.7073   XZ=             -0.5213   YZ=             -0.0680

 Normal termination of Gaussian 16 at Fri Sep 22 16:31:47 2023.
