 Gaussian 16, Revision A.03,
 Gaussian 16:  ES64L-G16RevA.03 25-Dec-2016

 ----------------
 # 6-31g(d) wb97x
 ----------------

 ------------------------
 tmpdir/M2_conf_0_125.gjf
 ------------------------
 Symbolic Z-matrix:
 Charge =  0 Multiplicity = 1

                         Standard orientation:
 ---------------------------------------------------------------------
 Center     Atomic      Atomic             Coordinates (Angstroms)
 Number     Number       Type             X           Y           Z
 ---------------------------------------------------------------------
      1          1           0       -0.493365   -0.056992    0.973774
      2          6           0        0.008005   -0.001543    0.001203
      3          1           0       -0.410953   -0.791241   -0.630111
      4          1           0        1.104485   -0.103778    0.099309
      5          1           0       -0.248199    0.961269   -0.450192
 ---------------------------------------------------------------------

 SCF Done:  E(RwB97X) =  -40.4990876399     A.U. after   11 cycles

 The electronic state is 1-A.
 Alpha  occ. eigenvalues --  -10.25065  -0.81658  -0.49897  -0.49221  -0.49123
 Alpha virt. eigenvalues --    0.21530   0.27355   0.27412   0.27507   0.63896
 Alpha virt. eigenvalues --    0.63908   0.64744   1.01295   1.01438   1.01643
 Alpha virt. eigenvalues --    1.06775   1.20748   1.75822   1.75928   2.33176

 Mulliken charges:
               1
     1  H    0.166293
     2  C   -0.665974
     3  H    0.166530
     4  H    0.166755
     5  H    0.166396
 Sum of Mulliken charges =  -0.00000

 Dipole moment (field-independent basis, Debye):
    X=             -0.0396    Y=              0.0075    Z=             -0.0069  Tot=              0.0408
 Quadrupole moment (field-independent basis, Debye-Ang):
   XX=             -8.1305   YY=             -8.3225   ZZ=             -8.3337
   XY=              0.0003   XZ=              0.0009   YZ=              0.0004

 Normal termination of Gaussian 16 at Fri Sep 22 16:31:07 2023.
