 Gaussian 16, Revision A.03,
 Gaussian 16:  ES64L-G16RevA.03 25-Dec-2016

 ----------------
 # 6-31g(d) wb97x
 ----------------

 -----------------------
 tmpdir/M2_conf_0_20.gjf
 -----------------------
 Symbolic Z-matrix:
 Charge =  1 Multiplicity = 1

                         Standard orientation:
 ---------------------------------------------------------------------
 Center     Atomic      Atomic             Coordinates (Angstroms)
 Number     Number       Type             X           Y           Z
 ---------------------------------------------------------------------
      1          6           0        0.753671   -0.002682   -0.000281
      2          7           0       -0.676325    0.000405   -0.001685
      3          1           0        1.075730   -1.037631   -0.216714
      4          1           0        1.161595    0.713132   -0.740841
      5          1           0        1.048618    0.310413    1.007676
      6          1           0       -1.022139    1.016798    0.066967
      7          1           0       -1.021182   -0.416079   -0.869979
      8          1           0       -1.030378   -0.573380    0.766368
 ---------------------------------------------------------------------

 SCF Done:  E(RwB97X) =  -96.1771102525     A.U. after   12 cycles

 The electronic state is 1-A.
 Alpha  occ. eigenvalues --  -14.76963 -10.52889  -1.37053  -1.05984  -0.93406
 Alpha  occ. eigenvalues --   -0.93006  -0.82154  -0.72620  -0.72280
 Alpha virt. eigenvalues --   -0.08977  -0.02348  -0.01036   0.03490   0.06014
 Alpha virt. eigenvalues --    0.06167   0.07597   0.38650   0.42960   0.43878
 Alpha virt. eigenvalues --    0.54354   0.57234   0.58563   0.69136   0.72023

 Mulliken charges:
               1
     1  C   -0.441276
     2  N   -0.720500
     3  H    0.262571
     4  H    0.270284
     5  H    0.261499
     6  H    0.458455
     7  H    0.452754
     8  H    0.456212
 Sum of Mulliken charges =   1.00000

 Dipole moment (field-independent basis, Debye):
    X=             -2.3287    Y=              0.0671    Z=             -0.0467  Tot=              2.3301
 Quadrupole moment (field-independent basis, Debye-Ang):
   XX=             -7.9250   YY=             -9.6791   ZZ=            -10.2247
   XY=              0.0580   XZ=             -0.0791   YZ=             -0.0259

 Normal termination of Gaussian 16 at Fri Sep 22 16:30:23 2023.
