 Gaussian 16, Revision A.03,
 Gaussian 16:  ES64L-G16RevA.03 25-Dec-2016

 ----------------
 # 6-31g(d) wb97x
 ----------------

 -----------------------
 tmpdir/M2_conf_1_39.gjf
 -----------------------
 Symbolic Z-matrix:
 Charge =  0 Multiplicity = 1

                         Standard orientation:
 ---------------------------------------------------------------------
 Center     Atomic      Atomic             Coordinates (Angstroms)
 Number     Number       Type             X           Y           Z
 ---------------------------------------------------------------------
      1          6           0        0.770908   -0.009364   -0.010669
      2          6           0       -0.765458   -0.018549    0.007374
      3          1           0        1.125524   -0.955628   -0.464603
      4          1           0        1.055555    0.983083   -0.530636
      5          1           0        1.103510    0.030909    1.037072
      6          1           0       -1.151799   -0.933578    0.446275
      7          1           0       -1.064938    0.958785    0.573528
      8          1           0       -1.100551    0.083907   -1.041865
 ---------------------------------------------------------------------

 SCF Done:  E(RwB97X) =  -79.7895451900     A.U. after   12 cycles

 The electronic state is 1-A.
 Alpha  occ. eigenvalues --  -10.26309 -10.26205  -0.87798  -0.71927  -0.55227
 Alpha  occ. eigenvalues --   -0.53927  -0.44901  -0.44522  -0.43193
 Alpha virt. eigenvalues --    0.18437   0.24846   0.25700   0.26098   0.27130
 Alpha virt. eigenvalues --    0.28631   0.32425   0.61400   0.66172   0.68453
 Alpha virt. eigenvalues --    0.72038   0.74560   0.78017   0.95189   0.98304

 Mulliken charges:
               1
     1  C   -0.455139
     2  C   -0.456578
     3  H    0.156830
     4  H    0.144847
     5  H    0.156280
     6  H    0.162042
     7  H    0.137099
     8  H    0.154619
 Sum of Mulliken charges =   0.00000

 Dipole moment (field-independent basis, Debye):
    X=             -0.0071    Y=             -0.0572    Z=              0.0129  Tot=              0.0590
 Quadrupole moment (field-independent basis, Debye-Ang):
   XX=            -16.1951   YY=            -14.2927   ZZ=            -14.8668
   XY=              0.0525   XZ=              0.1270   YZ=             -0.0486

 Normal termination of Gaussian 16 at Fri Sep 22 16:31:36 2023.
