 Gaussian 16, Revision A.03,
 Gaussian 16:  ES64L-G16RevA.03 25-Dec-2016

 ----------------
 # 6-31g(d) wb97x
 ----------------

 -----------------------
 tmpdir/M2_conf_1_87.gjf
 -----------------------
 Symbolic Z-matrix:
 Charge =  0 Multiplicity = 1

                         Standard orientation:
 ---------------------------------------------------------------------
 Center     Atomic      Atomic             Coordinates (Angstroms)
 Number     Number       Type             X           Y           Z
 ---------------------------------------------------------------------
      1          7           0       -1.062018   -0.162374   -0.022703
      2          6           0        0.152387    0.406555    0.002305
      3          8           0        1.199306   -0.266120    0.002794
      4          1           0       -1.389661   -1.135703    0.053193
      5          1           0       -1.855896    0.463356    0.066932
      6          1           0        0.170920    1.498599    0.002616
 ---------------------------------------------------------------------

 SCF Done:  E(RwB97X) =  -169.834707805     A.U. after   16 cycles

 The electronic state is 1-A.
 Alpha  occ. eigenvalues --  -19.17415 -14.44608 -10.37519  -1.14205  -1.03486
 Alpha  occ. eigenvalues --   -0.75718  -0.65706  -0.59880  -0.50983  -0.50300
 Alpha  occ. eigenvalues --   -0.36681  -0.34967
 Alpha virt. eigenvalues --    0.12266   0.17138   0.19399   0.27343   0.36528
 Alpha virt. eigenvalues --    0.45840   0.64289   0.64694   0.74907   0.77578
 Alpha virt. eigenvalues --    0.81940   0.84552   0.95037   0.97805   0.98899

 Mulliken charges:
               1
     1  N   -0.723745
     2  C    0.341565
     3  O   -0.471122
     4  H    0.372091
     5  H    0.337644
     6  H    0.143567
 Sum of Mulliken charges =  -0.00000

 Dipole moment (field-independent basis, Debye):
    X=             -4.1513    Y=              0.9994    Z=              0.2834  Tot=              4.2793
 Quadrupole moment (field-independent basis, Debye-Ang):
   XX=            -17.0614   YY=            -14.6696   ZZ=            -18.4647
   XY=              1.7156   XZ=             -0.5047   YZ=             -0.0767

 Normal termination of Gaussian 16 at Fri Sep 22 16:31:59 2023.
