 Gaussian 16, Revision A.03,
 Gaussian 16:  ES64L-G16RevA.03 25-Dec-2016

 ----------------
 # 6-31g(d) wb97x
 ----------------

 -----------------------
 tmpdir/M2_conf_0_52.gjf
 -----------------------
 Symbolic Z-matrix:
 Charge =  0 Multiplicity = 1

                         Standard orientation:
 ---------------------------------------------------------------------
 Center     Atomic      Atomic             Coordinates (Angstroms)
 Number     Number       Type             X           Y           Z
 ---------------------------------------------------------------------
      1          6           0       -1.166039   -0.119161    0.007831
      2          6           0        0.265473    0.402874   -0.007004
      3          1           0       -1.226326   -1.162361   -0.400251
      4          1           0       -1.918176    0.499718   -0.637676
      5          1           0       -1.558867   -0.154456    1.041327
      6          8           0        1.207015   -0.294855   -0.003472
      7          1           0        0.450648    1.473658    0.019408
 ---------------------------------------------------------------------

 SCF Done:  E(RwB97X) =  -153.777052196     A.U. after   15 cycles

 The electronic state is 1-A.
 Alpha  occ. eigenvalues --  -19.21564 -10.36092 -10.28852  -1.19407  -0.86759
 Alpha  occ. eigenvalues --   -0.70151  -0.59276  -0.55356  -0.54699  -0.49001
 Alpha  occ. eigenvalues --   -0.47499  -0.35488
 Alpha virt. eigenvalues --    0.08338   0.20000   0.22003   0.25130   0.25917
 Alpha virt. eigenvalues --    0.35749   0.37986   0.62851   0.64133   0.70273
 Alpha virt. eigenvalues --    0.72258   0.79288   0.85019   0.86478   0.94316

 Mulliken charges:
               1
     1  C   -0.567777
     2  C    0.244558
     3  H    0.193739
     4  H    0.162540
     5  H    0.195172
     6  O   -0.349470
     7  H    0.121238
 Sum of Mulliken charges =  -0.00000

 Dipole moment (field-independent basis, Debye):
    X=             -2.1985    Y=              1.0782    Z=              0.0832  Tot=              2.4501
 Quadrupole moment (field-independent basis, Debye-Ang):
   XX=            -20.3600   YY=            -17.8689   ZZ=            -17.5427
   XY=              1.2597   XZ=             -0.0618   YZ=              0.0034

 Normal termination of Gaussian 16 at Fri Sep 22 16:30:40 2023.
