 Gaussian 16, Revision A.03,
 Gaussian 16:  ES64L-G16RevA.03 25-Dec-2016

 ----------------
 # 6-31g(d) wb97x
 ----------------

 -----------------------
 tmpdir/M2_conf_2_72.gjf
 -----------------------
 Symbolic Z-matrix:
 Charge =  0 Multiplicity = 1

                         Standard orientation:
 ---------------------------------------------------------------------
 Center     Atomic      Atomic             Coordinates (Angstroms)
 Number     Number       Type             X           Y           Z
 ---------------------------------------------------------------------
      1          8           0        0.743701    0.122362    0.016662
      2          6           0       -0.681647   -0.019122    0.005085
      3          1           0       -0.953788   -0.665141   -0.850909
      4          1           0        1.264776   -0.700554   -0.064594
      5          1           0       -1.078439   -0.488632    0.927278
      6          1           0       -1.092270    0.990169   -0.175582
 ---------------------------------------------------------------------

 SCF Done:  E(RwB97X) =  -115.676051286     A.U. after   12 cycles

 The electronic state is 1-A.
 Alpha  occ. eigenvalues --  -19.20109 -10.31155  -1.12184  -0.80237  -0.60767
 Alpha  occ. eigenvalues --   -0.54116  -0.52795  -0.41963  -0.36439
 Alpha virt. eigenvalues --    0.17590   0.22659   0.26593   0.27362   0.30690
 Alpha virt. eigenvalues --    0.64331   0.66933   0.68894   0.90399   0.96308
 Alpha virt. eigenvalues --    0.98183   1.01671   1.06992   1.09534   1.12143

 Mulliken charges:
               1
     1  O   -0.645370
     2  C   -0.214412
     3  H    0.138287
     4  H    0.402688
     5  H    0.143818
     6  H    0.174989
 Sum of Mulliken charges =  -0.00000

 Dipole moment (field-independent basis, Debye):
    X=             -0.6620    Y=             -1.5344    Z=             -0.2021  Tot=              1.6833
 Quadrupole moment (field-independent basis, Debye-Ang):
   XX=            -11.9555   YY=            -12.1324   ZZ=            -13.5710
   XY=             -2.3925   XZ=             -0.2261   YZ=              0.0032

 Normal termination of Gaussian 16 at Fri Sep 22 16:32:51 2023.
