 Gaussian 16, Revision A.03,
 Gaussian 16:  ES64L-G16RevA.03 25-Dec-2016

 ----------------
 # 6-31g(d) wb97x
 ----------------

 -----------------------
 tmpdir/M2_conf_2_43.gjf
 -----------------------
 Symbolic Z-matrix:
 Charge =  0 Multiplicity = 1

                         Standard orientation:
 ---------------------------------------------------------------------
 Center     Atomic      Atomic             Coordinates (Angstroms)
 Number     Number       Type             X           Y           Z
 ---------------------------------------------------------------------
      1          6           0       -0.768901    0.001718   -0.017744
      2          6           0        0.761050   -0.001050    0.014843
      3          1           0        1.114051    0.558594    0.893581
      4          1           0       -1.172753    1.030569   -0.009702
      5          1           0       -1.223386   -0.556737    0.921532
      6          1           0       -1.114314   -0.561754   -0.891917
      7          1           0        1.303423   -1.021648   -0.008458
      8          1           0        1.140085    0.546967   -0.887626
 ---------------------------------------------------------------------

 SCF Done:  E(RwB97X) =  -79.7928664585     A.U. after   12 cycles

 The electronic state is 1-A.
 Alpha  occ. eigenvalues --  -10.26752 -10.26561  -0.87429  -0.72664  -0.54329
 Alpha  occ. eigenvalues --   -0.52851  -0.46954  -0.44203  -0.42730
 Alpha virt. eigenvalues --    0.19368   0.23842   0.24066   0.26203   0.27570
 Alpha virt. eigenvalues --    0.28924   0.33717   0.61815   0.65466   0.65979
 Alpha virt. eigenvalues --    0.73844   0.77084   0.78601   0.96473   0.98214

 Mulliken charges:
               1
     1  C   -0.453923
     2  C   -0.459605
     3  H    0.158288
     4  H    0.161641
     5  H    0.134133
     6  H    0.161340
     7  H    0.147982
     8  H    0.150144
 Sum of Mulliken charges =  -0.00000

 Dipole moment (field-independent basis, Debye):
    X=              0.0147    Y=              0.0722    Z=             -0.0561  Tot=              0.0926
 Quadrupole moment (field-independent basis, Debye-Ang):
   XX=            -15.3619   YY=            -14.7416   ZZ=            -14.9377
   XY=             -0.1648   XZ=             -0.0169   YZ=              0.1301

 Normal termination of Gaussian 16 at Fri Sep 22 16:32:50 2023.
