 Gaussian 16, Revision A.03,
 Gaussian 16:  ES64L-G16RevA.03 25-Dec-2016

 ----------------
 # 6-31g(d) wb97x
 ----------------

 ------------------------
 tmpdir/M2_conf_0_106.gjf
 ------------------------
 Symbolic Z-matrix:
 Charge =  0 Multiplicity = 1

                         Standard orientation:
 ---------------------------------------------------------------------
 Center     Atomic      Atomic             Coordinates (Angstroms)
 Number     Number       Type             X           Y           Z
 ---------------------------------------------------------------------
      1          6           0        0.763805    0.004637   -0.002961
      2          6           0       -0.762591    0.001360   -0.003408
      3          1           0       -1.147436    0.158241    1.011926
      4          1           0        1.162342   -0.707847    0.726055
      5          1           0        1.156088    0.996956    0.261375
      6          1           0        1.157370   -0.282425   -0.984976
      7          1           0       -1.208203    0.778951   -0.648935
      8          1           0       -1.127441   -0.979860   -0.327235
 ---------------------------------------------------------------------

 SCF Done:  E(RwB97X) =  -79.8010101092     A.U. after   12 cycles

 The electronic state is 1-A.
 Alpha  occ. eigenvalues --  -10.25577 -10.25518  -0.87891  -0.73379  -0.54223
 Alpha  occ. eigenvalues --   -0.54014  -0.46734  -0.44120  -0.43979
 Alpha virt. eigenvalues --    0.19977   0.25400   0.25871   0.26131   0.28884
 Alpha virt. eigenvalues --    0.29145   0.34019   0.61744   0.64730   0.65215
 Alpha virt. eigenvalues --    0.74024   0.75204   0.78924   0.99940   1.00048

 Mulliken charges:
               1
     1  C   -0.467822
     2  C   -0.468151
     3  H    0.155317
     4  H    0.156959
     5  H    0.155440
     6  H    0.156444
     7  H    0.156130
     8  H    0.155684
 Sum of Mulliken charges =  -0.00000

 Dipole moment (field-independent basis, Debye):
    X=              0.0024    Y=             -0.0241    Z=              0.0221  Tot=              0.0328
 Quadrupole moment (field-independent basis, Debye-Ang):
   XX=            -15.2675   YY=            -14.6613   ZZ=            -14.7260
   XY=             -0.0735   XZ=              0.0293   YZ=             -0.0025

 Normal termination of Gaussian 16 at Fri Sep 22 16:31:04 2023.
