 Gaussian 16, Revision A.03,
 Gaussian 16:  ES64L-G16RevA.03 25-Dec-2016

 ----------------
 # 6-31g(d) wb97x
 ----------------

 -----------------------
 tmpdir/M2_conf_1_11.gjf
 -----------------------
 Symbolic Z-matrix:
 Charge =  0 Multiplicity = 1

                         Standard orientation:
 ---------------------------------------------------------------------
 Center     Atomic      Atomic             Coordinates (Angstroms)
 Number     Number       Type             X           Y           Z
 ---------------------------------------------------------------------
      1          6           0        0.756026    0.010172    0.005035
      2          6           0       -0.763046    0.018357    0.000819
      3          1           0        1.206190    0.994175    0.083075
      4          1           0        1.151465   -0.614666    0.812921
      5          1           0        1.132444   -0.454578   -0.919249
      6          1           0       -1.114492   -1.026080   -0.430816
      7          1           0       -1.163226    0.860076   -0.597997
      8          1           0       -1.170266    0.069903    1.016943
 ---------------------------------------------------------------------

 SCF Done:  E(RwB97X) =  -79.7947812276     A.U. after   12 cycles

 The electronic state is 1-A.
 Alpha  occ. eigenvalues --  -10.26531 -10.25342  -0.87868  -0.72940  -0.54469
 Alpha  occ. eigenvalues --   -0.53683  -0.46737  -0.44277  -0.43055
 Alpha virt. eigenvalues --    0.19319   0.23636   0.24878   0.25386   0.29698
 Alpha virt. eigenvalues --    0.30814   0.34226   0.61549   0.64794   0.66043
 Alpha virt. eigenvalues --    0.74807   0.76514   0.79276   0.96147   0.99302

 Mulliken charges:
               1
     1  C   -0.468846
     2  C   -0.457922
     3  H    0.160332
     4  H    0.156494
     5  H    0.155219
     6  H    0.134623
     7  H    0.159294
     8  H    0.160806
 Sum of Mulliken charges =  -0.00000

 Dipole moment (field-independent basis, Debye):
    X=              0.0616    Y=              0.0195    Z=              0.0369  Tot=              0.0744
 Quadrupole moment (field-independent basis, Debye-Ang):
   XX=            -15.4257   YY=            -14.5852   ZZ=            -14.8553
   XY=             -0.0777   XZ=             -0.0729   YZ=             -0.0800

 Normal termination of Gaussian 16 at Fri Sep 22 16:31:40 2023.
