 Gaussian 16, Revision A.03,
 Gaussian 16:  ES64L-G16RevA.03 25-Dec-2016

 ----------------
 # 6-31g(d) wb97x
 ----------------

 -----------------------
 tmpdir/M2_conf_0_36.gjf
 -----------------------
 Symbolic Z-matrix:
 Charge =  1 Multiplicity = 1

                         Standard orientation:
 ---------------------------------------------------------------------
 Center     Atomic      Atomic             Coordinates (Angstroms)
 Number     Number       Type             X           Y           Z
 ---------------------------------------------------------------------
      1          1           0       -0.629294    0.773696   -0.376867
      2          7           0        0.005539   -0.006904    0.003918
      3          1           0       -0.483367   -0.414815    0.803327
      4          1           0        0.938644    0.409069    0.264351
      5          1           0        0.135249   -0.719625   -0.718240
 ---------------------------------------------------------------------

 SCF Done:  E(RwB97X) =  -56.8734467946     A.U. after   10 cycles

 The electronic state is 1-A.
 Alpha  occ. eigenvalues --  -14.79096  -1.36607  -0.93696  -0.93052  -0.91583
 Alpha virt. eigenvalues --   -0.10719  -0.03652  -0.02038  -0.01276   0.44755
 Alpha virt. eigenvalues --    0.45860   0.46849   0.66695   0.68197   0.70041
 Alpha virt. eigenvalues --    0.71602   1.09665   1.36071   1.36753   2.04939

 Mulliken charges:
               1
     1  H    0.471112
     2  N   -0.886226
     3  H    0.470167
     4  H    0.475087
     5  H    0.469861
 Sum of Mulliken charges =   1.00000

 Dipole moment (field-independent basis, Debye):
    X=             -0.0628    Y=              0.1024    Z=             -0.0488  Tot=              0.1297
 Quadrupole moment (field-independent basis, Debye-Ang):
   XX=             -4.1250   YY=             -4.3169   ZZ=             -4.5089
   XY=              0.0194   XZ=             -0.0159   YZ=              0.0128

 Normal termination of Gaussian 16 at Fri Sep 22 16:30:23 2023.
