 Gaussian 16, Revision A.03,
 Gaussian 16:  ES64L-G16RevA.03 25-Dec-2016

 ----------------
 # 6-31g(d) wb97x
 ----------------

 ------------------------
 tmpdir/M2_conf_2_107.gjf
 ------------------------
 Symbolic Z-matrix:
 Charge =  0 Multiplicity = 1

                         Standard orientation:
 ---------------------------------------------------------------------
 Center     Atomic      Atomic             Coordinates (Angstroms)
 Number     Number       Type             X           Y           Z
 ---------------------------------------------------------------------
      1          1           0        0.025767    0.940172   -0.553749
      2          6           0       -0.004164   -0.007631   -0.004611
      3          1           0        0.166145    0.225188    1.053891
      4          1           0        0.831114   -0.644676   -0.345785
      5          1           0       -0.998042   -0.474900   -0.126689
 ---------------------------------------------------------------------

 SCF Done:  E(RwB97X) =  -40.4988506743     A.U. after   11 cycles

 The electronic state is 1-A.
 Alpha  occ. eigenvalues --  -10.25209  -0.81564  -0.49985  -0.49137  -0.48940
 Alpha virt. eigenvalues --    0.21438   0.27103   0.27350   0.27498   0.63916
 Alpha virt. eigenvalues --    0.64025   0.64921   1.00668   1.01274   1.01704
 Alpha virt. eigenvalues --    1.06294   1.20647   1.75824   1.76087   2.32560

 Mulliken charges:
               1
     1  H    0.166194
     2  C   -0.664730
     3  H    0.165354
     4  H    0.166056
     5  H    0.167126
 Sum of Mulliken charges =   0.00000

 Dipole moment (field-independent basis, Debye):
    X=              0.0164    Y=              0.0374    Z=              0.0204  Tot=              0.0457
 Quadrupole moment (field-independent basis, Debye-Ang):
   XX=             -8.1193   YY=             -8.3261   ZZ=             -8.3685
   XY=              0.0040   XZ=              0.0010   YZ=             -0.0019

 Normal termination of Gaussian 16 at Fri Sep 22 16:33:18 2023.
