 Gaussian 16, Revision A.03,
 Gaussian 16:  ES64L-G16RevA.03 25-Dec-2016

 ----------------
 # 6-31g(d) wb97x
 ----------------

 -----------------------
 tmpdir/M2_conf_0_55.gjf
 -----------------------
 Symbolic Z-matrix:
 Charge =  0 Multiplicity = 1

                         Standard orientation:
 ---------------------------------------------------------------------
 Center     Atomic      Atomic             Coordinates (Angstroms)
 Number     Number       Type             X           Y           Z
 ---------------------------------------------------------------------
      1          6           0        1.508094   -0.492013    0.047157
      2          6           0        0.509085    0.683206   -0.101511
      3          6           0       -0.952697    0.406607    0.090803
      4          1           0        1.159540   -1.334944   -0.581493
      5          1           0        2.543184   -0.032667   -0.185083
      6          1           0        1.485385   -0.800387    1.102805
      7          1           0        0.887239    1.495460    0.648576
      8          1           0        0.634389    1.085062   -1.124492
      9          8           0       -1.433453   -0.652538   -0.052099
     10          1           0       -1.629005    1.220974    0.337777
 ---------------------------------------------------------------------

 SCF Done:  E(RwB97X) =  -193.076034252     A.U. after   15 cycles

 The electronic state is 1-A.
 Alpha  occ. eigenvalues --  -19.21354 -10.35472 -10.28841 -10.27685  -1.19292
 Alpha  occ. eigenvalues --   -0.90809  -0.78435  -0.67476  -0.60603  -0.57501
 Alpha  occ. eigenvalues --   -0.54820  -0.50495  -0.48423  -0.45524  -0.44662
 Alpha  occ. eigenvalues --   -0.35202
 Alpha virt. eigenvalues --    0.08579   0.17632   0.22555   0.24011   0.24633
 Alpha virt. eigenvalues --    0.26509   0.27889   0.30251   0.39022   0.39754
 Alpha virt. eigenvalues --    0.62412   0.63080   0.66807   0.67044   0.69688

 Mulliken charges:
               1
     1  C   -0.456279
     2  C   -0.384386
     3  C    0.240736
     4  H    0.183807
     5  H    0.152511
     6  H    0.167505
     7  H    0.148941
     8  H    0.184679
     9  O   -0.358167
    10  H    0.120654
 Sum of Mulliken charges =  -0.00000

 Dipole moment (field-independent basis, Debye):
    X=              1.3818    Y=              1.9454    Z=              0.1273  Tot=              2.3896
 Quadrupole moment (field-independent basis, Debye-Ang):
   XX=            -26.9382   YY=            -25.5291   ZZ=            -23.9426
   XY=             -2.1529   XZ=             -0.2515   YZ=             -0.0733

 Normal termination of Gaussian 16 at Fri Sep 22 16:30:43 2023.
