 Gaussian 16, Revision A.03,
 Gaussian 16:  ES64L-G16RevA.03 25-Dec-2016

 ----------------
 # 6-31g(d) wb97x
 ----------------

 -----------------------
 tmpdir/M2_conf_0_26.gjf
 -----------------------
 Symbolic Z-matrix:
 Charge =  1 Multiplicity = 1

                         Standard orientation:
 ---------------------------------------------------------------------
 Center     Atomic      Atomic             Coordinates (Angstroms)
 Number     Number       Type             X           Y           Z
 ---------------------------------------------------------------------
      1          7           0       -1.256148   -0.231856    0.005613
      2          6           0        0.031329    0.548241   -0.025767
      3          6           0        1.341696   -0.241104    0.015367
      4          1           0       -1.210463   -1.008709   -0.737193
      5          1           0       -1.381069   -0.654078    0.928888
      6          1           0       -2.050238    0.393032   -0.147457
      7          1           0        0.013182    1.238434    0.837362
      8          1           0        0.024667    1.090830   -0.977894
      9          1           0        1.558463   -0.980057   -0.846781
     10          1           0        2.197794    0.483553   -0.004602
     11          1           0        1.402546   -0.782835    0.970782
 ---------------------------------------------------------------------

 SCF Done:  E(RwB97X) =  -135.487350384     A.U. after   12 cycles

 The electronic state is 1-A.
 Alpha  occ. eigenvalues --  -14.75627 -10.52898 -10.45588  -1.34253  -1.08740
 Alpha  occ. eigenvalues --   -0.95427  -0.91040  -0.90418  -0.79774  -0.74920
 Alpha  occ. eigenvalues --   -0.68428  -0.65379  -0.64139
 Alpha virt. eigenvalues --   -0.07861  -0.01184  -0.00021   0.02263   0.05004
 Alpha virt. eigenvalues --    0.05850   0.08076   0.09957   0.10603   0.14559
 Alpha virt. eigenvalues --    0.39999   0.43232   0.44696   0.46786   0.52499

 Mulliken charges:
               1
     1  N   -0.743085
     2  C   -0.253072
     3  C   -0.519124
     4  H    0.450066
     5  H    0.444771
     6  H    0.453657
     7  H    0.254199
     8  H    0.251357
     9  H    0.208395
    10  H    0.247569
    11  H    0.205265
 Sum of Mulliken charges =   1.00000

 Dipole moment (field-independent basis, Debye):
    X=             -4.0673    Y=             -0.6636    Z=              0.0097  Tot=              4.1211
 Quadrupole moment (field-independent basis, Debye-Ang):
   XX=             -8.1527   YY=            -16.1871   ZZ=            -16.2906
   XY=              1.3750   XZ=             -0.2972   YZ=              0.3414

 Normal termination of Gaussian 16 at Fri Sep 22 16:30:35 2023.
