 Gaussian 16, Revision A.03,
 Gaussian 16:  ES64L-G16RevA.03 25-Dec-2016

 ----------------
 # 6-31g(d) wb97x
 ----------------

 -----------------------
 tmpdir/M2_conf_2_89.gjf
 -----------------------
 Symbolic Z-matrix:
 Charge =  0 Multiplicity = 1

                         Standard orientation:
 ---------------------------------------------------------------------
 Center     Atomic      Atomic             Coordinates (Angstroms)
 Number     Number       Type             X           Y           Z
 ---------------------------------------------------------------------
      1          8           0        1.238109   -0.282659    0.000717
      2          6           0        0.224722    0.439534   -0.003389
      3          6           0       -1.164408   -0.149360    0.000217
      4          1           0        0.229147    1.493755    0.008184
      5          1           0       -1.281708   -0.756867    0.901590
      6          1           0       -1.256949   -0.818017   -0.859545
      7          1           0       -1.957246    0.601361   -0.036932
 ---------------------------------------------------------------------

 SCF Done:  E(RwB97X) =  -153.779219848     A.U. after   14 cycles

 The electronic state is 1-A.
 Alpha  occ. eigenvalues --  -19.21773 -10.36583 -10.27729  -1.15336  -0.88252
 Alpha  occ. eigenvalues --   -0.71585  -0.58790  -0.55238  -0.53636  -0.50249
 Alpha  occ. eigenvalues --   -0.45527  -0.35831
 Alpha virt. eigenvalues --    0.06199   0.20758   0.22527   0.27028   0.27268
 Alpha virt. eigenvalues --    0.34152   0.37094   0.63155   0.64374   0.67723
 Alpha virt. eigenvalues --    0.70783   0.75681   0.82163   0.89103   0.96247

 Mulliken charges:
               1
     1  O   -0.396350
     2  C    0.228025
     3  C   -0.558239
     4  H    0.148830
     5  H    0.205111
     6  H    0.204609
     7  H    0.168013
 Sum of Mulliken charges =  -0.00000

 Dipole moment (field-independent basis, Debye):
    X=             -2.4969    Y=              1.1670    Z=              0.0084  Tot=              2.7562
 Quadrupole moment (field-independent basis, Debye-Ang):
   XX=            -20.8979   YY=            -17.3642   ZZ=            -17.5228
   XY=              1.0174   XZ=             -0.0186   YZ=             -0.0034

 Normal termination of Gaussian 16 at Fri Sep 22 16:33:21 2023.
