 Gaussian 16, Revision A.03,
 Gaussian 16:  ES64L-G16RevA.03 25-Dec-2016

 ----------------
 # 6-31g(d) wb97x
 ----------------

 -----------------------
 tmpdir/M2_conf_0_27.gjf
 -----------------------
 Symbolic Z-matrix:
 Charge =  1 Multiplicity = 1

                         Standard orientation:
 ---------------------------------------------------------------------
 Center     Atomic      Atomic             Coordinates (Angstroms)
 Number     Number       Type             X           Y           Z
 ---------------------------------------------------------------------
      1          7           0        0.705318    0.002970   -0.009183
      2          6           0       -0.800308    0.000213    0.005517
      3          1           0       -0.955705   -0.402920    1.012657
      4          1           0        1.054991   -1.014312   -0.024159
      5          1           0        1.041098    0.488182   -0.844733
      6          1           0        1.064345    0.515581    0.798787
      7          1           0       -1.127602    1.047770   -0.125547
      8          1           0       -1.212502   -0.656364   -0.785827
 ---------------------------------------------------------------------

 SCF Done:  E(RwB97X) =  -96.1778685745     A.U. after   12 cycles

 The electronic state is 1-A.
 Alpha  occ. eigenvalues --  -14.76562 -10.53682  -1.35230  -1.05655  -0.92336
 Alpha  occ. eigenvalues --   -0.91926  -0.80507  -0.73317  -0.72849
 Alpha virt. eigenvalues --   -0.08975  -0.01825  -0.00377   0.01785   0.04493
 Alpha virt. eigenvalues --    0.06048   0.06393   0.40135   0.42335   0.43216
 Alpha virt. eigenvalues --    0.53635   0.56924   0.58379   0.69140   0.72386

 Mulliken charges:
               1
     1  N   -0.750297
     2  C   -0.408330
     3  H    0.254527
     4  H    0.457373
     5  H    0.449990
     6  H    0.454769
     7  H    0.267556
     8  H    0.274410
 Sum of Mulliken charges =   1.00000

 Dipole moment (field-independent basis, Debye):
    X=              2.2537    Y=             -0.0376    Z=             -0.1122  Tot=              2.2568
 Quadrupole moment (field-independent basis, Debye-Ang):
   XX=             -7.6363   YY=             -9.7222   ZZ=            -10.2160
   XY=             -0.0366   XZ=              0.2770   YZ=              0.0517

 Normal termination of Gaussian 16 at Fri Sep 22 16:30:15 2023.
