 Gaussian 16, Revision A.03,
 Gaussian 16:  ES64L-G16RevA.03 25-Dec-2016

 ----------------
 # 6-31g(d) wb97x
 ----------------

 -----------------------
 tmpdir/M2_conf_0_57.gjf
 -----------------------
 Symbolic Z-matrix:
 Charge =  0 Multiplicity = 1

                         Standard orientation:
 ---------------------------------------------------------------------
 Center     Atomic      Atomic             Coordinates (Angstroms)
 Number     Number       Type             X           Y           Z
 ---------------------------------------------------------------------
      1          6           0       -0.766809   -0.010567   -0.002813
      2          6           0        0.782765   -0.017909    0.002232
      3          1           0        0.909278    0.113460    1.093293
      4          1           0       -1.127041   -0.947322    0.466165
      5          1           0       -1.060330    0.992465    0.491265
      6          1           0       -1.083814    0.006561   -1.056006
      7          1           0        1.176669   -0.941714   -0.410819
      8          1           0        1.089501    0.947402   -0.580412
 ---------------------------------------------------------------------

 SCF Done:  E(RwB97X) =  -79.7829602097     A.U. after   12 cycles

 The electronic state is 1-A.
 Alpha  occ. eigenvalues --  -10.26308 -10.26283  -0.87848  -0.71608  -0.55383
 Alpha  occ. eigenvalues --   -0.54468  -0.44957  -0.44052  -0.42783
 Alpha virt. eigenvalues --    0.18138   0.24834   0.25706   0.26300   0.26807
 Alpha virt. eigenvalues --    0.28710   0.31539   0.61493   0.67765   0.68072
 Alpha virt. eigenvalues --    0.70464   0.74773   0.77605   0.94955   0.98180

 Mulliken charges:
               1
     1  C   -0.462382
     2  C   -0.453835
     3  H    0.157003
     4  H    0.156982
     5  H    0.143913
     6  H    0.153205
     7  H    0.164903
     8  H    0.140211
 Sum of Mulliken charges =   0.00000

 Dipole moment (field-independent basis, Debye):
    X=             -0.0306    Y=             -0.0618    Z=             -0.0170  Tot=              0.0710
 Quadrupole moment (field-independent basis, Debye-Ang):
   XX=            -16.4827   YY=            -14.2731   ZZ=            -14.7711
   XY=             -0.0823   XZ=             -0.2008   YZ=              0.0457

 Normal termination of Gaussian 16 at Fri Sep 22 16:30:33 2023.
