 Gaussian 16, Revision A.03,
 Gaussian 16:  ES64L-G16RevA.03 25-Dec-2016

 ----------------
 # 6-31g(d) wb97x
 ----------------

 -----------------------
 tmpdir/M2_conf_2_95.gjf
 -----------------------
 Symbolic Z-matrix:
 Charge =  0 Multiplicity = 1

                         Standard orientation:
 ---------------------------------------------------------------------
 Center     Atomic      Atomic             Coordinates (Angstroms)
 Number     Number       Type             X           Y           Z
 ---------------------------------------------------------------------
      1          6           0        0.226745    0.459148   -0.003288
      2          6           0       -1.152576   -0.152356    0.000218
      3          1           0       -1.939953    0.604091   -0.036925
      4          1           0        0.266552    1.512629    0.008708
      5          8           0        1.215314   -0.296665    0.000643
      6          1           0       -1.259829   -0.762105    0.901325
      7          1           0       -1.234297   -0.822049   -0.859833
 ---------------------------------------------------------------------

 SCF Done:  E(RwB97X) =  -153.779127713     A.U. after   14 cycles

 The electronic state is 1-A.
 Alpha  occ. eigenvalues --  -19.21598 -10.36504 -10.27629  -1.15311  -0.87987
 Alpha  occ. eigenvalues --   -0.71651  -0.58711  -0.55185  -0.53510  -0.50325
 Alpha  occ. eigenvalues --   -0.45383  -0.35729
 Alpha virt. eigenvalues --    0.06196   0.20922   0.22432   0.27139   0.27547
 Alpha virt. eigenvalues --    0.33622   0.37280   0.63204   0.64150   0.68337
 Alpha virt. eigenvalues --    0.70671   0.75434   0.82351   0.88413   0.96361

 Mulliken charges:
               1
     1  C    0.221435
     2  C   -0.551493
     3  H    0.163191
     4  H    0.152965
     5  O   -0.396104
     6  H    0.205138
     7  H    0.204868
 Sum of Mulliken charges =  -0.00000

 Dipole moment (field-independent basis, Debye):
    X=             -2.4055    Y=              1.2415    Z=              0.0089  Tot=              2.7069
 Quadrupole moment (field-independent basis, Debye-Ang):
   XX=            -20.9527   YY=            -17.2252   ZZ=            -17.5205
   XY=              1.1261   XZ=             -0.0182   YZ=             -0.0027

 Normal termination of Gaussian 16 at Fri Sep 22 16:33:18 2023.
