 Gaussian 16, Revision A.03,
 Gaussian 16:  ES64L-G16RevA.03 25-Dec-2016

 ----------------
 # 6-31g(d) wb97x
 ----------------

 ------------------------
 tmpdir/M2_conf_2_102.gjf
 ------------------------
 Symbolic Z-matrix:
 Charge =  0 Multiplicity = 1

                         Standard orientation:
 ---------------------------------------------------------------------
 Center     Atomic      Atomic             Coordinates (Angstroms)
 Number     Number       Type             X           Y           Z
 ---------------------------------------------------------------------
      1          6           0       -1.268966   -0.263635   -0.003733
      2          6           0       -0.006147    0.592605    0.010706
      3          6           0        1.263631   -0.254277   -0.007818
      4          1           0       -1.238550   -0.913936    0.975751
      5          1           0       -2.196547    0.335586   -0.097797
      6          1           0       -1.215978   -0.952146   -0.868174
      7          1           0       -0.023696    1.235071    0.898241
      8          1           0       -0.040564    1.255080   -0.863116
      9          1           0        2.156820    0.371073   -0.103144
     10          1           0        1.260377   -0.951591   -0.857642
     11          1           0        1.367026   -0.827296    0.920948
 ---------------------------------------------------------------------

 SCF Done:  E(RwB97X) =  -119.100574230     A.U. after   12 cycles

 The electronic state is 1-A.
 Alpha  occ. eigenvalues --  -10.26313 -10.26062 -10.25405  -0.90856  -0.79900
 Alpha  occ. eigenvalues --   -0.69755  -0.56692  -0.54520  -0.49600  -0.47828
 Alpha  occ. eigenvalues --   -0.43732  -0.43075  -0.42060
 Alpha virt. eigenvalues --    0.18380   0.23438   0.24229   0.24631   0.26666
 Alpha virt. eigenvalues --    0.28240   0.29499   0.29640   0.32351   0.36409
 Alpha virt. eigenvalues --    0.62039   0.62408   0.65787   0.66524   0.69671

 Mulliken charges:
               1
     1  C   -0.451072
     2  C   -0.275897
     3  C   -0.466605
     4  H    0.131191
     5  H    0.157331
     6  H    0.149352
     7  H    0.148720
     8  H    0.145760
     9  H    0.157262
    10  H    0.151059
    11  H    0.152900
 Sum of Mulliken charges =   0.00000

 Dipole moment (field-independent basis, Debye):
    X=              0.0658    Y=              0.1109    Z=             -0.0572  Tot=              0.1411
 Quadrupole moment (field-independent basis, Debye-Ang):
   XX=            -21.9964   YY=            -21.7941   ZZ=            -21.2075
   XY=             -0.2799   XZ=              0.2147   YZ=             -0.0004

 Normal termination of Gaussian 16 at Fri Sep 22 16:33:14 2023.
