 Gaussian 16, Revision A.03,
 Gaussian 16:  ES64L-G16RevA.03 25-Dec-2016

 ----------------
 # 6-31g(d) wb97x
 ----------------

 ------------------------
 tmpdir/M2_conf_2_108.gjf
 ------------------------
 Symbolic Z-matrix:
 Charge =  0 Multiplicity = 1

                         Standard orientation:
 ---------------------------------------------------------------------
 Center     Atomic      Atomic             Coordinates (Angstroms)
 Number     Number       Type             X           Y           Z
 ---------------------------------------------------------------------
      1          6           0       -0.008116    0.000159   -0.001025
      2          1           0        0.470452   -0.097975    0.981192
      3          1           0       -1.109435    0.009486    0.088610
      4          1           0        0.358753    0.933123   -0.452078
      5          1           0        0.328927   -0.845587   -0.611571
 ---------------------------------------------------------------------

 SCF Done:  E(RwB97X) =  -40.4990871721     A.U. after   10 cycles

 The electronic state is 1-A.
 Alpha  occ. eigenvalues --  -10.25155  -0.81595  -0.49853  -0.49325  -0.48958
 Alpha virt. eigenvalues --    0.21482   0.27229   0.27404   0.27446   0.63892
 Alpha virt. eigenvalues --    0.64128   0.64703   1.01074   1.01440   1.01462
 Alpha virt. eigenvalues --    1.06400   1.20670   1.75836   1.76004   2.33257

 Mulliken charges:
               1
     1  C   -0.665044
     2  H    0.165755
     3  H    0.167036
     4  H    0.165755
     5  H    0.166498
 Sum of Mulliken charges =  -0.00000

 Dipole moment (field-independent basis, Debye):
    X=              0.0368    Y=             -0.0035    Z=              0.0043  Tot=              0.0372
 Quadrupole moment (field-independent basis, Debye-Ang):
   XX=             -8.1471   YY=             -8.2922   ZZ=             -8.3639
   XY=             -0.0019   XZ=             -0.0017   YZ=              0.0033

 Normal termination of Gaussian 16 at Fri Sep 22 16:33:09 2023.
