 Gaussian 16, Revision A.03,
 Gaussian 16:  ES64L-G16RevA.03 25-Dec-2016

 ----------------
 # 6-31g(d) wb97x
 ----------------

 -----------------------
 tmpdir/M2_conf_0_77.gjf
 -----------------------
 Symbolic Z-matrix:
 Charge =  0 Multiplicity = 1

                         Standard orientation:
 ---------------------------------------------------------------------
 Center     Atomic      Atomic             Coordinates (Angstroms)
 Number     Number       Type             X           Y           Z
 ---------------------------------------------------------------------
      1          6           0       -0.006431   -0.011228   -0.002678
      2          1           0        0.034888    0.788174   -0.754537
      3          1           0        0.812143   -0.731797   -0.200258
      4          1           0       -1.016455   -0.460697    0.010689
      5          1           0        0.208009    0.471689    0.960171
 ---------------------------------------------------------------------

 SCF Done:  E(RwB97X) =  -40.4984394511     A.U. after   11 cycles

 The electronic state is 1-A.
 Alpha  occ. eigenvalues --  -10.25298  -0.81516  -0.50092  -0.49096  -0.48753
 Alpha virt. eigenvalues --    0.21369   0.27051   0.27203   0.27482   0.63856
 Alpha virt. eigenvalues --    0.64136   0.65074   1.00469   1.00914   1.01653
 Alpha virt. eigenvalues --    1.06201   1.20684   1.75904   1.76084   2.31952

 Mulliken charges:
               1
     1  C   -0.664265
     2  H    0.165478
     3  H    0.165688
     4  H    0.168080
     5  H    0.165020
 Sum of Mulliken charges =  -0.00000

 Dipole moment (field-independent basis, Debye):
    X=              0.0218    Y=              0.0519    Z=              0.0126  Tot=              0.0577
 Quadrupole moment (field-independent basis, Debye-Ang):
   XX=             -8.0941   YY=             -8.3196   ZZ=             -8.4182
   XY=              0.0093   XZ=             -0.0001   YZ=             -0.0017

 Normal termination of Gaussian 16 at Fri Sep 22 16:30:53 2023.
