 Gaussian 16, Revision A.03,
 Gaussian 16:  ES64L-G16RevA.03 25-Dec-2016

 ----------------
 # 6-31g(d) wb97x
 ----------------

 --------------------
 tmpdir/M2_ref_13.gjf
 --------------------
 Symbolic Z-matrix:
 Charge =  0 Multiplicity = 1

                         Standard orientation:
 ---------------------------------------------------------------------
 Center     Atomic      Atomic             Coordinates (Angstroms)
 Number     Number       Type             X           Y           Z
 ---------------------------------------------------------------------
      1          6           0        0.010362    0.011122   -0.004672
      2          1           0       -0.269121   -0.490809    0.934474
      3          1           0       -0.542212    0.943423   -0.054178
      4          1           0        1.107842    0.131245   -0.056795
      5          1           0       -0.358683   -0.650594   -0.795469
 ---------------------------------------------------------------------

 SCF Done:  E(RwB97X) =  -40.4983657885     A.U. after   11 cycles

 The electronic state is 1-A.
 Alpha  occ. eigenvalues --  -10.25033  -0.81705  -0.50272  -0.49423  -0.48563
 Alpha virt. eigenvalues --    0.21526   0.27076   0.27399   0.27824   0.63791
 Alpha virt. eigenvalues --    0.63846   0.64891   1.00627   1.01296   1.02399
 Alpha virt. eigenvalues --    1.07183   1.20963   1.75838   1.75923   2.32651

 Mulliken charges:
               1
     1  C   -0.667135
     2  H    0.162959
     3  H    0.170584
     4  H    0.168029
     5  H    0.165562
 Sum of Mulliken charges =  -0.00000

 Dipole moment (field-independent basis, Debye):
    X=             -0.0499    Y=             -0.0324    Z=              0.0132  Tot=              0.0609
 Quadrupole moment (field-independent basis, Debye-Ang):
   XX=             -8.0687   YY=             -8.2871   ZZ=             -8.4291
   XY=             -0.0195   XZ=              0.0050   YZ=              0.0070

 Normal termination of Gaussian 16 at Fri Sep 22 16:29:11 2023.
