 Gaussian 16, Revision A.03,
 Gaussian 16:  ES64L-G16RevA.03 25-Dec-2016

 ----------------
 # 6-31g(d) wb97x
 ----------------

 --------------------
 tmpdir/M2_ref_42.gjf
 --------------------
 Symbolic Z-matrix:
 Charge =  0 Multiplicity = 1

                         Standard orientation:
 ---------------------------------------------------------------------
 Center     Atomic      Atomic             Coordinates (Angstroms)
 Number     Number       Type             X           Y           Z
 ---------------------------------------------------------------------
      1          6           0       -1.252674   -0.264268    0.011913
      2          6           0        0.000833    0.613114   -0.017562
      3          6           0        1.248839   -0.305449   -0.008227
      4          1           0       -1.296088   -0.938924   -0.862479
      5          1           0       -2.239356    0.389075   -0.004650
      6          1           0       -1.283386   -0.821678    0.954917
      7          1           0        0.168791    1.350600    0.856660
      8          1           0        0.022412    1.173628   -0.963816
      9          1           0        1.183445   -1.071760   -0.774786
     10          1           0        2.157227    0.420944   -0.120312
     11          1           0        1.304974   -0.762261    0.997723
 ---------------------------------------------------------------------

 SCF Done:  E(RwB97X) =  -119.090507266     A.U. after   12 cycles

 The electronic state is 1-A.
 Alpha  occ. eigenvalues --  -10.26948 -10.26535 -10.26124  -0.90542  -0.79361
 Alpha  occ. eigenvalues --   -0.69323  -0.56966  -0.53184  -0.49549  -0.48543
 Alpha  occ. eigenvalues --   -0.44001  -0.42446  -0.41160
 Alpha virt. eigenvalues --    0.17736   0.22714   0.23207   0.24519   0.26156
 Alpha virt. eigenvalues --    0.27761   0.28579   0.29983   0.31969   0.35301
 Alpha virt. eigenvalues --    0.61991   0.64268   0.65782   0.66446   0.68856

 Mulliken charges:
               1
     1  C   -0.454898
     2  C   -0.271838
     3  C   -0.453515
     4  H    0.157028
     5  H    0.133889
     6  H    0.156094
     7  H    0.139011
     8  H    0.148752
     9  H    0.157432
    10  H    0.137346
    11  H    0.150699
 Sum of Mulliken charges =  -0.00000

 Dipole moment (field-independent basis, Debye):
    X=             -0.0073    Y=             -0.0133    Z=             -0.0157  Tot=              0.0218
 Quadrupole moment (field-independent basis, Debye-Ang):
   XX=            -22.6944   YY=            -21.7652   ZZ=            -21.1418
   XY=              0.4181   XZ=              0.1771   YZ=              0.2235

 Normal termination of Gaussian 16 at Fri Sep 22 16:29:29 2023.
