 Gaussian 16, Revision A.03,
 Gaussian 16:  ES64L-G16RevA.03 25-Dec-2016

 ----------------
 # 6-31g(d) wb97x
 ----------------

 --------------------
 tmpdir/M2_ref_92.gjf
 --------------------
 Symbolic Z-matrix:
 Charge =  0 Multiplicity = 1

                         Standard orientation:
 ---------------------------------------------------------------------
 Center     Atomic      Atomic             Coordinates (Angstroms)
 Number     Number       Type             X           Y           Z
 ---------------------------------------------------------------------
      1          6           0       -0.003125   -0.004310   -0.008379
      2          1           0       -0.978477   -0.245953   -0.437213
      3          1           0        0.837604   -0.322267   -0.628818
      4          1           0        0.068111    1.075721    0.145925
      5          1           0        0.091513   -0.481638    0.970382
 ---------------------------------------------------------------------

 SCF Done:  E(RwB97X) =  -40.4991619780     A.U. after   11 cycles

 The electronic state is 1-A.
 Alpha  occ. eigenvalues --  -10.24864  -0.81792  -0.50190  -0.49159  -0.49140
 Alpha virt. eigenvalues --    0.21659   0.27365   0.27477   0.27862   0.63788
 Alpha virt. eigenvalues --    0.63887   0.64476   1.01399   1.01575   1.02626
 Alpha virt. eigenvalues --    1.07247   1.20875   1.75657   1.75957   2.34280

 Mulliken charges:
               1
     1  C   -0.668038
     2  H    0.168855
     3  H    0.168128
     4  H    0.165525
     5  H    0.165529
 Sum of Mulliken charges =  -0.00000

 Dipole moment (field-independent basis, Debye):
    X=              0.0116    Y=              0.0156    Z=              0.0310  Tot=              0.0366
 Quadrupole moment (field-independent basis, Debye-Ang):
   XX=             -8.1127   YY=             -8.3208   ZZ=             -8.3169
   XY=              0.0008   XZ=              0.0007   YZ=              0.0069

 Normal termination of Gaussian 16 at Fri Sep 22 16:29:50 2023.
