 Gaussian 16, Revision A.03,
 Gaussian 16:  ES64L-G16RevA.03 25-Dec-2016

 ----------------
 # 6-31g(d) wb97x
 ----------------

 -------------------
 tmpdir/M2_ref_0.gjf
 -------------------
 Symbolic Z-matrix:
 Charge =  0 Multiplicity = 1

                         Standard orientation:
 ---------------------------------------------------------------------
 Center     Atomic      Atomic             Coordinates (Angstroms)
 Number     Number       Type             X           Y           Z
 ---------------------------------------------------------------------
      1          6           0       -0.555642   -0.025557   -0.000502
      2          8           0        0.695743   -0.008376    0.000119
      3          1           0       -1.231455   -0.788072    0.001194
      4          1           0       -1.000638    1.008417    0.000865
 ---------------------------------------------------------------------

 SCF Done:  E(RwB97X) =  -114.452642931     A.U. after   13 cycles

 The electronic state is 1-A.
 Alpha  occ. eigenvalues --  -19.23589 -10.37024  -1.16017  -0.77782  -0.60742
 Alpha  occ. eigenvalues --   -0.55010  -0.48951  -0.36823
 Alpha virt. eigenvalues --    0.04703   0.21030   0.27163   0.32419   0.62117
 Alpha virt. eigenvalues --    0.69330   0.73683   0.77468   0.94638   0.97014
 Alpha virt. eigenvalues --    1.05323   1.07607   1.16811   1.48359   1.59434

 Mulliken charges:
               1
     1  C    0.056616
     2  O   -0.356808
     3  H    0.171722
     4  H    0.128470
 Sum of Mulliken charges =   0.00000

 Dipole moment (field-independent basis, Debye):
    X=             -2.5236    Y=             -0.1493    Z=              0.0003  Tot=              2.5281
 Quadrupole moment (field-independent basis, Debye-Ang):
   XX=            -11.6266   YY=            -11.4546   ZZ=            -11.4537
   XY=              0.3772   XZ=             -0.0010   YZ=              0.0004

 Normal termination of Gaussian 16 at Fri Sep 22 16:29:08 2023.
