 Gaussian 16, Revision A.03,
 Gaussian 16:  ES64L-G16RevA.03 25-Dec-2016

 ----------------
 # 6-31g(d) wb97x
 ----------------

 --------------------
 tmpdir/M2_ref_57.gjf
 --------------------
 Symbolic Z-matrix:
 Charge =  0 Multiplicity = 1

                         Standard orientation:
 ---------------------------------------------------------------------
 Center     Atomic      Atomic             Coordinates (Angstroms)
 Number     Number       Type             X           Y           Z
 ---------------------------------------------------------------------
      1          6           0        0.777479   -0.009367   -0.010634
      2          6           0       -0.772023   -0.018535    0.007371
      3          1           0       -1.106899    0.083883   -1.041978
      4          1           0        1.132005   -0.955671   -0.464535
      5          1           0        1.062211    0.983045   -0.530641
      6          1           0        1.110016    0.030867    1.037144
      7          1           0       -1.158500   -0.933533    0.446158
      8          1           0       -1.071576    0.958820    0.573432
 ---------------------------------------------------------------------

 SCF Done:  E(RwB97X) =  -79.7896327318     A.U. after   12 cycles

 The electronic state is 1-A.
 Alpha  occ. eigenvalues --  -10.26402 -10.26296  -0.87528  -0.72036  -0.55081
 Alpha  occ. eigenvalues --   -0.53782  -0.44858  -0.44510  -0.43284
 Alpha virt. eigenvalues --    0.18462   0.24861   0.25774   0.26035   0.27124
 Alpha virt. eigenvalues --    0.28622   0.32017   0.61784   0.65957   0.68206
 Alpha virt. eigenvalues --    0.72126   0.74674   0.77339   0.95192   0.98470

 Mulliken charges:
               1
     1  C   -0.456449
     2  C   -0.457874
     3  H    0.155007
     4  H    0.157316
     5  H    0.145283
     6  H    0.156693
     7  H    0.162467
     8  H    0.137557
 Sum of Mulliken charges =   0.00000

 Dipole moment (field-independent basis, Debye):
    X=             -0.0068    Y=             -0.0561    Z=              0.0128  Tot=              0.0579
 Quadrupole moment (field-independent basis, Debye-Ang):
   XX=            -16.1594   YY=            -14.2979   ZZ=            -14.8750
   XY=              0.0521   XZ=              0.1277   YZ=             -0.0484

 Normal termination of Gaussian 16 at Fri Sep 22 16:29:28 2023.
