 Gaussian 16, Revision A.03,
 Gaussian 16:  ES64L-G16RevA.03 25-Dec-2016

 ----------------
 # 6-31g(d) wb97x
 ----------------

 --------------------
 tmpdir/M2_ref_52.gjf
 --------------------
 Symbolic Z-matrix:
 Charge =  0 Multiplicity = 1

                         Standard orientation:
 ---------------------------------------------------------------------
 Center     Atomic      Atomic             Coordinates (Angstroms)
 Number     Number       Type             X           Y           Z
 ---------------------------------------------------------------------
      1          6           0       -1.151417   -0.120790    0.007866
      2          6           0        0.254779    0.401294   -0.007012
      3          1           0       -1.205722   -1.164378   -0.399953
      4          1           0       -1.907155    0.493625   -0.637683
      5          1           0       -1.543875   -0.158115    1.041476
      6          8           0        1.200352   -0.290906   -0.003511
      7          1           0        0.433767    1.473097    0.019122
 ---------------------------------------------------------------------

 SCF Done:  E(RwB97X) =  -153.777217591     A.U. after   15 cycles

 The electronic state is 1-A.
 Alpha  occ. eigenvalues --  -19.21406 -10.35865 -10.28742  -1.19342  -0.87229
 Alpha  occ. eigenvalues --   -0.70095  -0.59446  -0.55599  -0.54765  -0.48932
 Alpha  occ. eigenvalues --   -0.47334  -0.35476
 Alpha virt. eigenvalues --    0.08376   0.19951   0.21984   0.25346   0.25907
 Alpha virt. eigenvalues --    0.36297   0.38322   0.63005   0.64161   0.70471
 Alpha virt. eigenvalues --    0.72234   0.79486   0.84992   0.86608   0.94219

 Mulliken charges:
               1
     1  C   -0.567888
     2  C    0.247010
     3  H    0.194519
     4  H    0.163065
     5  H    0.196486
     6  O   -0.352519
     7  H    0.119327
 Sum of Mulliken charges =  -0.00000

 Dipole moment (field-independent basis, Debye):
    X=             -2.2410    Y=              1.0565    Z=              0.0859  Tot=              2.4790
 Quadrupole moment (field-independent basis, Debye-Ang):
   XX=            -20.3658   YY=            -17.8699   ZZ=            -17.5077
   XY=              1.2258   XZ=             -0.0658   YZ=              0.0013

 Normal termination of Gaussian 16 at Fri Sep 22 16:29:35 2023.
