 Gaussian 16, Revision A.03,
 Gaussian 16:  ES64L-G16RevA.03 25-Dec-2016

 ----------------
 # 6-31g(d) wb97x
 ----------------

 --------------------
 tmpdir/M2_ref_14.gjf
 --------------------
 Symbolic Z-matrix:
 Charge =  0 Multiplicity = 1

                         Standard orientation:
 ---------------------------------------------------------------------
 Center     Atomic      Atomic             Coordinates (Angstroms)
 Number     Number       Type             X           Y           Z
 ---------------------------------------------------------------------
      1          6           0       -0.948823    0.404259    0.046584
      2          6           0        0.512183    0.726560   -0.040980
      3          6           0        1.427905   -0.493238    0.028393
      4          1           0       -1.625342    1.296600    0.161366
      5          8           0       -1.356935   -0.691503   -0.030943
      6          1           0        0.752274    1.453376    0.742295
      7          1           0        0.676655    1.267396   -0.985696
      8          1           0        2.482276   -0.159969   -0.393398
      9          1           0        1.013088   -1.345973   -0.544298
     10          1           0        1.608939   -0.804891    1.063287
 ---------------------------------------------------------------------

 SCF Done:  E(RwB97X) =  -193.082932330     A.U. after   14 cycles

 The electronic state is 1-A.
 Alpha  occ. eigenvalues --  -19.21719 -10.35878 -10.27944 -10.27341  -1.19479
 Alpha  occ. eigenvalues --   -0.91205  -0.78525  -0.67048  -0.60652  -0.57810
 Alpha  occ. eigenvalues --   -0.55230  -0.50029  -0.47502  -0.46722  -0.44802
 Alpha  occ. eigenvalues --   -0.35376
 Alpha virt. eigenvalues --    0.08830   0.18583   0.22000   0.22705   0.25029
 Alpha virt. eigenvalues --    0.27238   0.29557   0.31154   0.38638   0.40229
 Alpha virt. eigenvalues --    0.61953   0.63689   0.67316   0.68670   0.70236

 Mulliken charges:
               1
     1  C    0.244874
     2  C   -0.382450
     3  C   -0.467112
     4  H    0.111673
     5  O   -0.356693
     6  H    0.172247
     7  H    0.182399
     8  H    0.136740
     9  H    0.187815
    10  H    0.170506
 Sum of Mulliken charges =  -0.00000

 Dipole moment (field-independent basis, Debye):
    X=              1.2186    Y=              2.0552    Z=              0.0929  Tot=              2.3911
 Quadrupole moment (field-independent basis, Debye-Ang):
   XX=            -26.9606   YY=            -25.1155   ZZ=            -24.0144
   XY=             -2.2600   XZ=             -0.0511   YZ=             -0.0693

 Normal termination of Gaussian 16 at Fri Sep 22 16:29:22 2023.
