 Gaussian 16, Revision A.03,
 Gaussian 16:  ES64L-G16RevA.03 25-Dec-2016

 ----------------
 # 6-31g(d) wb97x
 ----------------

 --------------------
 tmpdir/M2_ref_71.gjf
 --------------------
 Symbolic Z-matrix:
 Charge =  0 Multiplicity = 1

                         Standard orientation:
 ---------------------------------------------------------------------
 Center     Atomic      Atomic             Coordinates (Angstroms)
 Number     Number       Type             X           Y           Z
 ---------------------------------------------------------------------
      1          8           0        1.146138   -0.385178   -0.036920
      2          6           0        0.077506    0.568107   -0.004739
      3          6           0       -1.217060   -0.239270    0.011457
      4          1           0        2.037991   -0.048812    0.179331
      5          1           0        0.121731    1.297494   -0.837991
      6          1           0        0.153280    1.128407    0.946336
      7          1           0       -1.321204   -0.894373    0.895163
      8          1           0       -1.269466   -0.843244   -0.901330
      9          1           0       -2.054112    0.468931   -0.026458
 ---------------------------------------------------------------------

 SCF Done:  E(RwB97X) =  -154.985558468     A.U. after   13 cycles

 The electronic state is 1-A.
 Alpha  occ. eigenvalues --  -19.19951 -10.31445 -10.25609  -1.12313  -0.87072
 Alpha  occ. eigenvalues --   -0.72858  -0.61976  -0.56993  -0.49794  -0.47952
 Alpha  occ. eigenvalues --   -0.46582  -0.41511  -0.36299
 Alpha virt. eigenvalues --    0.17813   0.21537   0.24908   0.26113   0.27521
 Alpha virt. eigenvalues --    0.30148   0.31344   0.33642   0.63232   0.66367
 Alpha virt. eigenvalues --    0.66988   0.69454   0.77416   0.81132   0.92160

 Mulliken charges:
               1
     1  O   -0.645632
     2  C   -0.037130
     3  C   -0.473979
     4  H    0.400821
     5  H    0.135789
     6  H    0.128497
     7  H    0.170934
     8  H    0.171486
     9  H    0.149214
 Sum of Mulliken charges =  -0.00000

 Dipole moment (field-independent basis, Debye):
    X=              0.3306    Y=              1.4337    Z=              0.4043  Tot=              1.5258
 Quadrupole moment (field-independent basis, Debye-Ang):
   XX=            -16.2631   YY=            -20.3742   ZZ=            -19.7856
   XY=              1.4860   XZ=              0.9167   YZ=             -0.2055

 Normal termination of Gaussian 16 at Fri Sep 22 16:29:48 2023.
