 Gaussian 16, Revision A.03,
 Gaussian 16:  ES64L-G16RevA.03 25-Dec-2016

 ----------------
 # 6-31g(d) wb97x
 ----------------

 --------------------
 tmpdir/M2_ref_76.gjf
 --------------------
 Symbolic Z-matrix:
 Charge =  0 Multiplicity = 1

                         Standard orientation:
 ---------------------------------------------------------------------
 Center     Atomic      Atomic             Coordinates (Angstroms)
 Number     Number       Type             X           Y           Z
 ---------------------------------------------------------------------
      1          6           0        0.762150   -0.005093   -0.002766
      2          6           0       -0.765214   -0.005141    0.000222
      3          1           0        1.219050   -0.993773   -0.207761
      4          1           0        1.131748    0.716069   -0.740892
      5          1           0        1.144668    0.337218    0.968148
      6          1           0       -1.148315    1.017287    0.065329
      7          1           0       -1.169321   -0.566636    0.849771
      8          1           0       -1.159445   -0.448765   -0.919326
 ---------------------------------------------------------------------

 SCF Done:  E(RwB97X) =  -79.8007655492     A.U. after   12 cycles

 The electronic state is 1-A.
 Alpha  occ. eigenvalues --  -10.25630 -10.25475  -0.87869  -0.73416  -0.54178
 Alpha  occ. eigenvalues --   -0.54001  -0.46745  -0.44191  -0.43917
 Alpha virt. eigenvalues --    0.19997   0.25318   0.25731   0.25926   0.29081
 Alpha virt. eigenvalues --    0.29480   0.34024   0.61785   0.64839   0.64951
 Alpha virt. eigenvalues --    0.74096   0.75481   0.78887   0.99897   1.00001

 Mulliken charges:
               1
     1  C   -0.469016
     2  C   -0.468102
     3  H    0.155492
     4  H    0.156022
     5  H    0.154875
     6  H    0.157103
     7  H    0.156681
     8  H    0.156944
 Sum of Mulliken charges =   0.00000

 Dipole moment (field-independent basis, Debye):
    X=             -0.0062    Y=              0.0360    Z=              0.0061  Tot=              0.0370
 Quadrupole moment (field-independent basis, Debye-Ang):
   XX=            -15.2421   YY=            -14.6486   ZZ=            -14.7498
   XY=             -0.0481   XZ=              0.0002   YZ=             -0.0044

 Normal termination of Gaussian 16 at Fri Sep 22 16:29:46 2023.
