 Gaussian 16, Revision A.03,
 Gaussian 16:  ES64L-G16RevA.03 25-Dec-2016

 ----------------
 # 6-31g(d) wb97x
 ----------------

 --------------------
 tmpdir/M2_ref_23.gjf
 --------------------
 Symbolic Z-matrix:
 Charge =  1 Multiplicity = 1

                         Standard orientation:
 ---------------------------------------------------------------------
 Center     Atomic      Atomic             Coordinates (Angstroms)
 Number     Number       Type             X           Y           Z
 ---------------------------------------------------------------------
      1          6           0        1.269997   -0.253014   -0.003528
      2          6           0        0.031574    0.639995    0.006861
      3          7           0       -1.168452   -0.269387   -0.003520
      4          1           0        2.181563    0.253729   -0.302244
      5          1           0        1.438164   -0.716918    0.974192
      6          1           0        1.118905   -1.098012   -0.692871
      7          1           0        0.022861    1.332897   -0.857440
      8          1           0       -0.043277    1.217122    0.935423
      9          1           0       -2.054707    0.325649   -0.137326
     10          1           0       -1.089199   -0.936092   -0.775214
     11          1           0       -1.204563   -0.814552    0.860124
 ---------------------------------------------------------------------

 SCF Done:  E(RwB97X) =  -135.490949251     A.U. after   12 cycles

 The electronic state is 1-A.
 Alpha  occ. eigenvalues --  -14.75590 -10.53028 -10.44967  -1.34421  -1.09024
 Alpha  occ. eigenvalues --   -0.96758  -0.91533  -0.89387  -0.80628  -0.74823
 Alpha  occ. eigenvalues --   -0.68670  -0.67321  -0.64873
 Alpha virt. eigenvalues --   -0.07739  -0.01544  -0.00689   0.01711   0.04886
 Alpha virt. eigenvalues --    0.06381   0.08261   0.12157   0.12358   0.14015
 Alpha virt. eigenvalues --    0.41369   0.42589   0.43782   0.46176   0.50443

 Mulliken charges:
               1
     1  C   -0.529031
     2  C   -0.249297
     3  N   -0.743710
     4  H    0.257567
     5  H    0.215643
     6  H    0.185969
     7  H    0.261533
     8  H    0.257270
     9  H    0.455367
    10  H    0.440526
    11  H    0.448163
 Sum of Mulliken charges =   1.00000

 Dipole moment (field-independent basis, Debye):
    X=             -3.8807    Y=             -0.6792    Z=             -0.0366  Tot=              3.9398
 Quadrupole moment (field-independent basis, Debye-Ang):
   XX=             -9.2127   YY=            -15.6711   ZZ=            -16.5263
   XY=              1.2534   XZ=             -0.0095   YZ=             -0.2583

 Normal termination of Gaussian 16 at Fri Sep 22 16:29:23 2023.
