 Gaussian 16, Revision A.03,
 Gaussian 16:  ES64L-G16RevA.03 25-Dec-2016

 ----------------
 # 6-31g(d) wb97x
 ----------------

 ---------------------
 tmpdir/M2_ref_123.gjf
 ---------------------
 Symbolic Z-matrix:
 Charge =  0 Multiplicity = 1

                         Standard orientation:
 ---------------------------------------------------------------------
 Center     Atomic      Atomic             Coordinates (Angstroms)
 Number     Number       Type             X           Y           Z
 ---------------------------------------------------------------------
      1          1           0       -0.297313    0.087647    1.044550
      2          6           0        0.007350   -0.001515   -0.002156
      3          1           0       -0.499296   -0.877139   -0.422759
      4          1           0        1.106871   -0.088174   -0.079509
      5          1           0       -0.354358    0.886756   -0.529345
 ---------------------------------------------------------------------

 SCF Done:  E(RwB97X) =  -40.4991333295     A.U. after   11 cycles

 The electronic state is 1-A.
 Alpha  occ. eigenvalues --  -10.25065  -0.81657  -0.49849  -0.49242  -0.49151
 Alpha virt. eigenvalues --    0.21532   0.27377   0.27438   0.27461   0.63874
 Alpha virt. eigenvalues --    0.63954   0.64715   1.01309   1.01519   1.01568
 Alpha virt. eigenvalues --    1.06749   1.20745   1.75842   1.75898   2.33249

 Mulliken charges:
               1
     1  H    0.166276
     2  C   -0.665916
     3  H    0.166556
     4  H    0.166575
     5  H    0.166508
 Sum of Mulliken charges =   0.00000

 Dipole moment (field-independent basis, Debye):
    X=             -0.0374    Y=              0.0077    Z=              0.0104  Tot=              0.0395
 Quadrupole moment (field-independent basis, Debye-Ang):
   XX=             -8.1398   YY=             -8.3114   ZZ=             -8.3354
   XY=              0.0002   XZ=              0.0005   YZ=             -0.0002

 Normal termination of Gaussian 16 at Fri Sep 22 16:29:57 2023.
