 Gaussian 16, Revision A.03,
 Gaussian 16:  ES64L-G16RevA.03 25-Dec-2016

 ----------------
 # 6-31g(d) wb97x
 ----------------

 --------------------
 tmpdir/M2_ref_26.gjf
 --------------------
 Symbolic Z-matrix:
 Charge =  1 Multiplicity = 1

                         Standard orientation:
 ---------------------------------------------------------------------
 Center     Atomic      Atomic             Coordinates (Angstroms)
 Number     Number       Type             X           Y           Z
 ---------------------------------------------------------------------
      1          7           0       -1.210097   -0.252490    0.004419
      2          6           0        0.029937    0.601128   -0.023822
      3          6           0        1.299132   -0.253054    0.014442
      4          1           0       -1.121121   -1.020133   -0.744063
      5          1           0       -1.308296   -0.687611    0.924916
      6          1           0       -2.039393    0.326305   -0.142738
      7          1           0       -0.026268    1.283016    0.844209
      8          1           0       -0.010272    1.149066   -0.972007
      9          1           0        1.481001   -0.995497   -0.852773
     10          1           0        2.190342    0.428070    0.001902
     11          1           0        1.330265   -0.804231    0.965901
 ---------------------------------------------------------------------

 SCF Done:  E(RwB97X) =  -135.490021272     A.U. after   12 cycles

 The electronic state is 1-A.
 Alpha  occ. eigenvalues --  -14.75421 -10.53047 -10.45740  -1.34227  -1.08765
 Alpha  occ. eigenvalues --   -0.95732  -0.91008  -0.90176  -0.79772  -0.74897
 Alpha  occ. eigenvalues --   -0.68408  -0.66035  -0.64576
 Alpha virt. eigenvalues --   -0.07790  -0.01218  -0.00112   0.02059   0.05496
 Alpha virt. eigenvalues --    0.05642   0.07987   0.09713   0.10670   0.13958
 Alpha virt. eigenvalues --    0.40646   0.43234   0.44213   0.45937   0.52348

 Mulliken charges:
               1
     1  N   -0.741403
     2  C   -0.249067
     3  C   -0.525933
     4  H    0.448292
     5  H    0.443584
     6  H    0.451493
     7  H    0.257535
     8  H    0.254171
     9  H    0.208123
    10  H    0.248808
    11  H    0.204396
 Sum of Mulliken charges =   1.00000

 Dipole moment (field-independent basis, Debye):
    X=             -3.9178    Y=             -0.7047    Z=              0.0072  Tot=              3.9807
 Quadrupole moment (field-independent basis, Debye-Ang):
   XX=             -8.8948   YY=            -15.9663   ZZ=            -16.2770
   XY=              1.3087   XZ=             -0.2984   YZ=              0.3363

 Normal termination of Gaussian 16 at Fri Sep 22 16:29:29 2023.
