 Gaussian 16, Revision A.03,
 Gaussian 16:  ES64L-G16RevA.03 25-Dec-2016

 ----------------
 # 6-31g(d) wb97x
 ----------------

 --------------------
 tmpdir/M2_ref_17.gjf
 --------------------
 Symbolic Z-matrix:
 Charge =  0 Multiplicity = 1

                         Standard orientation:
 ---------------------------------------------------------------------
 Center     Atomic      Atomic             Coordinates (Angstroms)
 Number     Number       Type             X           Y           Z
 ---------------------------------------------------------------------
      1          6           0       -0.766925    0.018327    0.000817
      2          6           0        0.759895    0.010201    0.005031
      3          1           0        1.155419   -0.614122    0.813243
      4          1           0       -1.118245   -1.026426   -0.430155
      5          1           0       -1.167244    0.859613   -0.598508
      6          1           0       -1.174034    0.070604    1.016905
      7          1           0        1.209951    0.994293    0.082410
      8          1           0        1.136332   -0.455129   -0.918985
 ---------------------------------------------------------------------

 SCF Done:  E(RwB97X) =  -79.7948473174     A.U. after   12 cycles

 The electronic state is 1-A.
 Alpha  occ. eigenvalues --  -10.26590 -10.25400  -0.87714  -0.73001  -0.54386
 Alpha  occ. eigenvalues --   -0.53600  -0.46620  -0.44347  -0.43125
 Alpha virt. eigenvalues --    0.19332   0.23674   0.24924   0.25324   0.29672
 Alpha virt. eigenvalues --    0.30792   0.33976   0.61790   0.64676   0.65925
 Alpha virt. eigenvalues --    0.74861   0.76543   0.78874   0.96205   0.99440

 Mulliken charges:
               1
     1  C   -0.458432
     2  C   -0.469480
     3  H    0.156659
     4  H    0.134859
     5  H    0.159516
     6  H    0.161020
     7  H    0.160508
     8  H    0.155349
 Sum of Mulliken charges =  -0.00000

 Dipole moment (field-independent basis, Debye):
    X=              0.0608    Y=              0.0191    Z=              0.0368  Tot=              0.0735
 Quadrupole moment (field-independent basis, Debye-Ang):
   XX=            -15.4028   YY=            -14.5902   ZZ=            -14.8613
   XY=             -0.0780   XZ=             -0.0729   YZ=             -0.0801

 Normal termination of Gaussian 16 at Fri Sep 22 16:29:23 2023.
