 Gaussian 16, Revision A.03,
 Gaussian 16:  ES64L-G16RevA.03 25-Dec-2016

 ----------------
 # 6-31g(d) wb97x
 ----------------

 -------------------
 tmpdir/M2_ref_5.gjf
 -------------------
 Symbolic Z-matrix:
 Charge = -1 Multiplicity = 1

                         Standard orientation:
 ---------------------------------------------------------------------
 Center     Atomic      Atomic             Coordinates (Angstroms)
 Number     Number       Type             X           Y           Z
 ---------------------------------------------------------------------
      1          8           0       -0.620610    1.300534    0.001515
      2          6           0       -0.586621    0.060093   -0.001928
      3          6           0        0.838419   -0.562307   -0.004693
      4          8           0       -1.488282   -0.807812    0.000332
      5          1           0        0.863685   -1.646662    0.017854
      6          8           0        1.812083    0.089771    0.000888
 ---------------------------------------------------------------------

 SCF Done:  E(RwB97X) =  -302.433579877     A.U. after   17 cycles

 The electronic state is 1-A.
 Alpha  occ. eigenvalues --  -19.04072 -18.94131 -18.93863 -10.16071 -10.14090
 Alpha  occ. eigenvalues --   -1.01614  -0.93246  -0.84867  -0.57070  -0.44826
 Alpha  occ. eigenvalues --   -0.38651  -0.34833  -0.34309  -0.29230  -0.27467
 Alpha  occ. eigenvalues --   -0.20951  -0.13359  -0.12534  -0.11161
 Alpha virt. eigenvalues --    0.24390   0.41354   0.42692   0.53556   0.59879
 Alpha virt. eigenvalues --    0.64100   0.72728   0.81347   0.90954   0.91658
 Alpha virt. eigenvalues --    0.97989   1.00089   1.03055   1.07654   1.11787

 Mulliken charges:
               1
     1  O   -0.605731
     2  C    0.443319
     3  C    0.131623
     4  O   -0.631733
     5  H    0.048832
     6  O   -0.386309
 Sum of Mulliken charges =  -1.00000

 Dipole moment (field-independent basis, Debye):
    X=              2.5706    Y=             -1.9224    Z=             -0.0135  Tot=              3.2100
 Quadrupole moment (field-independent basis, Debye-Ang):
   XX=            -41.7601   YY=            -35.5172   ZZ=            -26.8399
   XY=             -2.3351   XZ=              0.0005   YZ=              0.0004

 Normal termination of Gaussian 16 at Fri Sep 22 16:29:26 2023.
