 Gaussian 16, Revision A.03,
 Gaussian 16:  ES64L-G16RevA.03 25-Dec-2016

 ----------------
 # 6-31g(d) wb97x
 ----------------

 -------------------
 tmpdir/M2_ref_2.gjf
 -------------------
 Symbolic Z-matrix:
 Charge =  0 Multiplicity = 1

                         Standard orientation:
 ---------------------------------------------------------------------
 Center     Atomic      Atomic             Coordinates (Angstroms)
 Number     Number       Type             X           Y           Z
 ---------------------------------------------------------------------
      1          6           0       -0.651080    0.497910   -0.000210
      2          6           0        0.635846   -0.374971   -0.005520
      3          6           0       -1.836833   -0.282555    0.000516
      4          1           0       -0.491957    1.504293    0.005245
      5          1           0        0.462070   -1.445665    0.014234
      6          6           0        1.857049    0.149845    0.001968
 ---------------------------------------------------------------------

 SCF Done:  E(RwB97X) =  -153.250490509     A.U. after   18 cycles

 The electronic state is 1-A.
 Alpha  occ. eigenvalues --  -10.37885 -10.35262 -10.32956 -10.31661  -0.96254
 Alpha  occ. eigenvalues --   -0.86624  -0.69642  -0.65979  -0.55361  -0.45619
 Alpha  occ. eigenvalues --   -0.43042  -0.40916  -0.35208
 Alpha virt. eigenvalues --   -0.03528  -0.00393   0.04535   0.13887   0.21921
 Alpha virt. eigenvalues --    0.26137   0.31650   0.40747   0.45092   0.58081
 Alpha virt. eigenvalues --    0.61039   0.62383   0.65091   0.66693   0.68621

 Mulliken charges:
               1
     1  C   -0.240016
     2  C   -0.280041
     3  C    0.034372
     4  H    0.232940
     5  H    0.240429
     6  C    0.012317
 Sum of Mulliken charges =  -0.00000

 Dipole moment (field-independent basis, Debye):
    X=             -0.4532    Y=              0.2245    Z=              0.0197  Tot=              0.5061
 Quadrupole moment (field-independent basis, Debye-Ang):
   XX=            -31.6572   YY=            -19.3533   ZZ=            -25.5812
   XY=             -4.1339   XZ=             -0.0022   YZ=             -0.0237

 Normal termination of Gaussian 16 at Fri Sep 22 16:29:20 2023.
