 Gaussian 16, Revision A.03,
 Gaussian 16:  ES64L-G16RevA.03 25-Dec-2016

 ----------------
 # 6-31g(d) wb97x
 ----------------

 ---------------------
 tmpdir/M2_ref_103.gjf
 ---------------------
 Symbolic Z-matrix:
 Charge =  0 Multiplicity = 1

                         Standard orientation:
 ---------------------------------------------------------------------
 Center     Atomic      Atomic             Coordinates (Angstroms)
 Number     Number       Type             X           Y           Z
 ---------------------------------------------------------------------
      1          6           0        0.763990    0.006325   -0.002861
      2          6           0       -0.761769   -0.001248    0.002058
      3          1           0       -1.118999   -0.096810   -1.029429
      4          1           0        1.098204   -1.024394   -0.460240
      5          1           0        1.190271    0.877452   -0.539232
      6          1           0        1.117881    0.041518    1.044871
      7          1           0       -1.200186   -0.804431    0.621437
      8          1           0       -1.100502    0.976207    0.367413
 ---------------------------------------------------------------------

 SCF Done:  E(RwB97X) =  -79.7951398526     A.U. after   12 cycles

 The electronic state is 1-A.
 Alpha  occ. eigenvalues --  -10.26569 -10.25584  -0.87830  -0.72553  -0.54486
 Alpha  occ. eigenvalues --   -0.53914  -0.46495  -0.44084  -0.43143
 Alpha virt. eigenvalues --    0.19184   0.24940   0.25208   0.26083   0.27719
 Alpha virt. eigenvalues --    0.29046   0.33540   0.61517   0.65159   0.66803
 Alpha virt. eigenvalues --    0.72899   0.76053   0.78770   0.96689   0.99508

 Mulliken charges:
               1
     1  C   -0.455883
     2  C   -0.462654
     3  H    0.156166
     4  H    0.136153
     5  H    0.159568
     6  H    0.155163
     7  H    0.157975
     8  H    0.153511
 Sum of Mulliken charges =  -0.00000

 Dipole moment (field-independent basis, Debye):
    X=             -0.0500    Y=              0.0627    Z=              0.0310  Tot=              0.0860
 Quadrupole moment (field-independent basis, Debye-Ang):
   XX=            -15.6816   YY=            -14.5605   ZZ=            -14.7975
   XY=              0.2582   XZ=             -0.0058   YZ=             -0.0889

 Normal termination of Gaussian 16 at Fri Sep 22 16:30:01 2023.
