 Gaussian 16, Revision A.03,
 Gaussian 16:  ES64L-G16RevA.03 25-Dec-2016

 ----------------
 # 6-31g(d) wb97x
 ----------------

 --------------------
 tmpdir/M2_ref_29.gjf
 --------------------
 Symbolic Z-matrix:
 Charge =  1 Multiplicity = 1

                         Standard orientation:
 ---------------------------------------------------------------------
 Center     Atomic      Atomic             Coordinates (Angstroms)
 Number     Number       Type             X           Y           Z
 ---------------------------------------------------------------------
      1          7           0       -0.002205   -0.001044   -0.002697
      2          1           0        1.043171   -0.220122   -0.131586
      3          1           0       -0.129352    1.044902    0.033776
      4          1           0       -0.329901   -0.418929    0.871531
      5          1           0       -0.568485   -0.398540   -0.754838
 ---------------------------------------------------------------------

 SCF Done:  E(RwB97X) =  -56.8735339658     A.U. after   10 cycles

 The electronic state is 1-A.
 Alpha  occ. eigenvalues --  -14.79088  -1.36612  -0.93397  -0.92953  -0.91958
 Alpha virt. eigenvalues --   -0.10737  -0.03489  -0.01966  -0.01472   0.44495
 Alpha virt. eigenvalues --    0.46050   0.46903   0.66746   0.68197   0.69876
 Alpha virt. eigenvalues --    0.71772   1.09653   1.36152   1.36622   2.04354

 Mulliken charges:
               1
     1  N   -0.886283
     2  H    0.475593
     3  H    0.472837
     4  H    0.467931
     5  H    0.469922
 Sum of Mulliken charges =   1.00000

 Dipole moment (field-independent basis, Debye):
    X=              0.0497    Y=              0.0215    Z=              0.0291  Tot=              0.0614
 Quadrupole moment (field-independent basis, Debye-Ang):
   XX=             -4.1080   YY=             -4.2636   ZZ=             -4.5738
   XY=              0.0095   XZ=              0.0072   YZ=              0.0016

 Normal termination of Gaussian 16 at Fri Sep 22 16:29:18 2023.
