 Gaussian 16, Revision A.03,
 Gaussian 16:  ES64L-G16RevA.03 25-Dec-2016

 ----------------
 # 6-31g(d) wb97x
 ----------------

 --------------------
 tmpdir/M2_ref_21.gjf
 --------------------
 Symbolic Z-matrix:
 Charge =  0 Multiplicity = 1

                         Standard orientation:
 ---------------------------------------------------------------------
 Center     Atomic      Atomic             Coordinates (Angstroms)
 Number     Number       Type             X           Y           Z
 ---------------------------------------------------------------------
      1          6           0       -0.768158    0.000509   -0.018485
      2          6           0        0.761814   -0.000253    0.015159
      3          1           0       -1.172496    1.028572   -0.053217
      4          1           0       -1.222958   -0.518885    0.942795
      5          1           0       -1.112740   -0.598700   -0.868849
      6          1           0        1.304571   -1.020747    0.034340
      7          1           0        1.141112    0.510166   -0.908934
      8          1           0        1.100573    0.598059    0.873823
 ---------------------------------------------------------------------

 SCF Done:  E(RwB97X) =  -79.7927576633     A.U. after   12 cycles

 The electronic state is 1-A.
 Alpha  occ. eigenvalues --  -10.26735 -10.26563  -0.87441  -0.72630  -0.54380
 Alpha  occ. eigenvalues --   -0.52859  -0.46921  -0.44189  -0.42735
 Alpha virt. eigenvalues --    0.19347   0.23844   0.24064   0.26273   0.27544
 Alpha virt. eigenvalues --    0.28899   0.33683   0.61795   0.65546   0.66006
 Alpha virt. eigenvalues --    0.73752   0.77060   0.78597   0.96461   0.98221

 Mulliken charges:
               1
     1  C   -0.454176
     2  C   -0.459070
     3  H    0.161535
     4  H    0.134020
     5  H    0.161039
     6  H    0.148185
     7  H    0.150268
     8  H    0.158198
 Sum of Mulliken charges =   0.00000

 Dipole moment (field-independent basis, Debye):
    X=              0.0136    Y=              0.0696    Z=             -0.0587  Tot=              0.0921
 Quadrupole moment (field-independent basis, Debye-Ang):
   XX=            -15.3865   YY=            -14.7260   ZZ=            -14.9396
   XY=             -0.1775   XZ=             -0.0261   YZ=              0.1267

 Normal termination of Gaussian 16 at Fri Sep 22 16:29:10 2023.
