 Gaussian 16, Revision A.03,
 Gaussian 16:  ES64L-G16RevA.03 25-Dec-2016

 ----------------
 # 6-31g(d) wb97x
 ----------------

 --------------------
 tmpdir/M2_ref_54.gjf
 --------------------
 Symbolic Z-matrix:
 Charge =  0 Multiplicity = 1

                         Standard orientation:
 ---------------------------------------------------------------------
 Center     Atomic      Atomic             Coordinates (Angstroms)
 Number     Number       Type             X           Y           Z
 ---------------------------------------------------------------------
      1          6           0       -0.016803   -0.012024   -0.001234
      2          1           0       -0.193855    0.504110    0.961066
      3          1           0        0.153702    0.784489   -0.772491
      4          1           0       -0.862860   -0.641268   -0.260771
      5          1           0        1.003831   -0.575187    0.079603
 ---------------------------------------------------------------------

 SCF Done:  E(RwB97X) =  -40.4946733854     A.U. after   11 cycles

 The electronic state is 1-A.
 Alpha  occ. eigenvalues --  -10.26080  -0.81034  -0.50473  -0.48859  -0.47702
 Alpha virt. eigenvalues --    0.20775   0.25463   0.26831   0.27762   0.64016
 Alpha virt. eigenvalues --    0.64533   0.66116   0.96903   0.99920   1.02175
 Alpha virt. eigenvalues --    1.04143   1.20197   1.76232   1.76490   2.27640

 Mulliken charges:
               1
     1  C   -0.655398
     2  H    0.166540
     3  H    0.161626
     4  H    0.176202
     5  H    0.151030
 Sum of Mulliken charges =  -0.00000

 Dipole moment (field-independent basis, Debye):
    X=             -0.0158    Y=              0.0560    Z=              0.0051  Tot=              0.0584
 Quadrupole moment (field-independent basis, Debye-Ang):
   XX=             -8.1443   YY=             -8.4093   ZZ=             -8.4237
   XY=              0.1103   XZ=              0.0115   YZ=              0.0446

 Normal termination of Gaussian 16 at Fri Sep 22 16:29:25 2023.
