 Gaussian 16, Revision A.03,
 Gaussian 16:  ES64L-G16RevA.03 25-Dec-2016

 ----------------
 # 6-31g(d) wb97x
 ----------------

 ---------------------
 tmpdir/M2_ref_108.gjf
 ---------------------
 Symbolic Z-matrix:
 Charge =  0 Multiplicity = 1

                         Standard orientation:
 ---------------------------------------------------------------------
 Center     Atomic      Atomic             Coordinates (Angstroms)
 Number     Number       Type             X           Y           Z
 ---------------------------------------------------------------------
      1          6           0       -0.008010    0.000149   -0.000935
      2          1           0        0.453362   -0.089941    0.987420
      3          1           0       -1.110553    0.013362    0.070957
      4          1           0        0.368881    0.927852   -0.454642
      5          1           0        0.336372   -0.852166   -0.598126
 ---------------------------------------------------------------------

 SCF Done:  E(RwB97X) =  -40.4990936706     A.U. after   10 cycles

 The electronic state is 1-A.
 Alpha  occ. eigenvalues --  -10.25126  -0.81615  -0.49860  -0.49321  -0.48988
 Alpha virt. eigenvalues --    0.21497   0.27261   0.27408   0.27471   0.63839
 Alpha virt. eigenvalues --    0.64132   0.64697   1.01160   1.01456   1.01486
 Alpha virt. eigenvalues --    1.06516   1.20689   1.75823   1.75992   2.33284

 Mulliken charges:
               1
     1  C   -0.665323
     2  H    0.166330
     3  H    0.166957
     4  H    0.165644
     5  H    0.166392
 Sum of Mulliken charges =  -0.00000

 Dipole moment (field-independent basis, Debye):
    X=              0.0374    Y=             -0.0037    Z=              0.0066  Tot=              0.0382
 Quadrupole moment (field-independent basis, Debye-Ang):
   XX=             -8.1451   YY=             -8.2901   ZZ=             -8.3629
   XY=             -0.0023   XZ=              0.0011   YZ=              0.0027

 Normal termination of Gaussian 16 at Fri Sep 22 16:29:51 2023.
