 Gaussian 16, Revision A.03,
 Gaussian 16:  ES64L-G16RevA.03 25-Dec-2016

 ----------------
 # 6-31g(d) wb97x
 ----------------

 --------------------
 tmpdir/M2_ref_55.gjf
 --------------------
 Symbolic Z-matrix:
 Charge =  0 Multiplicity = 1

                         Standard orientation:
 ---------------------------------------------------------------------
 Center     Atomic      Atomic             Coordinates (Angstroms)
 Number     Number       Type             X           Y           Z
 ---------------------------------------------------------------------
      1          6           0        1.410274   -0.537014    0.049909
      2          6           0        0.533524    0.731494   -0.103586
      3          6           0       -0.920362    0.420645    0.095840
      4          1           0        0.990282   -1.337452   -0.590490
      5          1           0        2.488770   -0.179790   -0.163627
      6          1           0        1.341569   -0.848739    1.102594
      7          1           0        0.977933    1.497747    0.658475
      8          1           0        0.713151    1.125908   -1.121395
      9          8           0       -1.380123   -0.645524   -0.062791
     10          1           0       -1.611340    1.215774    0.363798
 ---------------------------------------------------------------------

 SCF Done:  E(RwB97X) =  -193.076113378     A.U. after   15 cycles

 The electronic state is 1-A.
 Alpha  occ. eigenvalues --  -19.21626 -10.35568 -10.28798 -10.27277  -1.19555
 Alpha  occ. eigenvalues --   -0.90832  -0.77937  -0.67545  -0.61068  -0.57484
 Alpha  occ. eigenvalues --   -0.55080  -0.50239  -0.47743  -0.45584  -0.44723
 Alpha  occ. eigenvalues --   -0.35421
 Alpha virt. eigenvalues --    0.08251   0.17959   0.22843   0.24131   0.24855
 Alpha virt. eigenvalues --    0.26820   0.28042   0.30185   0.38743   0.39680
 Alpha virt. eigenvalues --    0.62318   0.63171   0.67212   0.68405   0.69486

 Mulliken charges:
               1
     1  C   -0.458473
     2  C   -0.390845
     3  C    0.244282
     4  H    0.186072
     5  H    0.146822
     6  H    0.164848
     7  H    0.154886
     8  H    0.188204
     9  O   -0.357056
    10  H    0.121260
 Sum of Mulliken charges =  -0.00000

 Dipole moment (field-independent basis, Debye):
    X=              1.2737    Y=              1.9621    Z=              0.1543  Tot=              2.3444
 Quadrupole moment (field-independent basis, Debye-Ang):
   XX=            -26.8411   YY=            -25.5294   ZZ=            -23.9242
   XY=             -1.8660   XZ=             -0.2801   YZ=             -0.0967

 Normal termination of Gaussian 16 at Fri Sep 22 16:29:38 2023.
