 Gaussian 16, Revision A.03,
 Gaussian 16:  ES64L-G16RevA.03 25-Dec-2016

 ----------------
 # 6-31g(d) wb97x
 ----------------

 --------------------
 tmpdir/M2_ref_72.gjf
 --------------------
 Symbolic Z-matrix:
 Charge =  0 Multiplicity = 1

                         Standard orientation:
 ---------------------------------------------------------------------
 Center     Atomic      Atomic             Coordinates (Angstroms)
 Number     Number       Type             X           Y           Z
 ---------------------------------------------------------------------
      1          8           0        0.743449    0.122580    0.016695
      2          6           0       -0.681861   -0.019261    0.005022
      3          1           0       -0.949794   -0.667009   -0.851047
      4          1           0        1.264809   -0.700287   -0.063199
      5          1           0       -1.078695   -0.487398    0.927866
      6          1           0       -1.092745    0.989620   -0.177306
 ---------------------------------------------------------------------

 SCF Done:  E(RwB97X) =  -115.675990424     A.U. after   12 cycles

 The electronic state is 1-A.
 Alpha  occ. eigenvalues --  -19.20095 -10.31155  -1.12179  -0.80232  -0.60751
 Alpha  occ. eigenvalues --   -0.54126  -0.52810  -0.41948  -0.36429
 Alpha virt. eigenvalues --    0.17582   0.22665   0.26605   0.27356   0.30677
 Alpha virt. eigenvalues --    0.64332   0.66938   0.68895   0.90403   0.96314
 Alpha virt. eigenvalues --    0.98173   1.01666   1.06961   1.09538   1.12164

 Mulliken charges:
               1
     1  O   -0.645622
     2  C   -0.214268
     3  H    0.138346
     4  H    0.402647
     5  H    0.143876
     6  H    0.175021
 Sum of Mulliken charges =  -0.00000

 Dipole moment (field-independent basis, Debye):
    X=             -0.6620    Y=             -1.5346    Z=             -0.1998  Tot=              1.6832
 Quadrupole moment (field-independent basis, Debye-Ang):
   XX=            -11.9584   YY=            -12.1327   ZZ=            -13.5679
   XY=             -2.3952   XZ=             -0.2253   YZ=              0.0017

 Normal termination of Gaussian 16 at Fri Sep 22 16:29:34 2023.
