 Gaussian 16, Revision A.03,
 Gaussian 16:  ES64L-G16RevA.03 25-Dec-2016

 ----------------
 # 6-31g(d) wb97x
 ----------------

 --------------------
 tmpdir/M2_ref_70.gjf
 --------------------
 Symbolic Z-matrix:
 Charge =  0 Multiplicity = 1

                         Standard orientation:
 ---------------------------------------------------------------------
 Center     Atomic      Atomic             Coordinates (Angstroms)
 Number     Number       Type             X           Y           Z
 ---------------------------------------------------------------------
      1          8           0       -1.241207   -0.255509   -0.118100
      2          6           0       -0.070031    0.555140    0.033417
      3          6           0        1.229325   -0.252450   -0.025330
      4          1           0       -1.463193   -0.845893    0.628545
      5          1           0       -0.128698    1.334328   -0.747181
      6          1           0       -0.124747    1.045876    1.023571
      7          1           0        1.378166   -0.809152   -0.968923
      8          1           0        1.253972   -0.946429    0.822781
      9          1           0        2.058390    0.449202    0.137480
 ---------------------------------------------------------------------

 SCF Done:  E(RwB97X) =  -154.985527663     A.U. after   13 cycles

 The electronic state is 1-A.
 Alpha  occ. eigenvalues --  -19.19894 -10.31525 -10.26026  -1.12273  -0.87128
 Alpha  occ. eigenvalues --   -0.74028  -0.60821  -0.56028  -0.52322  -0.48797
 Alpha  occ. eigenvalues --   -0.46736  -0.40989  -0.36173
 Alpha virt. eigenvalues --    0.17419   0.21590   0.24452   0.25554   0.26747
 Alpha virt. eigenvalues --    0.29038   0.32290   0.34327   0.63670   0.65443
 Alpha virt. eigenvalues --    0.67798   0.68491   0.76597   0.78955   0.92035

 Mulliken charges:
               1
     1  O   -0.645707
     2  C   -0.037856
     3  C   -0.482355
     4  H    0.398748
     5  H    0.164534
     6  H    0.130376
     7  H    0.171994
     8  H    0.148811
     9  H    0.151454
 Sum of Mulliken charges =   0.00000

 Dipole moment (field-independent basis, Debye):
    X=              0.9072    Y=             -0.1404    Z=              1.3817  Tot=              1.6588
 Quadrupole moment (field-independent basis, Debye-Ang):
   XX=            -21.2220   YY=            -18.4860   ZZ=            -18.8183
   XY=              1.2751   XZ=             -2.3153   YZ=             -1.4371

 Normal termination of Gaussian 16 at Fri Sep 22 16:29:40 2023.
