 Gaussian 16, Revision A.03,
 Gaussian 16:  ES64L-G16RevA.03 25-Dec-2016

 ----------------
 # 6-31g(d) wb97x
 ----------------

 --------------------
 tmpdir/M2_ref_58.gjf
 --------------------
 Symbolic Z-matrix:
 Charge =  0 Multiplicity = 1

                         Standard orientation:
 ---------------------------------------------------------------------
 Center     Atomic      Atomic             Coordinates (Angstroms)
 Number     Number       Type             X           Y           Z
 ---------------------------------------------------------------------
      1          6           0       -0.753804   -0.350860    0.134623
      2          6           0        0.496745    0.476668    0.173446
      3          8           0        1.670493   -0.198770   -0.263955
      4          8           0       -1.802832    0.078362   -0.162983
      5          1           0       -0.719659   -1.396218    0.430501
      6          1           0        0.415180    1.374582   -0.493966
      7          1           0        0.685729    0.852096    1.196726
      8          1           0        2.219815   -0.622049    0.433834
 ---------------------------------------------------------------------

 SCF Done:  E(RwB97X) =  -228.960205592     A.U. after   16 cycles

 The electronic state is 1-A.
 Alpha  occ. eigenvalues --  -19.22690 -19.22134 -10.35868 -10.33521  -1.20056
 Alpha  occ. eigenvalues --   -1.15025  -0.85856  -0.71461  -0.64301  -0.60687
 Alpha  occ. eigenvalues --   -0.56798  -0.53113  -0.50908  -0.43487  -0.41469
 Alpha  occ. eigenvalues --   -0.35117
 Alpha virt. eigenvalues --    0.07317   0.16101   0.21599   0.22995   0.25709
 Alpha virt. eigenvalues --    0.31848   0.37636   0.40803   0.62875   0.65641
 Alpha virt. eigenvalues --    0.66946   0.74471   0.77518   0.84812   0.86071

 Mulliken charges:
               1
     1  C    0.234967
     2  C   -0.140748
     3  O   -0.638664
     4  O   -0.352604
     5  H    0.121575
     6  H    0.198405
     7  H    0.166725
     8  H    0.410344
 Sum of Mulliken charges =  -0.00000

 Dipole moment (field-independent basis, Debye):
    X=              2.0968    Y=             -0.5433    Z=              2.2476  Tot=              3.1215
 Quadrupole moment (field-independent basis, Debye-Ang):
   XX=            -27.2824   YY=            -21.7587   ZZ=            -22.4052
   XY=             -0.2652   XZ=              2.7380   YZ=             -0.8619

 Normal termination of Gaussian 16 at Fri Sep 22 16:29:39 2023.
