 Gaussian 16, Revision A.03,
 Gaussian 16:  ES64L-G16RevA.03 25-Dec-2016

 ----------------
 # 6-31g(d) wb97x
 ----------------

 --------------------
 tmpdir/M2_ref_88.gjf
 --------------------
 Symbolic Z-matrix:
 Charge =  0 Multiplicity = 1

                         Standard orientation:
 ---------------------------------------------------------------------
 Center     Atomic      Atomic             Coordinates (Angstroms)
 Number     Number       Type             X           Y           Z
 ---------------------------------------------------------------------
      1          7           0       -1.128246   -0.688366    0.022586
      2          6           0       -0.077981    0.145570   -0.001350
      3          6           0        1.284073   -0.503448   -0.000549
      4          1           0       -2.145556   -0.548202   -0.054224
      5          1           0       -0.921485   -1.677823   -0.067018
      6          8           0       -0.147793    1.388007   -0.003208
      7          1           0        1.820660   -0.183472    0.896692
      8          1           0        1.841991   -0.133805   -0.864762
      9          1           0        1.247902   -1.594923   -0.031732
 ---------------------------------------------------------------------

 SCF Done:  E(RwB97X) =  -209.149385596     A.U. after   15 cycles

 The electronic state is 1-A.
 Alpha  occ. eigenvalues --  -19.16233 -14.44144 -10.37356 -10.27299  -1.13744
 Alpha  occ. eigenvalues --   -1.03399  -0.86540  -0.72136  -0.63664  -0.57953
 Alpha  occ. eigenvalues --   -0.55575  -0.50774  -0.48980  -0.46637  -0.36231
 Alpha  occ. eigenvalues --   -0.33864
 Alpha virt. eigenvalues --    0.12991   0.16358   0.20045   0.23402   0.27634
 Alpha virt. eigenvalues --    0.28114   0.33998   0.40940   0.51583   0.63863
 Alpha virt. eigenvalues --    0.65002   0.67559   0.73683   0.73853   0.79280

 Mulliken charges:
               1
     1  N   -0.768265
     2  C    0.577036
     3  C   -0.561151
     4  H    0.364731
     5  H    0.340641
     6  O   -0.508743
     7  H    0.205509
     8  H    0.204173
     9  H    0.146069
 Sum of Mulliken charges =  -0.00000

 Dipole moment (field-independent basis, Debye):
    X=             -0.6413    Y=             -4.1490    Z=             -0.2657  Tot=              4.2066
 Quadrupole moment (field-independent basis, Debye-Ang):
   XX=            -18.8028   YY=            -26.3439   ZZ=            -24.5184
   XY=              2.1627   XZ=              0.4655   YZ=              0.3564

 Normal termination of Gaussian 16 at Fri Sep 22 16:29:59 2023.
