 Gaussian 16, Revision A.03,
 Gaussian 16:  ES64L-G16RevA.03 25-Dec-2016

 ----------------
 # 6-31g(d) wb97x
 ----------------

 --------------------
 tmpdir/M2_ref_51.gjf
 --------------------
 Symbolic Z-matrix:
 Charge =  0 Multiplicity = 1

                         Standard orientation:
 ---------------------------------------------------------------------
 Center     Atomic      Atomic             Coordinates (Angstroms)
 Number     Number       Type             X           Y           Z
 ---------------------------------------------------------------------
      1          6           0        0.150063    0.384165    0.001862
      2          7           0       -1.077490   -0.155829   -0.022614
      3          1           0       -1.856265    0.488494    0.067731
      4          8           0        1.216494   -0.257123    0.002970
      5          1           0        0.194395    1.475449    0.002478
      6          1           0       -1.428029   -1.121151    0.053152
 ---------------------------------------------------------------------

 SCF Done:  E(RwB97X) =  -169.835105755     A.U. after   16 cycles

 The electronic state is 1-A.
 Alpha  occ. eigenvalues --  -19.17492 -14.44864 -10.37512  -1.14102  -1.03841
 Alpha  occ. eigenvalues --   -0.75715  -0.65842  -0.59897  -0.51015  -0.50291
 Alpha  occ. eigenvalues --   -0.36899  -0.34918
 Alpha virt. eigenvalues --    0.12383   0.16983   0.19296   0.27542   0.36781
 Alpha virt. eigenvalues --    0.45716   0.64335   0.64580   0.75019   0.77674
 Alpha virt. eigenvalues --    0.81880   0.84497   0.95215   0.97895   0.98882

 Mulliken charges:
               1
     1  C    0.342603
     2  N   -0.726774
     3  H    0.342312
     4  O   -0.468553
     5  H    0.138832
     6  H    0.371580
 Sum of Mulliken charges =  -0.00000

 Dipole moment (field-independent basis, Debye):
    X=             -4.2198    Y=              0.9427    Z=              0.2841  Tot=              4.3332
 Quadrupole moment (field-independent basis, Debye-Ang):
   XX=            -16.9614   YY=            -14.8100   ZZ=            -18.4687
   XY=              1.6842   XZ=             -0.5141   YZ=             -0.0690

 Normal termination of Gaussian 16 at Fri Sep 22 16:29:28 2023.
