 Gaussian 16, Revision A.03,
 Gaussian 16:  ES64L-G16RevA.03 25-Dec-2016

 ----------------
 # 6-31g(d) wb97x
 ----------------

 --------------------
 tmpdir/M2_ref_41.gjf
 --------------------
 Symbolic Z-matrix:
 Charge =  0 Multiplicity = 1

                         Standard orientation:
 ---------------------------------------------------------------------
 Center     Atomic      Atomic             Coordinates (Angstroms)
 Number     Number       Type             X           Y           Z
 ---------------------------------------------------------------------
      1          6           0       -1.304492   -0.223093   -0.051109
      2          6           0        0.031218    0.513540    0.072171
      3          7           0        1.268039   -0.276566   -0.022977
      4          1           0       -2.159700    0.473716    0.017352
      5          1           0       -1.439135   -1.023299    0.810409
      6          1           0       -1.320101   -0.791969   -0.987614
      7          1           0        0.104692    1.264315   -0.758057
      8          1           0        0.042258    1.077687    1.016446
      9          1           0        1.515094   -1.128875    0.284528
     10          1           0        2.020261    0.321711   -0.348600
 ---------------------------------------------------------------------

 SCF Done:  E(RwB97X) =  -135.104688109     A.U. after   13 cycles

 The electronic state is 1-A.
 Alpha  occ. eigenvalues --  -14.36321 -10.29243 -10.26394  -0.98682  -0.85037
 Alpha  occ. eigenvalues --   -0.72242  -0.59785  -0.55723  -0.53779  -0.47007
 Alpha  occ. eigenvalues --   -0.45856  -0.43455  -0.30068
 Alpha virt. eigenvalues --    0.18820   0.21670   0.24010   0.26350   0.27012
 Alpha virt. eigenvalues --    0.28240   0.31007   0.32877   0.37268   0.63618
 Alpha virt. eigenvalues --    0.65470   0.67797   0.70841   0.78682   0.80066

 Mulliken charges:
               1
     1  C   -0.467913
     2  C   -0.096357
     3  N   -0.804736
     4  H    0.159183
     5  H    0.131749
     6  H    0.165411
     7  H    0.138657
     8  H    0.133993
     9  H    0.327736
    10  H    0.312277
 Sum of Mulliken charges =  -0.00000

 Dipole moment (field-independent basis, Debye):
    X=              0.3155    Y=              0.1444    Z=              0.0809  Tot=              0.3563
 Quadrupole moment (field-independent basis, Debye-Ang):
   XX=            -18.6567   YY=            -19.3015   ZZ=            -21.5777
   XY=             -0.3045   XZ=             -0.2051   YZ=             -1.2222

 Normal termination of Gaussian 16 at Fri Sep 22 16:29:36 2023.
