 Gaussian 16, Revision A.03,
 Gaussian 16:  ES64L-G16RevA.03 25-Dec-2016

 ----------------
 # 6-31g(d) wb97x
 ----------------

 --------------------
 tmpdir/M2_ref_34.gjf
 --------------------
 Symbolic Z-matrix:
 Charge =  1 Multiplicity = 1

                         Standard orientation:
 ---------------------------------------------------------------------
 Center     Atomic      Atomic             Coordinates (Angstroms)
 Number     Number       Type             X           Y           Z
 ---------------------------------------------------------------------
      1          6           0        0.793520   -0.002519   -0.000532
      2          7           0       -0.712182    0.000242   -0.001456
      3          1           0       -1.065788   -0.573587    0.766707
      4          1           0        1.115763   -1.037356   -0.217054
      5          1           0        1.200868    0.713420   -0.741277
      6          1           0        1.088784    0.310671    1.007256
      7          1           0       -1.058240    1.016570    0.067383
      8          1           0       -1.057232   -0.416295   -0.869630
 ---------------------------------------------------------------------

 SCF Done:  E(RwB97X) =  -96.1811942773     A.U. after   12 cycles

 The electronic state is 1-A.
 Alpha  occ. eigenvalues --  -14.76722 -10.53537  -1.35188  -1.05563  -0.92274
 Alpha  occ. eigenvalues --   -0.91845  -0.80989  -0.73028  -0.72661
 Alpha virt. eigenvalues --   -0.08837  -0.01764  -0.00409   0.01715   0.05120
 Alpha virt. eigenvalues --    0.06194   0.06358   0.40115   0.41888   0.42793
 Alpha virt. eigenvalues --    0.55239   0.56660   0.58260   0.69284   0.72533

 Mulliken charges:
               1
     1  C   -0.422928
     2  N   -0.747089
     3  H    0.455376
     4  H    0.266214
     5  H    0.273036
     6  H    0.265134
     7  H    0.457960
     8  H    0.452296
 Sum of Mulliken charges =   1.00000

 Dipole moment (field-independent basis, Debye):
    X=             -2.2425    Y=              0.0661    Z=             -0.0439  Tot=              2.2439
 Quadrupole moment (field-independent basis, Debye-Ang):
   XX=             -7.3571   YY=             -9.7356   ZZ=            -10.2859
   XY=              0.0526   XZ=             -0.0707   YZ=             -0.0243

 Normal termination of Gaussian 16 at Fri Sep 22 16:29:16 2023.
