 Gaussian 16, Revision A.03,
 Gaussian 16:  ES64L-G16RevA.03 25-Dec-2016

 ----------------
 # 6-31g(d) wb97x
 ----------------

 ---------------------
 tmpdir/M2_ref_102.gjf
 ---------------------
 Symbolic Z-matrix:
 Charge =  0 Multiplicity = 1

                         Standard orientation:
 ---------------------------------------------------------------------
 Center     Atomic      Atomic             Coordinates (Angstroms)
 Number     Number       Type             X           Y           Z
 ---------------------------------------------------------------------
      1          6           0       -1.281423   -0.257853   -0.003979
      2          6           0       -0.006092    0.579601    0.011059
      3          6           0        1.274222   -0.251321   -0.007930
      4          1           0       -1.260443   -0.909649    0.974794
      5          1           0       -2.200045    0.355091   -0.097265
      6          1           0       -1.238731   -0.946250   -0.869142
      7          1           0       -0.013987    1.221316    0.899232
      8          1           0       -0.030875    1.243465   -0.862046
      9          1           0        2.159462    0.385296   -0.102236
     10          1           0        1.279930   -0.947782   -0.858484
     11          1           0        1.384448   -0.824049    0.920245
 ---------------------------------------------------------------------

 SCF Done:  E(RwB97X) =  -119.100543903     A.U. after   12 cycles

 The electronic state is 1-A.
 Alpha  occ. eigenvalues --  -10.26356 -10.26051 -10.25408  -0.90799  -0.80009
 Alpha  occ. eigenvalues --   -0.69692  -0.56665  -0.54472  -0.49667  -0.47904
 Alpha  occ. eigenvalues --   -0.43889  -0.42918  -0.41988
 Alpha virt. eigenvalues --    0.18367   0.23499   0.24322   0.24591   0.26707
 Alpha virt. eigenvalues --    0.28169   0.29366   0.29522   0.32260   0.36595
 Alpha virt. eigenvalues --    0.61821   0.62214   0.65919   0.66643   0.69713

 Mulliken charges:
               1
     1  C   -0.451342
     2  C   -0.275441
     3  C   -0.466754
     4  H    0.131417
     5  H    0.158279
     6  H    0.149577
     7  H    0.148046
     8  H    0.145126
     9  H    0.157746
    10  H    0.150766
    11  H    0.152579
 Sum of Mulliken charges =  -0.00000

 Dipole moment (field-independent basis, Debye):
    X=              0.0655    Y=              0.1119    Z=             -0.0579  Tot=              0.1420
 Quadrupole moment (field-independent basis, Debye-Ang):
   XX=            -21.9504   YY=            -21.8142   ZZ=            -21.2131
   XY=             -0.2539   XZ=              0.2147   YZ=             -0.0047

 Normal termination of Gaussian 16 at Fri Sep 22 16:29:56 2023.
