 Gaussian 16, Revision A.03,
 Gaussian 16:  ES64L-G16RevA.03 25-Dec-2016

 ----------------
 # 6-31g(d) wb97x
 ----------------

 --------------------
 tmpdir/M2_ref_62.gjf
 --------------------
 Symbolic Z-matrix:
 Charge =  0 Multiplicity = 1

                         Standard orientation:
 ---------------------------------------------------------------------
 Center     Atomic      Atomic             Coordinates (Angstroms)
 Number     Number       Type             X           Y           Z
 ---------------------------------------------------------------------
      1          6           0        1.264866   -0.231558    0.000955
      2          6           0        0.137036    0.471794   -0.010141
      3          6           0       -1.226568   -0.153020    0.009174
      4          1           0        2.281215    0.252301    0.007248
      5          1           0        1.275046   -1.316074   -0.025410
      6          1           0        0.236002    1.554112    0.006500
      7          1           0       -1.202982   -1.201327   -0.389369
      8          1           0       -2.025286    0.397903   -0.641913
      9          1           0       -1.616002   -0.210213    1.043018
 ---------------------------------------------------------------------

 SCF Done:  E(RwB97X) =  -117.861074864     A.U. after   13 cycles

 The electronic state is 1-A.
 Alpha  occ. eigenvalues --  -10.27431 -10.27243 -10.26028  -0.91115  -0.79971
 Alpha  occ. eigenvalues --   -0.66755  -0.56778  -0.52160  -0.51493  -0.45989
 Alpha  occ. eigenvalues --   -0.44295  -0.34961
 Alpha virt. eigenvalues --    0.11700   0.20074   0.22482   0.24500   0.27013
 Alpha virt. eigenvalues --    0.27879   0.28769   0.38958   0.46701   0.60096
 Alpha virt. eigenvalues --    0.64360   0.64723   0.71128   0.74282   0.76881

 Mulliken charges:
               1
     1  C   -0.361103
     2  C   -0.075263
     3  C   -0.511819
     4  H    0.151079
     5  H    0.150910
     6  H    0.154877
     7  H    0.164681
     8  H    0.150849
     9  H    0.175788
 Sum of Mulliken charges =   0.00000

 Dipole moment (field-independent basis, Debye):
    X=             -0.2721    Y=              0.0198    Z=              0.0569  Tot=              0.2787
 Quadrupole moment (field-independent basis, Debye-Ang):
   XX=            -18.9115   YY=            -18.7299   ZZ=            -21.4019
   XY=              0.0087   XZ=             -0.0113   YZ=              0.0441

 Normal termination of Gaussian 16 at Fri Sep 22 16:29:42 2023.
