 Gaussian 16, Revision A.03,
 Gaussian 16:  ES64L-G16RevA.03 25-Dec-2016

 ----------------
 # 6-31g(d) wb97x
 ----------------

 --------------------
 tmpdir/M2_ref_66.gjf
 --------------------
 Symbolic Z-matrix:
 Charge =  0 Multiplicity = 1

                         Standard orientation:
 ---------------------------------------------------------------------
 Center     Atomic      Atomic             Coordinates (Angstroms)
 Number     Number       Type             X           Y           Z
 ---------------------------------------------------------------------
      1          6           0       -1.211741    0.190521    0.007996
      2          8           0       -0.004389   -0.562562    0.027642
      3          6           0        1.216892    0.185535    0.003433
      4          1           0       -1.917026   -0.411840   -0.622936
      5          1           0       -1.633190    0.397717    0.987062
      6          1           0       -1.013166    1.131106   -0.539390
      7          1           0        1.412877    0.726664    0.950554
      8          1           0        2.015423   -0.532081   -0.255963
      9          1           0        1.139282    0.932594   -0.809033
 ---------------------------------------------------------------------

 SCF Done:  E(RwB97X) =  -154.971834207     A.U. after   13 cycles

 The electronic state is 1-A.
 Alpha  occ. eigenvalues --  -19.20593 -10.31086 -10.30842  -1.13903  -0.84237
 Alpha  occ. eigenvalues --   -0.75421  -0.57721  -0.57221  -0.57029  -0.50616
 Alpha  occ. eigenvalues --   -0.47590  -0.40595  -0.34846
 Alpha virt. eigenvalues --    0.18259   0.22725   0.24424   0.24539   0.26828
 Alpha virt. eigenvalues --    0.28489   0.28723   0.34490   0.62435   0.64032
 Alpha virt. eigenvalues --    0.64394   0.68158   0.69972   0.81888   0.94157

 Mulliken charges:
               1
     1  C   -0.212007
     2  O   -0.477804
     3  C   -0.214314
     4  H    0.164323
     5  H    0.156015
     6  H    0.130055
     7  H    0.144359
     8  H    0.174589
     9  H    0.134783
 Sum of Mulliken charges =  -0.00000

 Dipole moment (field-independent basis, Debye):
    X=              0.0486    Y=              1.4023    Z=             -0.1026  Tot=              1.4069
 Quadrupole moment (field-independent basis, Debye-Ang):
   XX=            -16.8584   YY=            -20.9245   ZZ=            -19.8185
   XY=             -0.1287   XZ=             -0.0780   YZ=              0.2856

 Normal termination of Gaussian 16 at Fri Sep 22 16:29:35 2023.
