 Gaussian 16, Revision A.03,
 Gaussian 16:  ES64L-G16RevA.03 25-Dec-2016

 ----------------
 # 6-31g(d) wb97x
 ----------------

 --------------------
 tmpdir/M2_ref_50.gjf
 --------------------
 Symbolic Z-matrix:
 Charge =  0 Multiplicity = 1

                         Standard orientation:
 ---------------------------------------------------------------------
 Center     Atomic      Atomic             Coordinates (Angstroms)
 Number     Number       Type             X           Y           Z
 ---------------------------------------------------------------------
      1          6           0       -0.725320   -0.020027    0.002954
      2          7           0        0.745102   -0.032411   -0.024529
      3          1           0        1.086625    0.921107    0.038464
      4          1           0       -1.262342   -0.863001   -0.474756
      5          1           0       -1.014931    0.930629   -0.517355
      6          1           0       -1.059992    0.071092    1.046856
      7          1           0        1.386847   -0.712788    0.060765
 ---------------------------------------------------------------------

 SCF Done:  E(RwB97X) =  -95.8013271705     A.U. after   12 cycles

 The electronic state is 1-A.
 Alpha  occ. eigenvalues --  -14.36386 -10.28733  -0.98145  -0.78101  -0.60809
 Alpha  occ. eigenvalues --   -0.52685  -0.51374  -0.47042  -0.30023
 Alpha virt. eigenvalues --    0.19409   0.23630   0.25228   0.28134   0.31118
 Alpha virt. eigenvalues --    0.34527   0.64595   0.68305   0.70137   0.86054
 Alpha virt. eigenvalues --    0.87814   0.93033   0.98504   0.99892   1.06971

 Mulliken charges:
               1
     1  C   -0.297005
     2  N   -0.798181
     3  H    0.312107
     4  H    0.159842
     5  H    0.148840
     6  H    0.143897
     7  H    0.330501
 Sum of Mulliken charges =   0.00000

 Dipole moment (field-independent basis, Debye):
    X=              0.1609    Y=              0.2016    Z=              0.2454  Tot=              0.3560
 Quadrupole moment (field-independent basis, Debye-Ang):
   XX=            -12.2873   YY=            -12.0778   ZZ=            -15.5461
   XY=              0.0041   XZ=              0.6251   YZ=             -0.0081

 Normal termination of Gaussian 16 at Fri Sep 22 16:29:39 2023.
