 Gaussian 16, Revision A.03,
 Gaussian 16:  ES64L-G16RevA.03 25-Dec-2016

 ----------------
 # 6-31g(d) wb97x
 ----------------

 --------------------
 tmpdir/M2_ref_24.gjf
 --------------------
 Symbolic Z-matrix:
 Charge =  0 Multiplicity = 1

                         Standard orientation:
 ---------------------------------------------------------------------
 Center     Atomic      Atomic             Coordinates (Angstroms)
 Number     Number       Type             X           Y           Z
 ---------------------------------------------------------------------
      1          6           0        1.258553   -0.269498   -0.009160
      2          6           0        0.001380    0.596858   -0.023602
      3          6           0       -1.268685   -0.255935    0.016714
      4          1           0        1.187685   -1.166731   -0.614902
      5          1           0        2.139008    0.295907   -0.332485
      6          1           0        1.488453   -0.581995    1.021148
      7          1           0        0.067600    1.319973    0.910952
      8          1           0       -0.028779    1.251467   -0.901944
      9          1           0       -2.288969    0.286977   -0.008320
     10          1           0       -1.278109   -0.927934   -0.881435
     11          1           0       -1.234379   -0.906214    0.903280
 ---------------------------------------------------------------------

 SCF Done:  E(RwB97X) =  -119.096263357     A.U. after   12 cycles

 The electronic state is 1-A.
 Alpha  occ. eigenvalues --  -10.27216 -10.26345 -10.25378  -0.90602  -0.79981
 Alpha  occ. eigenvalues --   -0.69732  -0.56174  -0.54202  -0.49560  -0.48025
 Alpha  occ. eigenvalues --   -0.43797  -0.43206  -0.41552
 Alpha virt. eigenvalues --    0.18434   0.22478   0.23714   0.24701   0.25874
 Alpha virt. eigenvalues --    0.27614   0.28563   0.30970   0.33290   0.36684
 Alpha virt. eigenvalues --    0.61816   0.62946   0.65408   0.67752   0.69261

 Mulliken charges:
               1
     1  C   -0.471575
     2  C   -0.266829
     3  C   -0.458468
     4  H    0.157058
     5  H    0.158337
     6  H    0.154432
     7  H    0.127253
     8  H    0.152524
     9  H    0.146600
    10  H    0.146492
    11  H    0.154176
 Sum of Mulliken charges =   0.00000

 Dipole moment (field-independent basis, Debye):
    X=              0.0984    Y=             -0.0313    Z=             -0.0427  Tot=              0.1117
 Quadrupole moment (field-independent basis, Debye-Ang):
   XX=            -21.7565   YY=            -21.7962   ZZ=            -21.3829
   XY=              0.0169   XZ=              0.1512   YZ=             -0.0388

 Normal termination of Gaussian 16 at Fri Sep 22 16:29:14 2023.
