 Gaussian 16, Revision A.03,
 Gaussian 16:  ES64L-G16RevA.03 25-Dec-2016

 ----------------
 # 6-31g(d) wb97x
 ----------------

 --------------------
 tmpdir/M2_ref_77.gjf
 --------------------
 Symbolic Z-matrix:
 Charge =  0 Multiplicity = 1

                         Standard orientation:
 ---------------------------------------------------------------------
 Center     Atomic      Atomic             Coordinates (Angstroms)
 Number     Number       Type             X           Y           Z
 ---------------------------------------------------------------------
      1          6           0       -0.006415   -0.011177   -0.002380
      2          1           0        0.034105    0.757999   -0.782272
      3          1           0        0.812304   -0.738328   -0.173320
      4          1           0       -1.016308   -0.460187    0.028360
      5          1           0        0.208388    0.507575    0.941510
 ---------------------------------------------------------------------

 SCF Done:  E(RwB97X) =  -40.4984477656     A.U. after   11 cycles

 The electronic state is 1-A.
 Alpha  occ. eigenvalues --  -10.25274  -0.81533  -0.50090  -0.49115  -0.48763
 Alpha virt. eigenvalues --    0.21382   0.27055   0.27251   0.27482   0.63826
 Alpha virt. eigenvalues --    0.64116   0.65079   1.00476   1.01000   1.01657
 Alpha virt. eigenvalues --    1.06301   1.20700   1.75894   1.76073   2.31948

 Mulliken charges:
               1
     1  C   -0.664497
     2  H    0.165949
     3  H    0.165610
     4  H    0.167990
     5  H    0.164947
 Sum of Mulliken charges =   0.00000

 Dipole moment (field-independent basis, Debye):
    X=              0.0219    Y=              0.0534    Z=              0.0094  Tot=              0.0585
 Quadrupole moment (field-independent basis, Debye-Ang):
   XX=             -8.0923   YY=             -8.3187   ZZ=             -8.4165
   XY=              0.0093   XZ=             -0.0005   YZ=             -0.0047

 Normal termination of Gaussian 16 at Fri Sep 22 16:29:48 2023.
