 Gaussian 16, Revision A.03,
 Gaussian 16:  ES64L-G16RevA.03 25-Dec-2016

 ----------------
 # 6-31g(d) wb97x
 ----------------

 --------------------
 tmpdir/M2_ref_94.gjf
 --------------------
 Symbolic Z-matrix:
 Charge =  0 Multiplicity = 1

                         Standard orientation:
 ---------------------------------------------------------------------
 Center     Atomic      Atomic             Coordinates (Angstroms)
 Number     Number       Type             X           Y           Z
 ---------------------------------------------------------------------
      1          6           0        0.228035    0.459621   -0.003406
      2          6           0       -1.152033   -0.150146    0.000215
      3          1           0       -1.234643   -0.819948   -0.859617
      4          1           0        0.269104    1.513029    0.008407
      5          8           0        1.215704   -0.297360    0.000692
      6          1           0       -1.260001   -0.759627    0.901452
      7          1           0       -1.956105    0.588575   -0.036636
 ---------------------------------------------------------------------

 SCF Done:  E(RwB97X) =  -153.779152764     A.U. after   14 cycles

 The electronic state is 1-A.
 Alpha  occ. eigenvalues --  -19.21625 -10.36543 -10.27621  -1.15334  -0.87960
 Alpha  occ. eigenvalues --   -0.71688  -0.58779  -0.55181  -0.53507  -0.50224
 Alpha  occ. eigenvalues --   -0.45395  -0.35770
 Alpha virt. eigenvalues --    0.06188   0.21007   0.22476   0.27149   0.27343
 Alpha virt. eigenvalues --    0.33661   0.37377   0.63210   0.64095   0.68359
 Alpha virt. eigenvalues --    0.70665   0.75431   0.82523   0.88478   0.96334

 Mulliken charges:
               1
     1  C    0.222661
     2  C   -0.553616
     3  H    0.204674
     4  H    0.153172
     5  O   -0.396200
     6  H    0.204932
     7  H    0.164377
 Sum of Mulliken charges =  -0.00000

 Dipole moment (field-independent basis, Debye):
    X=             -2.4107    Y=              1.2433    Z=              0.0086  Tot=              2.7125
 Quadrupole moment (field-independent basis, Debye-Ang):
   XX=            -20.8911   YY=            -17.2584   ZZ=            -17.5230
   XY=              1.1354   XZ=             -0.0181   YZ=             -0.0017

 Normal termination of Gaussian 16 at Fri Sep 22 16:29:56 2023.
