 Gaussian 16, Revision A.03,
 Gaussian 16:  ES64L-G16RevA.03 25-Dec-2016

 ----------------
 # 6-31g(d) wb97x
 ----------------

 --------------------
 tmpdir/M2_ref_10.gjf
 --------------------
 Symbolic Z-matrix:
 Charge =  0 Multiplicity = 1

                         Standard orientation:
 ---------------------------------------------------------------------
 Center     Atomic      Atomic             Coordinates (Angstroms)
 Number     Number       Type             X           Y           Z
 ---------------------------------------------------------------------
      1          6           0       -1.214819   -0.182335   -0.002701
      2          6           0        0.135814    0.467124   -0.011651
      3          6           0        1.264807   -0.234199    0.006995
      4          1           0       -1.193955   -1.274291   -0.172422
      5          1           0       -1.846495    0.325984   -0.738922
      6          1           0       -1.682856    0.038639    0.968975
      7          1           0        0.120947    1.592668   -0.004209
      8          1           0        1.295357   -1.319306   -0.019999
      9          1           0        2.192183    0.332760    0.010719
 ---------------------------------------------------------------------

 SCF Done:  E(RwB97X) =  -117.863603487     A.U. after   13 cycles

 The electronic state is 1-A.
 Alpha  occ. eigenvalues --  -10.27416 -10.26209 -10.25460  -0.91232  -0.80499
 Alpha  occ. eigenvalues --   -0.66220  -0.57209  -0.52767  -0.51441  -0.46853
 Alpha  occ. eigenvalues --   -0.44050  -0.34717
 Alpha virt. eigenvalues --    0.12305   0.20594   0.22457   0.24764   0.27138
 Alpha virt. eigenvalues --    0.28034   0.29729   0.38130   0.46871   0.60448
 Alpha virt. eigenvalues --    0.63930   0.64624   0.71753   0.73179   0.76922

 Mulliken charges:
               1
     1  C   -0.508737
     2  C   -0.082080
     3  C   -0.364722
     4  H    0.165734
     5  H    0.163606
     6  H    0.168156
     7  H    0.150397
     8  H    0.156682
     9  H    0.150964
 Sum of Mulliken charges =  -0.00000

 Dipole moment (field-independent basis, Debye):
    X=             -0.3548    Y=              0.1161    Z=              0.0219  Tot=              0.3740
 Quadrupole moment (field-independent basis, Debye-Ang):
   XX=            -19.2982   YY=            -18.2506   ZZ=            -21.4784
   XY=             -0.2627   XZ=             -0.0448   YZ=              0.0556

 Normal termination of Gaussian 16 at Fri Sep 22 16:29:22 2023.
