 Gaussian 16, Revision A.03,
 Gaussian 16:  ES64L-G16RevA.03 25-Dec-2016

 ----------------
 # 6-31g(d) wb97x
 ----------------

 --------------------
 tmpdir/M2_ref_49.gjf
 --------------------
 Symbolic Z-matrix:
 Charge =  0 Multiplicity = 1

                         Standard orientation:
 ---------------------------------------------------------------------
 Center     Atomic      Atomic             Coordinates (Angstroms)
 Number     Number       Type             X           Y           Z
 ---------------------------------------------------------------------
      1          6           0       -1.553393   -0.401909    0.009393
      2          7           0       -0.442966    0.560900   -0.045393
      3          6           0        0.891184    0.434108    0.009799
      4          1           0       -1.423469   -1.376470   -0.501053
      5          1           0       -2.422078    0.133795   -0.456170
      6          1           0       -1.815063   -0.582282    1.062500
      7          1           0       -0.812169    1.500235    0.060165
      8          8           0        1.510782   -0.645010   -0.001517
      9          1           0        1.460543    1.365310    0.049287
 ---------------------------------------------------------------------

 SCF Done:  E(RwB97X) =  -209.132289875     A.U. after   16 cycles

 The electronic state is 1-A.
 Alpha  occ. eigenvalues --  -19.16952 -14.44854 -10.36605 -10.32096  -1.13815
 Alpha  occ. eigenvalues --   -1.04955  -0.85128  -0.70878  -0.66082  -0.56673
 Alpha  occ. eigenvalues --   -0.56478  -0.51807  -0.49089  -0.48031  -0.35026
 Alpha  occ. eigenvalues --   -0.34369
 Alpha virt. eigenvalues --    0.12672   0.16070   0.21455   0.22858   0.25083
 Alpha virt. eigenvalues --    0.26359   0.30522   0.37403   0.47313   0.58910
 Alpha virt. eigenvalues --    0.62005   0.64593   0.69593   0.74239   0.77362

 Mulliken charges:
               1
     1  C   -0.329395
     2  N   -0.551673
     3  C    0.328374
     4  H    0.210692
     5  H    0.165097
     6  H    0.182487
     7  H    0.338765
     8  O   -0.476041
     9  H    0.131694
 Sum of Mulliken charges =  -0.00000

 Dipole moment (field-independent basis, Debye):
    X=             -3.4819    Y=              2.6756    Z=              0.2257  Tot=              4.3970
 Quadrupole moment (field-independent basis, Debye-Ang):
   XX=            -25.2362   YY=            -21.8605   ZZ=            -24.5902
   XY=              3.0307   XZ=             -0.0354   YZ=              0.4523

 Normal termination of Gaussian 16 at Fri Sep 22 16:29:34 2023.
