 Gaussian 16, Revision A.03,
 Gaussian 16:  ES64L-G16RevA.03 25-Dec-2016

 ----------------
 # 6-31g(d) wb97x
 ----------------

 --------------------
 tmpdir/M2_ref_80.gjf
 --------------------
 Symbolic Z-matrix:
 Charge =  0 Multiplicity = 1

                         Standard orientation:
 ---------------------------------------------------------------------
 Center     Atomic      Atomic             Coordinates (Angstroms)
 Number     Number       Type             X           Y           Z
 ---------------------------------------------------------------------
      1          6           0       -0.760134    0.003332   -0.008195
      2          6           0        0.770747   -0.015485   -0.003174
      3          1           0        1.123888    0.149757    1.021274
      4          1           0       -1.233239   -0.870741    0.620647
      5          1           0       -1.188681   -0.077077   -1.022981
      6          1           0       -1.093165    0.959305    0.438377
      7          1           0        1.216897   -0.942627   -0.407893
      8          1           0        1.110623    0.854302   -0.581210
 ---------------------------------------------------------------------

 SCF Done:  E(RwB97X) =  -79.7965158233     A.U. after   12 cycles

 The electronic state is 1-A.
 Alpha  occ. eigenvalues --  -10.26564 -10.25792  -0.87664  -0.72839  -0.54395
 Alpha  occ. eigenvalues --   -0.53476  -0.46465  -0.44376  -0.43279
 Alpha virt. eigenvalues --    0.19488   0.24467   0.25523   0.25901   0.28074
 Alpha virt. eigenvalues --    0.28829   0.33615   0.61765   0.65013   0.66064
 Alpha virt. eigenvalues --    0.74449   0.75234   0.78374   0.97067   0.99454

 Mulliken charges:
               1
     1  C   -0.458538
     2  C   -0.462613
     3  H    0.157753
     4  H    0.136057
     5  H    0.157562
     6  H    0.155455
     7  H    0.158443
     8  H    0.155882
 Sum of Mulliken charges =   0.00000

 Dipole moment (field-independent basis, Debye):
    X=              0.0424    Y=              0.0894    Z=             -0.0148  Tot=              0.1001
 Quadrupole moment (field-independent basis, Debye-Ang):
   XX=            -15.4344   YY=            -14.6721   ZZ=            -14.8212
   XY=             -0.0296   XZ=              0.0625   YZ=              0.0891

 Normal termination of Gaussian 16 at Fri Sep 22 16:29:53 2023.
