 Gaussian 16, Revision A.03,
 Gaussian 16:  ES64L-G16RevA.03 25-Dec-2016

 ----------------
 # 6-31g(d) wb97x
 ----------------

 --------------------
 tmpdir/M2_ref_44.gjf
 --------------------
 Symbolic Z-matrix:
 Charge =  0 Multiplicity = 1

                         Standard orientation:
 ---------------------------------------------------------------------
 Center     Atomic      Atomic             Coordinates (Angstroms)
 Number     Number       Type             X           Y           Z
 ---------------------------------------------------------------------
      1          7           0       -1.190160   -0.261641   -0.046598
      2          6           0       -0.035066    0.643945    0.046784
      3          6           0        1.204318   -0.282247   -0.039582
      4          1           0       -2.091015   -0.137135   -0.281082
      5          1           0       -0.956136   -1.145194    0.394276
      6          1           0        0.064757    1.441209   -0.715851
      7          1           0       -0.023543    1.102490    1.046605
      8          1           0        2.128231    0.287845   -0.017217
      9          1           0        1.075950   -1.038681    0.841729
     10          1           0        1.117361   -0.849233   -0.985483
 ---------------------------------------------------------------------

 SCF Done:  E(RwB97X) =  -135.102758334     A.U. after   13 cycles

 The electronic state is 1-A.
 Alpha  occ. eigenvalues --  -14.36368 -10.29111 -10.26244  -0.99077  -0.84723
 Alpha  occ. eigenvalues --   -0.71970  -0.61809  -0.55465  -0.52314  -0.48268
 Alpha  occ. eigenvalues --   -0.45254  -0.43883  -0.30237
 Alpha virt. eigenvalues --    0.18628   0.22573   0.23701   0.26199   0.27673
 Alpha virt. eigenvalues --    0.28935   0.29281   0.34822   0.35083   0.63175
 Alpha virt. eigenvalues --    0.66803   0.68221   0.70605   0.76580   0.78891

 Mulliken charges:
               1
     1  N   -0.796458
     2  C   -0.107449
     3  C   -0.474099
     4  H    0.328316
     5  H    0.306116
     6  H    0.149763
     7  H    0.136263
     8  H    0.161265
     9  H    0.128331
    10  H    0.167952
 Sum of Mulliken charges =  -0.00000

 Dipole moment (field-independent basis, Debye):
    X=             -0.1498    Y=             -0.0655    Z=              0.1729  Tot=              0.2379
 Quadrupole moment (field-independent basis, Debye-Ang):
   XX=            -18.9684   YY=            -19.6690   ZZ=            -21.4190
   XY=              0.8563   XZ=              0.1130   YZ=             -1.2181

 Normal termination of Gaussian 16 at Fri Sep 22 16:29:43 2023.
