 Gaussian 16, Revision A.03,
 Gaussian 16:  ES64L-G16RevA.03 25-Dec-2016

 ----------------
 # 6-31g(d) wb97x
 ----------------

 --------------------
 tmpdir/M2_ref_73.gjf
 --------------------
 Symbolic Z-matrix:
 Charge =  0 Multiplicity = 1

                         Standard orientation:
 ---------------------------------------------------------------------
 Center     Atomic      Atomic             Coordinates (Angstroms)
 Number     Number       Type             X           Y           Z
 ---------------------------------------------------------------------
      1          6           0        1.275303   -0.258522    0.014430
      2          6           0       -0.003930    0.582474   -0.001888
      3          6           0       -1.273068   -0.264467   -0.001546
      4          1           0        1.385880   -0.903496    0.905621
      5          1           0        2.139999    0.409885   -0.069473
      6          1           0        1.277956   -0.867984   -0.899200
      7          1           0       -0.089996    1.307342    0.920302
      8          1           0        0.004096    1.201838   -0.918700
      9          1           0       -2.200456    0.324587   -0.119486
     10          1           0       -1.317525   -0.835881    0.932382
     11          1           0       -1.189786   -0.993202   -0.817420
 ---------------------------------------------------------------------

 SCF Done:  E(RwB97X) =  -119.100081738     A.U. after   12 cycles

 The electronic state is 1-A.
 Alpha  occ. eigenvalues --  -10.27015 -10.25685 -10.25316  -0.90701  -0.80295
 Alpha  occ. eigenvalues --   -0.69308  -0.56517  -0.54353  -0.50032  -0.48300
 Alpha  occ. eigenvalues --   -0.43660  -0.42894  -0.41785
 Alpha virt. eigenvalues --    0.18452   0.23185   0.24290   0.24888   0.26219
 Alpha virt. eigenvalues --    0.28409   0.29398   0.29747   0.32089   0.36366
 Alpha virt. eigenvalues --    0.61801   0.62154   0.65777   0.67049   0.68683

 Mulliken charges:
               1
     1  C   -0.462927
     2  C   -0.271630
     3  C   -0.457462
     4  H    0.155280
     5  H    0.158644
     6  H    0.151237
     7  H    0.126374
     8  H    0.145935
     9  H    0.156291
    10  H    0.151627
    11  H    0.146631
 Sum of Mulliken charges =  -0.00000

 Dipole moment (field-independent basis, Debye):
    X=              0.0461    Y=             -0.0021    Z=             -0.0775  Tot=              0.0902
 Quadrupole moment (field-independent basis, Debye-Ang):
   XX=            -21.9317   YY=            -21.8642   ZZ=            -21.1950
   XY=             -0.1792   XZ=             -0.0914   YZ=             -0.1650

 Normal termination of Gaussian 16 at Fri Sep 22 16:29:44 2023.
