 Gaussian 16, Revision A.03,
 Gaussian 16:  ES64L-G16RevA.03 25-Dec-2016

 ----------------
 # 6-31g(d) wb97x
 ----------------

 -------------------
 tmpdir/M2_ref_4.gjf
 -------------------
 Symbolic Z-matrix:
 Charge =  0 Multiplicity = 1

                         Standard orientation:
 ---------------------------------------------------------------------
 Center     Atomic      Atomic             Coordinates (Angstroms)
 Number     Number       Type             X           Y           Z
 ---------------------------------------------------------------------
      1          8           0       -1.692044   -0.227163    0.000257
      2          6           0       -0.662264    0.484042   -0.000142
      3          6           0        0.643802   -0.359930   -0.005385
      4          1           0       -0.525618    1.493722    0.005468
      5          1           0        0.493937   -1.434235    0.014201
      6          8           0        1.709851    0.126643    0.001431
 ---------------------------------------------------------------------

 SCF Done:  E(RwB97X) =  -227.743735736     A.U. after   16 cycles

 The electronic state is 1-A.
 Alpha  occ. eigenvalues --  -19.26062 -19.25145 -10.38900 -10.37938  -1.22564
 Alpha  occ. eigenvalues --   -1.18549  -0.83050  -0.73743  -0.61848  -0.59907
 Alpha  occ. eigenvalues --   -0.56696  -0.55807  -0.49417  -0.43534  -0.36221
 Alpha virt. eigenvalues --   -0.01273   0.12114   0.21810   0.24780   0.28719
 Alpha virt. eigenvalues --    0.37120   0.39834   0.59883   0.66663   0.68221
 Alpha virt. eigenvalues --    0.69212   0.72722   0.83212   0.89464   0.90972

 Mulliken charges:
               1
     1  O   -0.370547
     2  C    0.176760
     3  C    0.162970
     4  H    0.196129
     5  H    0.161071
     6  O   -0.326383
 Sum of Mulliken charges =  -0.00000

 Dipole moment (field-independent basis, Debye):
    X=             -0.0180    Y=              0.5757    Z=             -0.0018  Tot=              0.5759
 Quadrupole moment (field-independent basis, Debye-Ang):
   XX=            -30.5724   YY=            -19.7201   ZZ=            -20.8200
   XY=             -2.3155   XZ=             -0.0050   YZ=             -0.0043

 Normal termination of Gaussian 16 at Fri Sep 22 16:29:16 2023.
