 Gaussian 16, Revision A.03,
 Gaussian 16:  ES64L-G16RevA.03 25-Dec-2016

 ----------------
 # 6-31g(d) wb97x
 ----------------

 --------------------
 tmpdir/M2_ref_79.gjf
 --------------------
 Symbolic Z-matrix:
 Charge =  0 Multiplicity = 1

                         Standard orientation:
 ---------------------------------------------------------------------
 Center     Atomic      Atomic             Coordinates (Angstroms)
 Number     Number       Type             X           Y           Z
 ---------------------------------------------------------------------
      1          6           0        1.282850   -0.254726    0.010214
      2          6           0       -0.005477    0.572220   -0.008509
      3          6           0       -1.287445   -0.257990    0.004165
      4          1           0        1.374771   -0.984424   -0.907591
      5          1           0        1.380108   -0.880393    0.915196
      6          1           0        2.139891    0.444084   -0.026757
      7          1           0        0.005143    1.225041   -0.888974
      8          1           0        0.022874    1.241977    0.861429
      9          1           0       -2.160139    0.382192   -0.153738
     10          1           0       -1.424633   -0.778118    0.958608
     11          1           0       -1.277587   -1.007382   -0.793394
 ---------------------------------------------------------------------

 SCF Done:  E(RwB97X) =  -119.101472169     A.U. after   12 cycles

 The electronic state is 1-A.
 Alpha  occ. eigenvalues --  -10.26322 -10.26246 -10.25247  -0.90575  -0.80110
 Alpha  occ. eigenvalues --   -0.69871  -0.56261  -0.54041  -0.50332  -0.47777
 Alpha  occ. eigenvalues --   -0.43437  -0.43169  -0.42115
 Alpha virt. eigenvalues --    0.18706   0.23404   0.24219   0.24462   0.27031
 Alpha virt. eigenvalues --    0.28289   0.28720   0.29981   0.32398   0.36603
 Alpha virt. eigenvalues --    0.61482   0.62682   0.64995   0.67406   0.70152

 Mulliken charges:
               1
     1  C   -0.458321
     2  C   -0.273615
     3  C   -0.466810
     4  H    0.132252
     5  H    0.153891
     6  H    0.154260
     7  H    0.148932
     8  H    0.147750
     9  H    0.155501
    10  H    0.153306
    11  H    0.152854
 Sum of Mulliken charges =   0.00000

 Dipole moment (field-independent basis, Debye):
    X=             -0.0282    Y=              0.1198    Z=              0.0478  Tot=              0.1320
 Quadrupole moment (field-independent basis, Debye-Ang):
   XX=            -22.0183   YY=            -21.5304   ZZ=            -21.2742
   XY=              0.0719   XZ=              0.0840   YZ=             -0.0387

 Normal termination of Gaussian 16 at Fri Sep 22 16:29:48 2023.
