 Gaussian 16, Revision A.03,
 Gaussian 16:  ES64L-G16RevA.03 25-Dec-2016

 ----------------
 # 6-31g(d) wb97x
 ----------------

 -------------------
 tmpdir/M2_ref_8.gjf
 -------------------
 Symbolic Z-matrix:
 Charge =  0 Multiplicity = 1

                         Standard orientation:
 ---------------------------------------------------------------------
 Center     Atomic      Atomic             Coordinates (Angstroms)
 Number     Number       Type             X           Y           Z
 ---------------------------------------------------------------------
      1          6           0        0.934976   -0.715848    0.003635
      2          6           0       -0.530343   -0.195524   -0.011536
      3          6           0       -0.670776    1.296544   -0.001579
      4          8           0        1.773255    0.213392   -0.004027
      5          1           0        1.034542   -1.729724    0.020878
      6          8           0       -1.455676   -0.914459    0.000742
      7          1           0       -1.701480    1.656086   -0.174748
      8          1           0        0.027879    1.713319   -0.734793
      9          1           0       -0.304714    1.657817    0.971828
 ---------------------------------------------------------------------

 SCF Done:  E(RwB97X) =  -267.059885900     A.U. after   16 cycles

 The electronic state is 1-A.
 Alpha  occ. eigenvalues --  -19.25672 -19.23261 -10.38552 -10.37426 -10.27493
 Alpha  occ. eigenvalues --   -1.21490  -1.18299  -0.88507  -0.81148  -0.68129
 Alpha  occ. eigenvalues --   -0.60752  -0.58878  -0.57875  -0.54911  -0.50592
 Alpha  occ. eigenvalues --   -0.50087  -0.47799  -0.43148  -0.34806
 Alpha virt. eigenvalues --   -0.00544   0.13326   0.21124   0.22936   0.25174
 Alpha virt. eigenvalues --    0.26836   0.29500   0.34894   0.39812   0.42719
 Alpha virt. eigenvalues --    0.60922   0.64757   0.65618   0.68067   0.71172

 Mulliken charges:
               1
     1  C    0.182958
     2  C    0.350216
     3  C   -0.555623
     4  O   -0.375039
     5  H    0.192717
     6  O   -0.376516
     7  H    0.192192
     8  H    0.195875
     9  H    0.193219
 Sum of Mulliken charges =  -0.00000

 Dipole moment (field-independent basis, Debye):
    X=              0.2706    Y=              0.0111    Z=              0.0472  Tot=              0.2749
 Quadrupole moment (field-independent basis, Debye-Ang):
   XX=            -35.4129   YY=            -26.9842   ZZ=            -27.0524
   XY=             -5.0162   XZ=              0.0207   YZ=              0.0536

 Normal termination of Gaussian 16 at Fri Sep 22 16:29:30 2023.
