 Gaussian 16, Revision A.03,
 Gaussian 16:  ES64L-G16RevA.03 25-Dec-2016

 ----------------
 # 6-31g(d) wb97x
 ----------------

 --------------------
 tmpdir/M2_ref_40.gjf
 --------------------
 Symbolic Z-matrix:
 Charge =  0 Multiplicity = 1

                         Standard orientation:
 ---------------------------------------------------------------------
 Center     Atomic      Atomic             Coordinates (Angstroms)
 Number     Number       Type             X           Y           Z
 ---------------------------------------------------------------------
      1          6           0        0.008157    0.003568   -0.016864
      2          1           0        0.159952    0.951293    0.520551
      3          1           0        0.909171   -0.214409   -0.623384
      4          1           0       -1.014000    0.039909   -0.555596
      5          1           0       -0.104067   -0.798202    0.759610
 ---------------------------------------------------------------------

 SCF Done:  E(RwB97X) =  -40.4945942870     A.U. after   11 cycles

 The electronic state is 1-A.
 Alpha  occ. eigenvalues --  -10.26114  -0.81014  -0.50252  -0.48987  -0.47675
 Alpha virt. eigenvalues --    0.20723   0.25607   0.27043   0.27264   0.63964
 Alpha virt. eigenvalues --    0.64427   0.66605   0.97213   1.00198   1.01062
 Alpha virt. eigenvalues --    1.04296   1.19998   1.76066   1.76944   2.26656

 Mulliken charges:
               1
     1  C   -0.656560
     2  H    0.167978
     3  H    0.170921
     4  H    0.157426
     5  H    0.160234
 Sum of Mulliken charges =   0.00000

 Dipole moment (field-independent basis, Debye):
    X=              0.0158    Y=              0.0005    Z=              0.0793  Tot=              0.0809
 Quadrupole moment (field-independent basis, Debye-Ang):
   XX=             -8.0318   YY=             -8.4369   ZZ=             -8.5152
   XY=             -0.0029   XZ=             -0.0574   YZ=              0.0438

 Normal termination of Gaussian 16 at Fri Sep 22 16:29:27 2023.
