 Gaussian 16, Revision A.03,
 Gaussian 16:  ES64L-G16RevA.03 25-Dec-2016

 ----------------
 # 6-31g(d) wb97x
 ----------------

 --------------------
 tmpdir/M2_ref_56.gjf
 --------------------
 Symbolic Z-matrix:
 Charge =  0 Multiplicity = 1

                         Standard orientation:
 ---------------------------------------------------------------------
 Center     Atomic      Atomic             Coordinates (Angstroms)
 Number     Number       Type             X           Y           Z
 ---------------------------------------------------------------------
      1          6           0        1.219220   -0.253070    0.022787
      2          6           0       -0.080298    0.590513   -0.008592
      3          8           0       -1.133635   -0.363164   -0.087330
      4          1           0        2.088022    0.433918    0.001869
      5          1           0        1.098800   -0.949427    0.937634
      6          1           0        1.225978   -0.865529   -0.890935
      7          1           0       -0.063441    1.315615   -0.816716
      8          1           0       -0.158291    1.098401    0.971067
      9          1           0       -1.955519   -0.152329    0.410552
 ---------------------------------------------------------------------

 SCF Done:  E(RwB97X) =  -154.979078639     A.U. after   13 cycles

 The electronic state is 1-A.
 Alpha  occ. eigenvalues --  -19.20204 -10.31175 -10.26122  -1.12667  -0.86458
 Alpha  occ. eigenvalues --   -0.72448  -0.62101  -0.57376  -0.48756  -0.48653
 Alpha  occ. eigenvalues --   -0.46064  -0.40983  -0.36504
 Alpha virt. eigenvalues --    0.17222   0.21078   0.25364   0.26196   0.27298
 Alpha virt. eigenvalues --    0.29137   0.31271   0.33046   0.63343   0.66867
 Alpha virt. eigenvalues --    0.67198   0.71636   0.76616   0.78708   0.91709

 Mulliken charges:
               1
     1  C   -0.461179
     2  C   -0.045473
     3  O   -0.642603
     4  H    0.147950
     5  H    0.154457
     6  H    0.171355
     7  H    0.144588
     8  H    0.128013
     9  H    0.402892
 Sum of Mulliken charges =  -0.00000

 Dipole moment (field-independent basis, Debye):
    X=             -0.3802    Y=              1.2503    Z=              0.8934  Tot=              1.5831
 Quadrupole moment (field-independent basis, Debye-Ang):
   XX=            -17.2179   YY=            -20.3574   ZZ=            -19.4533
   XY=             -0.6283   XZ=             -2.2900   YZ=             -0.3737

 Normal termination of Gaussian 16 at Fri Sep 22 16:29:46 2023.
