 Gaussian 16, Revision A.03,
 Gaussian 16:  ES64L-G16RevA.03 25-Dec-2016

 ----------------
 # 6-31g(d) wb97x
 ----------------

 -------------------
 tmpdir/M2_ref_6.gjf
 -------------------
 Symbolic Z-matrix:
 Charge =  0 Multiplicity = 1

                         Standard orientation:
 ---------------------------------------------------------------------
 Center     Atomic      Atomic             Coordinates (Angstroms)
 Number     Number       Type             X           Y           Z
 ---------------------------------------------------------------------
      1          6           0        0.249393    0.401230   -0.009396
      2          6           0       -1.143942   -0.150745   -0.004232
      3          1           0        0.314466    1.524924    0.004799
      4          8           0        1.198319   -0.286257    0.003253
      5          1           0       -1.200594   -1.240391   -0.180502
      6          1           0       -1.737684    0.405536   -0.737339
      7          1           0       -1.595446    0.097075    0.968790
 ---------------------------------------------------------------------

 SCF Done:  E(RwB97X) =  -153.782277694     A.U. after   14 cycles

 The electronic state is 1-A.
 Alpha  occ. eigenvalues --  -19.21555 -10.36192 -10.27700  -1.19327  -0.88037
 Alpha  occ. eigenvalues --   -0.69553  -0.59365  -0.55725  -0.54827  -0.50475
 Alpha  occ. eigenvalues --   -0.47254  -0.35412
 Alpha virt. eigenvalues --    0.08879   0.20518   0.22279   0.25254   0.25821
 Alpha virt. eigenvalues --    0.35403   0.38532   0.62986   0.65492   0.69263
 Alpha virt. eigenvalues --    0.70456   0.79123   0.85364   0.87244   0.95067

 Mulliken charges:
               1
     1  C    0.247824
     2  C   -0.560855
     3  H    0.109073
     4  O   -0.354016
     5  H    0.196493
     6  H    0.175505
     7  H    0.185976
 Sum of Mulliken charges =   0.00000

 Dipole moment (field-independent basis, Debye):
    X=             -2.2720    Y=              1.1019    Z=              0.0427  Tot=              2.5254
 Quadrupole moment (field-independent basis, Debye-Ang):
   XX=            -20.5662   YY=            -17.6229   ZZ=            -17.6339
   XY=              0.9091   XZ=             -0.1042   YZ=              0.0333

 Normal termination of Gaussian 16 at Fri Sep 22 16:29:11 2023.
