 Gaussian 16, Revision A.03,
 Gaussian 16:  ES64L-G16RevA.03 25-Dec-2016

 ----------------
 # 6-31g(d) wb97x
 ----------------

 --------------------
 tmpdir/M2_ref_60.gjf
 --------------------
 Symbolic Z-matrix:
 Charge =  0 Multiplicity = 1

                         Standard orientation:
 ---------------------------------------------------------------------
 Center     Atomic      Atomic             Coordinates (Angstroms)
 Number     Number       Type             X           Y           Z
 ---------------------------------------------------------------------
      1          8           0        0.737739   -0.126823    0.011773
      2          6           0       -0.677196    0.025413    0.012220
      3          1           0       -0.916275    0.953633   -0.540060
      4          1           0        1.268797    0.700685   -0.020441
      5          1           0       -1.059359   -0.829597   -0.605236
      6          1           0       -1.131898    0.037388    0.998234
 ---------------------------------------------------------------------

 SCF Done:  E(RwB97X) =  -115.674351570     A.U. after   13 cycles

 The electronic state is 1-A.
 Alpha  occ. eigenvalues --  -19.20124 -10.30984  -1.12344  -0.80153  -0.60812
 Alpha  occ. eigenvalues --   -0.54807  -0.52480  -0.41522  -0.36568
 Alpha virt. eigenvalues --    0.17176   0.22685   0.26102   0.28338   0.31167
 Alpha virt. eigenvalues --    0.64587   0.66805   0.68953   0.90813   0.96844
 Alpha virt. eigenvalues --    0.97788   1.01553   1.06131   1.09751   1.12555

 Mulliken charges:
               1
     1  O   -0.644365
     2  C   -0.212493
     3  H    0.136058
     4  H    0.403263
     5  H    0.163474
     6  H    0.154064
 Sum of Mulliken charges =  -0.00000

 Dipole moment (field-independent basis, Debye):
    X=             -0.6118    Y=              1.6115    Z=             -0.1065  Tot=              1.7270
 Quadrupole moment (field-independent basis, Debye-Ang):
   XX=            -11.9528   YY=            -12.2979   ZZ=            -13.4131
   XY=              2.3347   XZ=             -0.1281   YZ=              0.0270

 Normal termination of Gaussian 16 at Fri Sep 22 16:29:30 2023.
