 Gaussian 16, Revision A.03,
 Gaussian 16:  ES64L-G16RevA.03 25-Dec-2016

 ----------------
 # 6-31g(d) wb97x
 ----------------

 ---------------------
 tmpdir/M2_ref_111.gjf
 ---------------------
 Symbolic Z-matrix:
 Charge =  0 Multiplicity = 1

                         Standard orientation:
 ---------------------------------------------------------------------
 Center     Atomic      Atomic             Coordinates (Angstroms)
 Number     Number       Type             X           Y           Z
 ---------------------------------------------------------------------
      1          6           0       -0.763322    0.001280   -0.003238
      2          6           0        0.763107    0.004375   -0.003855
      3          1           0        1.161938   -0.681572    0.749959
      4          1           0       -1.209329    0.755238   -0.675945
      5          1           0       -1.128419   -0.990892   -0.291355
      6          1           0       -1.134609    0.195484    1.010701
      7          1           0        1.155662    1.005538    0.224409
      8          1           0        1.156044   -0.317724   -0.975210
 ---------------------------------------------------------------------

 SCF Done:  E(RwB97X) =  -79.8009782649     A.U. after   12 cycles

 The electronic state is 1-A.
 Alpha  occ. eigenvalues --  -10.25578 -10.25503  -0.87902  -0.73346  -0.54238
 Alpha  occ. eigenvalues --   -0.54055  -0.46681  -0.44122  -0.43990
 Alpha virt. eigenvalues --    0.19956   0.25409   0.25913   0.26138   0.28852
 Alpha virt. eigenvalues --    0.29140   0.33986   0.61722   0.64787   0.65256
 Alpha virt. eigenvalues --    0.73910   0.75190   0.78920   0.99947   1.00047

 Mulliken charges:
               1
     1  C   -0.467615
     2  C   -0.468037
     3  H    0.156862
     4  H    0.156275
     5  H    0.155803
     6  H    0.155228
     7  H    0.155340
     8  H    0.156145
 Sum of Mulliken charges =  -0.00000

 Dipole moment (field-independent basis, Debye):
    X=              0.0037    Y=             -0.0229    Z=              0.0234  Tot=              0.0330
 Quadrupole moment (field-independent basis, Debye-Ang):
   XX=            -15.2926   YY=            -14.6599   ZZ=            -14.7134
   XY=             -0.0692   XZ=              0.0492   YZ=             -0.0031

 Normal termination of Gaussian 16 at Fri Sep 22 16:29:55 2023.
