 Gaussian 16, Revision A.03,
 Gaussian 16:  ES64L-G16RevA.03 25-Dec-2016

 ----------------
 # 6-31g(d) wb97x
 ----------------

 --------------------
 tmpdir/M2_ref_85.gjf
 --------------------
 Symbolic Z-matrix:
 Charge =  0 Multiplicity = 1

                         Standard orientation:
 ---------------------------------------------------------------------
 Center     Atomic      Atomic             Coordinates (Angstroms)
 Number     Number       Type             X           Y           Z
 ---------------------------------------------------------------------
      1          6           0        0.551373   -0.008775   -0.002572
      2          8           0       -0.693006   -0.002639    0.000605
      3          1           0        1.155307   -0.872888    0.005578
      4          1           0        1.080501    0.946648    0.005014
 ---------------------------------------------------------------------

 SCF Done:  E(RwB97X) =  -114.461840582     A.U. after   14 cycles

 The electronic state is 1-A.
 Alpha  occ. eigenvalues --  -19.23488 -10.36877  -1.16308  -0.77204  -0.60984
 Alpha  occ. eigenvalues --   -0.55096  -0.49117  -0.37063
 Alpha virt. eigenvalues --    0.04957   0.21109   0.28613   0.31360   0.62108
 Alpha virt. eigenvalues --    0.70939   0.73165   0.77613   0.95487   0.96602
 Alpha virt. eigenvalues --    1.03026   1.07671   1.17340   1.47811   1.60067

 Mulliken charges:
               1
     1  C    0.055127
     2  O   -0.351989
     3  H    0.155894
     4  H    0.140969
 Sum of Mulliken charges =  -0.00000

 Dipole moment (field-independent basis, Debye):
    X=              2.5021    Y=             -0.0537    Z=              0.0010  Tot=              2.5027
 Quadrupole moment (field-independent basis, Debye-Ang):
   XX=            -11.6876   YY=            -11.3888   ZZ=            -11.4386
   XY=             -0.1301   XZ=              0.0049   YZ=              0.0006

 Normal termination of Gaussian 16 at Fri Sep 22 16:29:45 2023.
