 Gaussian 16, Revision A.03,
 Gaussian 16:  ES64L-G16RevA.03 25-Dec-2016

 ----------------
 # 6-31g(d) wb97x
 ----------------

 -------------------
 tmpdir/M2_ref_9.gjf
 -------------------
 Symbolic Z-matrix:
 Charge =  0 Multiplicity = 1

                         Standard orientation:
 ---------------------------------------------------------------------
 Center     Atomic      Atomic             Coordinates (Angstroms)
 Number     Number       Type             X           Y           Z
 ---------------------------------------------------------------------
      1          6           0        0.717384    0.473348    0.000251
      2          6           0       -0.560353   -0.412937    0.003771
      3          6           0       -1.786966    0.099088   -0.005036
      4          8           0        1.769898   -0.203758    0.000673
      5          1           0        0.547757    1.478015   -0.005112
      6          1           0       -0.375372   -1.481751   -0.016075
      7          1           0       -2.688029   -0.506470    0.017425
      8          1           0       -1.863926    1.183278    0.004465
 ---------------------------------------------------------------------

 SCF Done:  E(RwB97X) =  -191.835796206     A.U. after   15 cycles

 The electronic state is 1-A.
 Alpha  occ. eigenvalues --  -19.22296 -10.37146 -10.29289 -10.28828  -1.15511
 Alpha  occ. eigenvalues --   -0.92058  -0.77204  -0.70345  -0.58989  -0.57896
 Alpha  occ. eigenvalues --   -0.52941  -0.49809  -0.48564  -0.38264  -0.36102
 Alpha virt. eigenvalues --    0.02766   0.14453   0.19865   0.22265   0.25218
 Alpha virt. eigenvalues --    0.28703   0.33830   0.41769   0.43598   0.60682
 Alpha virt. eigenvalues --    0.61411   0.66900   0.69013   0.71868   0.74412

 Mulliken charges:
               1
     1  C    0.224791
     2  C   -0.159784
     3  C   -0.355994
     4  O   -0.410671
     5  H    0.167121
     6  H    0.183989
     7  H    0.187191
     8  H    0.163357
 Sum of Mulliken charges =  -0.00000

 Dipole moment (field-independent basis, Debye):
    X=             -2.6720    Y=              1.2035    Z=              0.0051  Tot=              2.9306
 Quadrupole moment (field-independent basis, Debye-Ang):
   XX=            -26.6423   YY=            -20.7438   ZZ=            -24.5151
   XY=              1.4927   XZ=             -0.0531   YZ=              0.0181

 Normal termination of Gaussian 16 at Fri Sep 22 16:29:14 2023.
