 Gaussian 16, Revision A.03,
 Gaussian 16:  ES64L-G16RevA.03 25-Dec-2016

 ----------------
 # 6-31g(d) wb97x
 ----------------

 --------------------
 tmpdir/M2_ref_63.gjf
 --------------------
 Symbolic Z-matrix:
 Charge =  0 Multiplicity = 1

                         Standard orientation:
 ---------------------------------------------------------------------
 Center     Atomic      Atomic             Coordinates (Angstroms)
 Number     Number       Type             X           Y           Z
 ---------------------------------------------------------------------
      1          6           0        0.658112   -0.013468    0.004428
      2          6           0       -0.670987    0.001331   -0.005620
      3          1           0       -1.148814    0.977601    0.002175
      4          1           0        1.275058    0.928069    0.001225
      5          1           0        1.230326   -0.934998   -0.013696
      6          1           0       -1.279321   -0.897846    0.017449
 ---------------------------------------------------------------------

 SCF Done:  E(RwB97X) =  -78.5556640043     A.U. after   12 cycles

 The electronic state is 1-A.
 Alpha  occ. eigenvalues --  -10.27026 -10.26703  -0.88435  -0.69214  -0.57698
 Alpha  occ. eigenvalues --   -0.51859  -0.45204  -0.36859
 Alpha virt. eigenvalues --    0.11351   0.21548   0.23659   0.25831   0.34762
 Alpha virt. eigenvalues --    0.42693   0.58446   0.65549   0.68033   0.75024
 Alpha virt. eigenvalues --    0.75898   0.81903   0.95648   0.99253   1.04517

 Mulliken charges:
               1
     1  C   -0.322303
     2  C   -0.320649
     3  H    0.159683
     4  H    0.156053
     5  H    0.160006
     6  H    0.167210
 Sum of Mulliken charges =   0.00000

 Dipole moment (field-independent basis, Debye):
    X=              0.0042    Y=             -0.0103    Z=              0.0071  Tot=              0.0132
 Quadrupole moment (field-independent basis, Debye-Ang):
   XX=            -11.9886   YY=            -12.0062   ZZ=            -15.1510
   XY=              0.1274   XZ=             -0.0434   YZ=             -0.0003

 Normal termination of Gaussian 16 at Fri Sep 22 16:29:31 2023.
