 Gaussian 16, Revision A.03,
 Gaussian 16:  ES64L-G16RevA.03 25-Dec-2016

 ----------------
 # 6-31g(d) wb97x
 ----------------

 ----------------------
 tmpdir/M1_conf_1_1.gjf
 ----------------------
 Symbolic Z-matrix:
 Charge =  0 Multiplicity = 1

                         Standard orientation:
 ---------------------------------------------------------------------
 Center     Atomic      Atomic             Coordinates (Angstroms)
 Number     Number       Type             X           Y           Z
 ---------------------------------------------------------------------
      1          6           0        0.002756   -0.006785   -0.008261
      2          1           0        0.026270    0.936858   -0.559643
      3          1           0        0.129982    0.241346    1.057381
      4          1           0        0.860115   -0.650172   -0.309307
      5          1           0       -1.032903   -0.487319   -0.138868
 ---------------------------------------------------------------------

 SCF Done:  E(RwB97X) =  -40.4964732718     A.U. after   11 cycles

 The electronic state is 1-A.
 Alpha  occ. eigenvalues --  -10.25802  -0.81203  -0.49776  -0.49075  -0.48464
 Alpha virt. eigenvalues --    0.20952   0.26262   0.26997   0.27418   0.63835
 Alpha virt. eigenvalues --    0.64220   0.66121   0.98156   1.00478   1.01317
 Alpha virt. eigenvalues --    1.05307   1.20246   1.76040   1.76381   2.28233

 Mulliken charges:
               1
     1  C   -0.658591
     2  H    0.169092
     3  H    0.165346
     4  H    0.166835
     5  H    0.157318
 Sum of Mulliken charges =   0.00000

 Dipole moment (field-independent basis, Debye):
    X=              0.0255    Y=              0.0611    Z=              0.0375  Tot=              0.0761
 Quadrupole moment (field-independent basis, Debye-Ang):
   XX=             -8.1126   YY=             -8.3643   ZZ=             -8.4450
   XY=             -0.0375   XZ=             -0.0118   YZ=             -0.0181

 Normal termination of Gaussian 16 at Fri Sep 22 11:10:49 2023.
