 Gaussian 16, Revision A.03,
 Gaussian 16:  ES64L-G16RevA.03 25-Dec-2016

 ----------------
 # 6-31g(d) wb97x
 ----------------

 ----------------------
 tmpdir/M1_conf_1_0.gjf
 ----------------------
 Symbolic Z-matrix:
 Charge =  0 Multiplicity = 1

                         Standard orientation:
 ---------------------------------------------------------------------
 Center     Atomic      Atomic             Coordinates (Angstroms)
 Number     Number       Type             X           Y           Z
 ---------------------------------------------------------------------
      1          6           0       -0.000348   -0.002213   -0.002023
      2          1           0        0.736406   -0.402058   -0.724758
      3          1           0        0.298838   -0.333993    0.997682
      4          1           0        0.015408    1.110559   -0.035608
      5          1           0       -1.048561   -0.361229   -0.225180
 ---------------------------------------------------------------------

 SCF Done:  E(RwB97X) =  -40.4981201453     A.U. after   11 cycles

 The electronic state is 1-A.
 Alpha  occ. eigenvalues --  -10.25678  -0.81245  -0.49543  -0.49175  -0.48791
 Alpha virt. eigenvalues --    0.21141   0.26551   0.27104   0.27297   0.63954
 Alpha virt. eigenvalues --    0.64559   0.65289   0.99457   1.00728   1.00961
 Alpha virt. eigenvalues --    1.04915   1.20204   1.76019   1.76284   2.30926

 Mulliken charges:
               1
     1  C   -0.659242
     2  H    0.166240
     3  H    0.168254
     4  H    0.163783
     5  H    0.160965
 Sum of Mulliken charges =   0.00000

 Dipole moment (field-independent basis, Debye):
    X=              0.0267    Y=              0.0050    Z=              0.0242  Tot=              0.0364
 Quadrupole moment (field-independent basis, Debye-Ang):
   XX=             -8.2011   YY=             -8.3219   ZZ=             -8.3744
   XY=             -0.0189   XZ=             -0.0046   YZ=             -0.0087

 Normal termination of Gaussian 16 at Fri Sep 22 11:10:49 2023.
