 Gaussian 16, Revision A.03,
 Gaussian 16:  ES64L-G16RevA.03 25-Dec-2016

 ----------------
 # 6-31g(d) wb97x
 ----------------

 -----------------------
 tmpdir/M1_conf_2_11.gjf
 -----------------------
 Symbolic Z-matrix:
 Charge =  0 Multiplicity = 1

                         Standard orientation:
 ---------------------------------------------------------------------
 Center     Atomic      Atomic             Coordinates (Angstroms)
 Number     Number       Type             X           Y           Z
 ---------------------------------------------------------------------
      1          6           0        0.010617    0.002226   -0.006941
      2          1           0       -0.235776   -0.106231    1.053698
      3          1           0       -0.428941   -0.861808   -0.515571
      4          1           0       -0.494972    0.905851   -0.359446
      5          1           0        1.095988    0.048830   -0.137032
 ---------------------------------------------------------------------

 SCF Done:  E(RwB97X) =  -40.4989268300     A.U. after   11 cycles

 The electronic state is 1-A.
 Alpha  occ. eigenvalues --  -10.24930  -0.81757  -0.50227  -0.49318  -0.48854
 Alpha virt. eigenvalues --    0.21611   0.27306   0.27465   0.27774   0.63770
 Alpha virt. eigenvalues --    0.63983   0.64531   1.01140   1.01619   1.02357
 Alpha virt. eigenvalues --    1.07200   1.20942   1.75800   1.75849   2.33991

 Mulliken charges:
               1
     1  C   -0.667717
     2  H    0.164745
     3  H    0.166238
     4  H    0.166936
     5  H    0.169798
 Sum of Mulliken charges =   0.00000

 Dipole moment (field-independent basis, Debye):
    X=             -0.0383    Y=             -0.0078    Z=              0.0277  Tot=              0.0479
 Quadrupole moment (field-independent basis, Debye-Ang):
   XX=             -8.0960   YY=             -8.2866   ZZ=             -8.3814
   XY=             -0.0010   XZ=             -0.0012   YZ=             -0.0009

 Normal termination of Gaussian 16 at Fri Sep 22 11:11:05 2023.
