 Gaussian 16, Revision A.03,
 Gaussian 16:  ES64L-G16RevA.03 25-Dec-2016

 ----------------
 # 6-31g(d) wb97x
 ----------------

 ----------------------
 tmpdir/M1_conf_1_3.gjf
 ----------------------
 Symbolic Z-matrix:
 Charge =  0 Multiplicity = 1

                         Standard orientation:
 ---------------------------------------------------------------------
 Center     Atomic      Atomic             Coordinates (Angstroms)
 Number     Number       Type             X           Y           Z
 ---------------------------------------------------------------------
      1          6           0        0.006074   -0.002546    0.000584
      2          1           0       -0.289173    1.049420   -0.133828
      3          1           0       -0.486362   -0.365809    0.910429
      4          1           0       -0.409012   -0.573470   -0.834696
      5          1           0        1.148101   -0.094866    0.054592
 ---------------------------------------------------------------------

 SCF Done:  E(RwB97X) =  -40.4970850776     A.U. after   11 cycles

 The electronic state is 1-A.
 Alpha  occ. eigenvalues --  -10.25589  -0.81345  -0.49488  -0.49137  -0.48945
 Alpha virt. eigenvalues --    0.21092   0.26489   0.27289   0.27378   0.63755
 Alpha virt. eigenvalues --    0.63985   0.65969   0.98513   1.01093   1.01299
 Alpha virt. eigenvalues --    1.06103   1.20393   1.76005   1.76172   2.28733

 Mulliken charges:
               1
     1  C   -0.660489
     2  H    0.165948
     3  H    0.167581
     4  H    0.168264
     5  H    0.158696
 Sum of Mulliken charges =   0.00000

 Dipole moment (field-independent basis, Debye):
    X=             -0.0711    Y=              0.0079    Z=             -0.0064  Tot=              0.0718
 Quadrupole moment (field-independent basis, Debye-Ang):
   XX=             -8.1122   YY=             -8.3728   ZZ=             -8.3962
   XY=              0.0135   XZ=             -0.0031   YZ=              0.0051

 Normal termination of Gaussian 16 at Fri Sep 22 11:10:49 2023.
