 Gaussian 16, Revision A.03,
 Gaussian 16:  ES64L-G16RevA.03 25-Dec-2016

 ----------------
 # 6-31g(d) wb97x
 ----------------

 ----------------------
 tmpdir/M1_conf_0_5.gjf
 ----------------------
 Symbolic Z-matrix:
 Charge =  0 Multiplicity = 1

                         Standard orientation:
 ---------------------------------------------------------------------
 Center     Atomic      Atomic             Coordinates (Angstroms)
 Number     Number       Type             X           Y           Z
 ---------------------------------------------------------------------
      1          6           0        0.005341    0.000082   -0.003069
      2          1           0        0.068258   -0.818665   -0.729289
      3          1           0        0.707837   -0.213813    0.821654
      4          1           0        0.272252    0.977473   -0.452165
      5          1           0       -1.080394    0.054514    0.378211
 ---------------------------------------------------------------------

 SCF Done:  E(RwB97X) =  -40.4970188163     A.U. after   11 cycles

 The electronic state is 1-A.
 Alpha  occ. eigenvalues --  -10.25844  -0.81148  -0.49826  -0.49268  -0.48227
 Alpha virt. eigenvalues --    0.21000   0.26015   0.27073   0.27515   0.63929
 Alpha virt. eigenvalues --    0.64564   0.65684   0.98100   1.00652   1.01576
 Alpha virt. eigenvalues --    1.04458   1.19972   1.75931   1.76642   2.29512

 Mulliken charges:
               1
     1  C   -0.657155
     2  H    0.169371
     3  H    0.166928
     4  H    0.166707
     5  H    0.154149
 Sum of Mulliken charges =   0.00000

 Dipole moment (field-independent basis, Debye):
    X=              0.0295    Y=             -0.0124    Z=             -0.0113  Tot=              0.0339
 Quadrupole moment (field-independent basis, Debye-Ang):
   XX=             -8.2576   YY=             -8.2390   ZZ=             -8.4314
   XY=              0.0039   XZ=              0.0409   YZ=              0.0109

 Normal termination of Gaussian 16 at Fri Sep 22 11:10:34 2023.
