 Gaussian 16, Revision A.03,
 Gaussian 16:  ES64L-G16RevA.03 25-Dec-2016

 ----------------
 # 6-31g(d) wb97x
 ----------------

 ----------------------
 tmpdir/M1_conf_2_3.gjf
 ----------------------
 Symbolic Z-matrix:
 Charge =  0 Multiplicity = 1

                         Standard orientation:
 ---------------------------------------------------------------------
 Center     Atomic      Atomic             Coordinates (Angstroms)
 Number     Number       Type             X           Y           Z
 ---------------------------------------------------------------------
      1          6           0        0.008345    0.002442   -0.000012
      2          1           0       -0.478017    0.990350   -0.052905
      3          1           0       -0.387002   -0.507273    0.889389
      4          1           0       -0.324469   -0.576607   -0.868872
      5          1           0        1.139416    0.078878    0.032459
 ---------------------------------------------------------------------

 SCF Done:  E(RwB97X) =  -40.4977393762     A.U. after   11 cycles

 The electronic state is 1-A.
 Alpha  occ. eigenvalues --  -10.25518  -0.81379  -0.49580  -0.49101  -0.48980
 Alpha virt. eigenvalues --    0.21183   0.26798   0.27189   0.27299   0.63848
 Alpha virt. eigenvalues --    0.64038   0.65648   0.99393   1.00924   1.01136
 Alpha virt. eigenvalues --    1.06043   1.20490   1.76036   1.76080   2.29840

 Mulliken charges:
               1
     1  C   -0.661530
     2  H    0.166124
     3  H    0.166359
     4  H    0.167106
     5  H    0.161941
 Sum of Mulliken charges =  -0.00000

 Dipole moment (field-independent basis, Debye):
    X=             -0.0629    Y=             -0.0171    Z=             -0.0031  Tot=              0.0652
 Quadrupole moment (field-independent basis, Debye-Ang):
   XX=             -8.1096   YY=             -8.3622   ZZ=             -8.3977
   XY=             -0.0008   XZ=              0.0002   YZ=              0.0033

 Normal termination of Gaussian 16 at Fri Sep 22 11:11:03 2023.
