 Gaussian 16, Revision A.03,
 Gaussian 16:  ES64L-G16RevA.03 25-Dec-2016

 ----------------
 # 6-31g(d) wb97x
 ----------------

 ----------------------
 tmpdir/M1_conf_0_2.gjf
 ----------------------
 Symbolic Z-matrix:
 Charge =  0 Multiplicity = 1

                         Standard orientation:
 ---------------------------------------------------------------------
 Center     Atomic      Atomic             Coordinates (Angstroms)
 Number     Number       Type             X           Y           Z
 ---------------------------------------------------------------------
      1          7           0       -0.000741   -0.000470   -0.000064
      2          1           0        0.742911   -0.700163    0.000149
      3          1           0       -0.979717   -0.286421    0.000150
      4          1           0        0.241994    0.989877    0.000148
 ---------------------------------------------------------------------

 SCF Done:  E(RwB97X) =  -56.5186725103     A.U. after   10 cycles

 The electronic state is 1-A.
 Alpha  occ. eigenvalues --  -14.36737  -0.93940  -0.57109  -0.56931  -0.32060
 Alpha virt. eigenvalues --    0.18698   0.28327   0.28372   0.83417   0.83782
 Alpha virt. eigenvalues --    0.83917   0.89720   1.05188   1.05298   1.19951
 Alpha virt. eigenvalues --    1.81929   1.82013   2.27176   2.43411   2.44144

 Mulliken charges:
               1
     1  N   -0.988206
     2  H    0.329241
     3  H    0.329995
     4  H    0.328969
 Sum of Mulliken charges =   0.00000

 Dipole moment (field-independent basis, Debye):
    X=              0.0055    Y=              0.0036    Z=              0.0012  Tot=              0.0067
 Quadrupole moment (field-independent basis, Debye-Ang):
   XX=             -5.3848   YY=             -5.4285   ZZ=             -9.3608
   XY=              0.0015   XZ=             -0.0000   YZ=             -0.0000

 Normal termination of Gaussian 16 at Fri Sep 22 11:10:34 2023.
