 Gaussian 16, Revision A.03,
 Gaussian 16:  ES64L-G16RevA.03 25-Dec-2016

 ----------------
 # 6-31g(d) wb97x
 ----------------

 ----------------------
 tmpdir/M1_conf_0_6.gjf
 ----------------------
 Symbolic Z-matrix:
 Charge =  0 Multiplicity = 1

                         Standard orientation:
 ---------------------------------------------------------------------
 Center     Atomic      Atomic             Coordinates (Angstroms)
 Number     Number       Type             X           Y           Z
 ---------------------------------------------------------------------
      1          7           0        0.000221   -0.002839   -0.004593
      2          1           0        0.905614   -0.485022    0.010828
      3          1           0       -0.890053   -0.513074    0.010807
      4          1           0       -0.017108    1.017969    0.010516
 ---------------------------------------------------------------------

 SCF Done:  E(RwB97X) =  -56.5180935710     A.U. after   10 cycles

 The electronic state is 1-A.
 Alpha  occ. eigenvalues --  -14.36846  -0.93782  -0.57151  -0.56593  -0.32034
 Alpha virt. eigenvalues --    0.18534   0.28208   0.28237   0.82725   0.83780
 Alpha virt. eigenvalues --    0.84782   0.89542   1.04883   1.04928   1.19773
 Alpha virt. eigenvalues --    1.81928   1.82192   2.26794   2.41597   2.44881

 Mulliken charges:
               1
     1  N   -0.987636
     2  H    0.330286
     3  H    0.330067
     4  H    0.327282
 Sum of Mulliken charges =  -0.00000

 Dipole moment (field-independent basis, Debye):
    X=             -0.0016    Y=              0.0219    Z=              0.0893  Tot=              0.0920
 Quadrupole moment (field-independent basis, Debye-Ang):
   XX=             -5.3133   YY=             -5.4914   ZZ=             -9.3740
   XY=             -0.0005   XZ=              0.0000   YZ=             -0.0004

 Normal termination of Gaussian 16 at Fri Sep 22 11:10:36 2023.
