 Gaussian 16, Revision A.03,
 Gaussian 16:  ES64L-G16RevA.03 25-Dec-2016

 ----------------
 # 6-31g(d) wb97x
 ----------------

 ----------------------
 tmpdir/M1_conf_2_2.gjf
 ----------------------
 Symbolic Z-matrix:
 Charge =  0 Multiplicity = 1

                         Standard orientation:
 ---------------------------------------------------------------------
 Center     Atomic      Atomic             Coordinates (Angstroms)
 Number     Number       Type             X           Y           Z
 ---------------------------------------------------------------------
      1          7           0       -0.005928   -0.001890   -0.033915
      2          1           0        0.600880   -0.803408    0.078214
      3          1           0       -1.006393   -0.080935    0.082265
      4          1           0        0.447007    0.897573    0.076926
 ---------------------------------------------------------------------

 SCF Done:  E(RwB97X) =  -56.5206975861     A.U. after   12 cycles

 The electronic state is 1-A.
 Alpha  occ. eigenvalues --  -14.36646  -0.94566  -0.57882  -0.56598  -0.32444
 Alpha virt. eigenvalues --    0.18971   0.28375   0.28636   0.81484   0.83721
 Alpha virt. eigenvalues --    0.84491   0.91967   1.05434   1.06199   1.20408
 Alpha virt. eigenvalues --    1.80883   1.81570   2.26019   2.43985   2.47895

 Mulliken charges:
               1
     1  N   -0.982275
     2  H    0.326249
     3  H    0.331393
     4  H    0.324632
 Sum of Mulliken charges =  -0.00000

 Dipole moment (field-independent basis, Debye):
    X=              0.0468    Y=              0.0150    Z=              0.6543  Tot=              0.6562
 Quadrupole moment (field-independent basis, Debye-Ang):
   XX=             -5.3364   YY=             -5.6221   ZZ=             -9.2866
   XY=             -0.0016   XZ=             -0.0074   YZ=             -0.0025

 Normal termination of Gaussian 16 at Fri Sep 22 11:11:03 2023.
