 Gaussian 16, Revision A.03,
 Gaussian 16:  ES64L-G16RevA.03 25-Dec-2016

 ----------------
 # 6-31g(d) wb97x
 ----------------

 ----------------------
 tmpdir/M1_conf_1_9.gjf
 ----------------------
 Symbolic Z-matrix:
 Charge =  0 Multiplicity = 1

                         Standard orientation:
 ---------------------------------------------------------------------
 Center     Atomic      Atomic             Coordinates (Angstroms)
 Number     Number       Type             X           Y           Z
 ---------------------------------------------------------------------
      1          6           0       -0.164179    0.389446   -0.011023
      2          8           0       -1.198985   -0.259174    0.013375
      3          7           0        1.084652   -0.157613   -0.037036
      4          1           0        1.839523    0.472774    0.179337
      5          1           0       -0.189454    1.486666   -0.010913
      6          1           0        1.334315   -1.119428    0.049967
 ---------------------------------------------------------------------

 SCF Done:  E(RwB97X) =  -169.839996028     A.U. after   16 cycles

 The electronic state is 1-A.
 Alpha  occ. eigenvalues --  -19.18151 -14.43979 -10.37579  -1.15455  -1.03714
 Alpha  occ. eigenvalues --   -0.75233  -0.65847  -0.60121  -0.51735  -0.50871
 Alpha  occ. eigenvalues --   -0.37335  -0.35494
 Alpha virt. eigenvalues --    0.12312   0.17881   0.20509   0.27519   0.36600
 Alpha virt. eigenvalues --    0.44650   0.64199   0.65623   0.75356   0.79445
 Alpha virt. eigenvalues --    0.81111   0.83917   0.95241   0.97912   0.99756

 Mulliken charges:
               1
     1  C    0.341058
     2  O   -0.449136
     3  N   -0.732690
     4  H    0.341749
     5  H    0.133389
     6  H    0.365631
 Sum of Mulliken charges =  -0.00000

 Dipole moment (field-independent basis, Debye):
    X=              3.7999    Y=              0.9479    Z=              0.4723  Tot=              3.9447
 Quadrupole moment (field-independent basis, Debye-Ang):
   XX=            -17.4097   YY=            -14.8056   ZZ=            -18.3677
   XY=             -1.4725   XZ=              1.0017   YZ=              0.0467

 Normal termination of Gaussian 16 at Fri Sep 22 11:10:53 2023.
