 Gaussian 16, Revision A.03,
 Gaussian 16:  ES64L-G16RevA.03 25-Dec-2016

 ----------------
 # 6-31g(d) wb97x
 ----------------

 -----------------------
 tmpdir/M1_conf_1_12.gjf
 -----------------------
 Symbolic Z-matrix:
 Charge =  0 Multiplicity = 1

                         Standard orientation:
 ---------------------------------------------------------------------
 Center     Atomic      Atomic             Coordinates (Angstroms)
 Number     Number       Type             X           Y           Z
 ---------------------------------------------------------------------
      1          7           0        0.005080   -0.018609   -0.008265
      2          1           0       -0.233368    0.962747    0.016667
      3          1           0        0.963474   -0.238309    0.020659
      4          1           0       -0.765665   -0.594177    0.020532
 ---------------------------------------------------------------------

 SCF Done:  E(RwB97X) =  -56.5156651943     A.U. after   12 cycles

 The electronic state is 1-A.
 Alpha  occ. eigenvalues --  -14.35844  -0.95456  -0.60235  -0.56182  -0.32374
 Alpha virt. eigenvalues --    0.19859   0.28525   0.29886   0.78365   0.83768
 Alpha virt. eigenvalues --    0.87594   0.93687   1.05929   1.10675   1.21606
 Alpha virt. eigenvalues --    1.80054   1.82075   2.29825   2.40541   2.54877

 Mulliken charges:
               1
     1  N   -0.990099
     2  H    0.316833
     3  H    0.337640
     4  H    0.335626
 Sum of Mulliken charges =  -0.00000

 Dipole moment (field-independent basis, Debye):
    X=             -0.0385    Y=              0.1467    Z=              0.1651  Tot=              0.2242
 Quadrupole moment (field-independent basis, Debye-Ang):
   XX=             -5.1415   YY=             -5.7795   ZZ=             -9.2407
   XY=              0.0390   XZ=              0.0010   YZ=             -0.0072

 Normal termination of Gaussian 16 at Fri Sep 22 11:10:52 2023.
