 Gaussian 16, Revision A.03,
 Gaussian 16:  ES64L-G16RevA.03 25-Dec-2016

 ----------------
 # 6-31g(d) wb97x
 ----------------

 ----------------------
 tmpdir/M1_conf_0_3.gjf
 ----------------------
 Symbolic Z-matrix:
 Charge =  0 Multiplicity = 1

                         Standard orientation:
 ---------------------------------------------------------------------
 Center     Atomic      Atomic             Coordinates (Angstroms)
 Number     Number       Type             X           Y           Z
 ---------------------------------------------------------------------
      1          6           0       -0.004304    0.006870   -0.000410
      2          1           0        0.669502    0.881136   -0.035416
      3          1           0        0.241049   -0.636716   -0.853919
      4          1           0        0.232790   -0.559481    0.908043
      5          1           0       -1.117519    0.273842   -0.016245
 ---------------------------------------------------------------------

 SCF Done:  E(RwB97X) =  -40.4970819760     A.U. after   11 cycles

 The electronic state is 1-A.
 Alpha  occ. eigenvalues --  -10.25640  -0.81308  -0.49596  -0.49089  -0.48823
 Alpha virt. eigenvalues --    0.21068   0.26492   0.27195   0.27349   0.63845
 Alpha virt. eigenvalues --    0.64003   0.65975   0.98569   1.00967   1.01202
 Alpha virt. eigenvalues --    1.05826   1.20360   1.75986   1.76257   2.28738

 Mulliken charges:
               1
     1  C   -0.660155
     2  H    0.166985
     3  H    0.166984
     4  H    0.167021
     5  H    0.159165
 Sum of Mulliken charges =  -0.00000

 Dipole moment (field-independent basis, Debye):
    X=              0.0569    Y=             -0.0447    Z=              0.0028  Tot=              0.0724
 Quadrupole moment (field-independent basis, Debye-Ang):
   XX=             -8.1079   YY=             -8.3834   ZZ=             -8.3999
   XY=              0.0184   XZ=             -0.0011   YZ=              0.0001

 Normal termination of Gaussian 16 at Fri Sep 22 11:10:34 2023.
