 Gaussian 16, Revision A.03,
 Gaussian 16:  ES64L-G16RevA.03 25-Dec-2016

 ----------------
 # 6-31g(d) wb97x
 ----------------

 ----------------------
 tmpdir/M1_conf_2_0.gjf
 ----------------------
 Symbolic Z-matrix:
 Charge =  0 Multiplicity = 1

                         Standard orientation:
 ---------------------------------------------------------------------
 Center     Atomic      Atomic             Coordinates (Angstroms)
 Number     Number       Type             X           Y           Z
 ---------------------------------------------------------------------
      1          6           0        0.000885   -0.001208   -0.001136
      2          1           0        0.769087   -0.150409   -0.784931
      3          1           0        0.258891   -0.646191    0.847660
      4          1           0        0.007177    1.068451    0.311231
      5          1           0       -1.040466   -0.264602   -0.367144
 ---------------------------------------------------------------------

 SCF Done:  E(RwB97X) =  -40.4978209650     A.U. after   11 cycles

 The electronic state is 1-A.
 Alpha  occ. eigenvalues --  -10.25767  -0.81186  -0.49554  -0.49314  -0.48536
 Alpha virt. eigenvalues --    0.21083   0.26380   0.27055   0.27319   0.63991
 Alpha virt. eigenvalues --    0.64608   0.65406   0.99101   1.00591   1.01047
 Alpha virt. eigenvalues --    1.04591   1.20071   1.75973   1.76481   2.30538

 Mulliken charges:
               1
     1  C   -0.658257
     2  H    0.166190
     3  H    0.168368
     4  H    0.163997
     5  H    0.159702
 Sum of Mulliken charges =   0.00000

 Dipole moment (field-independent basis, Debye):
    X=              0.0253    Y=             -0.0023    Z=              0.0205  Tot=              0.0327
 Quadrupole moment (field-independent basis, Debye-Ang):
   XX=             -8.2077   YY=             -8.2998   ZZ=             -8.4060
   XY=             -0.0182   XZ=             -0.0160   YZ=             -0.0213

 Normal termination of Gaussian 16 at Fri Sep 22 11:11:03 2023.
