 Gaussian 16, Revision A.03,
 Gaussian 16:  ES64L-G16RevA.03 25-Dec-2016

 ----------------
 # 6-31g(d) wb97x
 ----------------

 ----------------------
 tmpdir/M1_conf_2_7.gjf
 ----------------------
 Symbolic Z-matrix:
 Charge =  0 Multiplicity = 1

                         Standard orientation:
 ---------------------------------------------------------------------
 Center     Atomic      Atomic             Coordinates (Angstroms)
 Number     Number       Type             X           Y           Z
 ---------------------------------------------------------------------
      1          6           0        0.005599    0.006613   -0.004857
      2          1           0       -0.357962   -0.740888   -0.727438
      3          1           0       -0.232625   -0.400647    0.987592
      4          1           0        1.122403    0.156634   -0.095454
      5          1           0       -0.565410    0.945222   -0.135556
 ---------------------------------------------------------------------

 SCF Done:  E(RwB97X) =  -40.4978314958     A.U. after   11 cycles

 The electronic state is 1-A.
 Alpha  occ. eigenvalues --  -10.25586  -0.81327  -0.49546  -0.49319  -0.48722
 Alpha virt. eigenvalues --    0.21161   0.26801   0.27117   0.27211   0.63839
 Alpha virt. eigenvalues --    0.64334   0.65483   0.99569   1.00721   1.00986
 Alpha virt. eigenvalues --    1.05613   1.20434   1.76064   1.76125   2.30294

 Mulliken charges:
               1
     1  C   -0.660865
     2  H    0.166204
     3  H    0.165653
     4  H    0.162390
     5  H    0.166617
 Sum of Mulliken charges =   0.00000

 Dipole moment (field-independent basis, Debye):
    X=             -0.0461    Y=             -0.0347    Z=              0.0250  Tot=              0.0629
 Quadrupole moment (field-independent basis, Debye-Ang):
   XX=             -8.1422   YY=             -8.2959   ZZ=             -8.4446
   XY=             -0.0065   XZ=              0.0042   YZ=              0.0012

 Normal termination of Gaussian 16 at Fri Sep 22 11:11:05 2023.
