 Gaussian 16, Revision A.03,
 Gaussian 16:  ES64L-G16RevA.03 25-Dec-2016

 ----------------
 # 6-31g(d) wb97x
 ----------------

 ----------------------
 tmpdir/M1_conf_1_5.gjf
 ----------------------
 Symbolic Z-matrix:
 Charge =  0 Multiplicity = 1

                         Standard orientation:
 ---------------------------------------------------------------------
 Center     Atomic      Atomic             Coordinates (Angstroms)
 Number     Number       Type             X           Y           Z
 ---------------------------------------------------------------------
      1          6           0       -0.001984    0.001657    0.001132
      2          1           0       -0.430698   -0.570969    0.830246
      3          1           0       -0.795056    0.119854   -0.761729
      4          1           0        0.348073    1.002870    0.334298
      5          1           0        0.889587   -0.561695   -0.409604
 ---------------------------------------------------------------------

 SCF Done:  E(RwB97X) =  -40.4979796071     A.U. after   11 cycles

 The electronic state is 1-A.
 Alpha  occ. eigenvalues --  -10.25678  -0.81245  -0.49822  -0.49245  -0.48447
 Alpha virt. eigenvalues --    0.21147   0.26393   0.27081   0.27466   0.63906
 Alpha virt. eigenvalues --    0.64675   0.65259   0.99226   1.00710   1.01329
 Alpha virt. eigenvalues --    1.04758   1.20059   1.75924   1.76556   2.31201

 Mulliken charges:
               1
     1  C   -0.659242
     2  H    0.168760
     3  H    0.165947
     4  H    0.165141
     5  H    0.159394
 Sum of Mulliken charges =   0.00000

 Dipole moment (field-independent basis, Debye):
    X=             -0.0200    Y=             -0.0034    Z=              0.0140  Tot=              0.0247
 Quadrupole moment (field-independent basis, Debye-Ang):
   XX=             -8.1977   YY=             -8.2784   ZZ=             -8.4219
   XY=              0.0300   XZ=              0.0100   YZ=             -0.0258

 Normal termination of Gaussian 16 at Fri Sep 22 11:10:49 2023.
