 Gaussian 16, Revision A.03,
 Gaussian 16:  ES64L-G16RevA.03 25-Dec-2016

 ----------------
 # 6-31g(d) wb97x
 ----------------

 -----------------------
 tmpdir/M1_conf_1_11.gjf
 -----------------------
 Symbolic Z-matrix:
 Charge =  0 Multiplicity = 1

                         Standard orientation:
 ---------------------------------------------------------------------
 Center     Atomic      Atomic             Coordinates (Angstroms)
 Number     Number       Type             X           Y           Z
 ---------------------------------------------------------------------
      1          6           0        0.011384    0.003063   -0.000963
      2          1           0       -0.228762   -0.851508   -0.636150
      3          1           0       -0.522930    0.875224   -0.393476
      4          1           0       -0.404303   -0.206746    0.990234
      5          1           0        1.087693    0.164652    0.045172
 ---------------------------------------------------------------------

 SCF Done:  E(RwB97X) =  -40.4990593818     A.U. after   11 cycles

 The electronic state is 1-A.
 Alpha  occ. eigenvalues --  -10.24870  -0.81793  -0.50268  -0.49220  -0.48992
 Alpha virt. eigenvalues --    0.21654   0.27332   0.27485   0.27868   0.63838
 Alpha virt. eigenvalues --    0.63920   0.64393   1.01290   1.01621   1.02615
 Alpha virt. eigenvalues --    1.07286   1.20945   1.75754   1.75847   2.34574

 Mulliken charges:
               1
     1  C   -0.668112
     2  H    0.166376
     3  H    0.165882
     4  H    0.165228
     5  H    0.170626
 Sum of Mulliken charges =  -0.00000

 Dipole moment (field-independent basis, Debye):
    X=             -0.0365    Y=             -0.0140    Z=              0.0022  Tot=              0.0391
 Quadrupole moment (field-independent basis, Debye-Ang):
   XX=             -8.1017   YY=             -8.3074   ZZ=             -8.3432
   XY=              0.0075   XZ=              0.0042   YZ=              0.0041

 Normal termination of Gaussian 16 at Fri Sep 22 11:10:51 2023.
