 Gaussian 16, Revision A.03,
 Gaussian 16:  ES64L-G16RevA.03 25-Dec-2016

 ----------------
 # 6-31g(d) wb97x
 ----------------

 ----------------------
 tmpdir/M1_conf_1_4.gjf
 ----------------------
 Symbolic Z-matrix:
 Charge =  0 Multiplicity = 1

                         Standard orientation:
 ---------------------------------------------------------------------
 Center     Atomic      Atomic             Coordinates (Angstroms)
 Number     Number       Type             X           Y           Z
 ---------------------------------------------------------------------
      1          6           0       -0.003885   -0.000729   -0.007929
      2          1           0        0.106866    1.042765   -0.326311
      3          1           0       -0.245015   -0.009165    1.066182
      4          1           0        1.007877   -0.531121   -0.156422
      5          1           0       -0.846415   -0.498108   -0.535873
 ---------------------------------------------------------------------

 SCF Done:  E(RwB97X) =  -40.4966311858     A.U. after   11 cycles

 The electronic state is 1-A.
 Alpha  occ. eigenvalues --  -10.25846  -0.81162  -0.49884  -0.48959  -0.48443
 Alpha virt. eigenvalues --    0.20953   0.26157   0.26950   0.27485   0.63914
 Alpha virt. eigenvalues --    0.64322   0.65992   0.98081   1.00363   1.01548
 Alpha virt. eigenvalues --    1.04853   1.20091   1.76107   1.76411   2.28662

 Mulliken charges:
               1
     1  C   -0.657629
     2  H    0.169075
     3  H    0.166087
     4  H    0.155570
     5  H    0.166898
 Sum of Mulliken charges =  -0.00000

 Dipole moment (field-independent basis, Debye):
    X=             -0.0253    Y=              0.0375    Z=              0.0425  Tot=              0.0621
 Quadrupole moment (field-independent basis, Debye-Ang):
   XX=             -8.1530   YY=             -8.3411   ZZ=             -8.4349
   XY=              0.0500   XZ=              0.0135   YZ=             -0.0138

 Normal termination of Gaussian 16 at Fri Sep 22 11:10:49 2023.
