 Gaussian 16, Revision A.03,
 Gaussian 16:  ES64L-G16RevA.03 25-Dec-2016

 ----------------
 # 6-31g(d) wb97x
 ----------------

 ----------------------
 tmpdir/M1_conf_1_8.gjf
 ----------------------
 Symbolic Z-matrix:
 Charge =  0 Multiplicity = 1

                         Standard orientation:
 ---------------------------------------------------------------------
 Center     Atomic      Atomic             Coordinates (Angstroms)
 Number     Number       Type             X           Y           Z
 ---------------------------------------------------------------------
      1          6           0        1.406676   -0.113754    0.001242
      2          6           0        0.787864    1.135069   -0.016554
      3          1           0        1.403537    2.026713   -0.024403
      4          6           0       -0.596147    1.253036    0.000840
      5          1           0       -1.041312    2.244227    0.065621
      6          6           0        0.597509   -1.250356    0.004551
      7          1           0        1.047218   -2.239259   -0.005477
      8          6           0       -0.789136   -1.135945   -0.003093
      9          1           0       -1.417693   -2.018594   -0.010548
     10          6           0       -1.406312    0.116170   -0.003756
     11          1           0        2.508519   -0.191518    0.057929
     12          1           0       -2.502995    0.153116    0.017511
 ---------------------------------------------------------------------

 SCF Done:  E(RwB97X) =  -232.177277856     A.U. after   12 cycles

 The electronic state is 1-A.
 Alpha  occ. eigenvalues --  -10.27445 -10.27362 -10.27194 -10.27137 -10.27044
 Alpha  occ. eigenvalues --  -10.27013  -0.98165  -0.87024  -0.86905  -0.71898
 Alpha  occ. eigenvalues --   -0.71590  -0.63461  -0.56800  -0.54790  -0.52489
 Alpha  occ. eigenvalues --   -0.52101  -0.47596  -0.44207  -0.43472  -0.33873
 Alpha  occ. eigenvalues --   -0.33822
 Alpha virt. eigenvalues --    0.08590   0.08950   0.18450   0.24108   0.24547
 Alpha virt. eigenvalues --    0.27219   0.27877   0.28453   0.29238   0.39884
 Alpha virt. eigenvalues --    0.40311   0.41294   0.42050   0.57555   0.63197

 Mulliken charges:
               1
     1  C   -0.158945
     2  C   -0.160100
     3  H    0.158024
     4  C   -0.160534
     5  H    0.159021
     6  C   -0.160850
     7  H    0.158206
     8  C   -0.158907
     9  H    0.157928
    10  C   -0.159723
    11  H    0.163102
    12  H    0.162779
 Sum of Mulliken charges =   0.00000

 Dipole moment (field-independent basis, Debye):
    X=             -0.0058    Y=             -0.0102    Z=              0.0679  Tot=              0.0689
 Quadrupole moment (field-independent basis, Debye-Ang):
   XX=            -30.8714   YY=            -31.2879   ZZ=            -38.8630
   XY=              0.1326   XZ=              0.0084   YZ=              0.1153

 Normal termination of Gaussian 16 at Fri Sep 22 11:10:59 2023.
