 Gaussian 16, Revision A.03,
 Gaussian 16:  ES64L-G16RevA.03 25-Dec-2016

 ----------------
 # 6-31g(d) wb97x
 ----------------

 ----------------------
 tmpdir/M1_conf_0_4.gjf
 ----------------------
 Symbolic Z-matrix:
 Charge =  0 Multiplicity = 1

                         Standard orientation:
 ---------------------------------------------------------------------
 Center     Atomic      Atomic             Coordinates (Angstroms)
 Number     Number       Type             X           Y           Z
 ---------------------------------------------------------------------
      1          6           0        0.007913    0.001207   -0.002592
      2          1           0        0.512325   -0.698560   -0.676308
      3          1           0        0.738354    0.351056    0.745785
      4          1           0       -0.878567   -0.525953    0.493853
      5          1           0       -0.419591    0.866215   -0.547776
 ---------------------------------------------------------------------

 SCF Done:  E(RwB97X) =  -40.4973500594     A.U. after   11 cycles

 The electronic state is 1-A.
 Alpha  occ. eigenvalues --  -10.25731  -0.81219  -0.50004  -0.49352  -0.48103
 Alpha virt. eigenvalues --    0.21095   0.26061   0.27201   0.27565   0.63918
 Alpha virt. eigenvalues --    0.64542   0.65502   0.98396   1.01015   1.01652
 Alpha virt. eigenvalues --    1.04580   1.19991   1.75998   1.76612   2.30409

 Mulliken charges:
               1
     1  C   -0.658607
     2  H    0.169871
     3  H    0.167703
     4  H    0.155203
     5  H    0.165829
 Sum of Mulliken charges =   0.00000

 Dipole moment (field-independent basis, Debye):
    X=              0.0115    Y=              0.0080    Z=             -0.0141  Tot=              0.0199
 Quadrupole moment (field-independent basis, Debye-Ang):
   XX=             -8.1766   YY=             -8.3114   ZZ=             -8.4207
   XY=             -0.0467   XZ=              0.0334   YZ=              0.0429

 Normal termination of Gaussian 16 at Fri Sep 22 11:10:34 2023.
