 Gaussian 16, Revision A.03,
 Gaussian 16:  ES64L-G16RevA.03 25-Dec-2016

 ----------------
 # 6-31g(d) wb97x
 ----------------

 ----------------------
 tmpdir/M1_conf_2_8.gjf
 ----------------------
 Symbolic Z-matrix:
 Charge =  0 Multiplicity = 1

                         Standard orientation:
 ---------------------------------------------------------------------
 Center     Atomic      Atomic             Coordinates (Angstroms)
 Number     Number       Type             X           Y           Z
 ---------------------------------------------------------------------
      1          6           0       -1.406373    0.064994    0.001730
      2          6           0       -0.744425   -1.163729   -0.015708
      3          1           0       -1.337549   -2.067253   -0.030462
      4          6           0        0.640822   -1.233415    0.001695
      5          1           0        1.121968   -2.204745    0.066722
      6          6           0       -0.642326    1.232318    0.003704
      7          1           0       -1.130238    2.204901    0.000185
      8          6           0        0.747737    1.164308   -0.003692
      9          1           0        1.337985    2.070476   -0.010026
     10          6           0        1.407667   -0.065931   -0.005341
     11          1           0       -2.511265    0.081295    0.057121
     12          1           0        2.500484   -0.075942    0.022131
 ---------------------------------------------------------------------

 SCF Done:  E(RwB97X) =  -232.177407401     A.U. after   13 cycles

 The electronic state is 1-A.
 Alpha  occ. eigenvalues --  -10.27429 -10.27326 -10.27182 -10.27147 -10.27023
 Alpha  occ. eigenvalues --  -10.26975  -0.98152  -0.87004  -0.86932  -0.71921
 Alpha  occ. eigenvalues --   -0.71603  -0.63482  -0.56850  -0.54781  -0.52460
 Alpha  occ. eigenvalues --   -0.52164  -0.47589  -0.44203  -0.43503  -0.33855
 Alpha  occ. eigenvalues --   -0.33824
 Alpha virt. eigenvalues --    0.08586   0.08951   0.18511   0.24190   0.24572
 Alpha virt. eigenvalues --    0.27214   0.27878   0.28507   0.29271   0.39867
 Alpha virt. eigenvalues --    0.40370   0.41261   0.42051   0.57565   0.63210

 Mulliken charges:
               1
     1  C   -0.159629
     2  C   -0.159236
     3  H    0.157882
     4  C   -0.159953
     5  H    0.159302
     6  C   -0.160731
     7  H    0.158900
     8  C   -0.159391
     9  H    0.158117
    10  C   -0.160122
    11  H    0.162261
    12  H    0.162601
 Sum of Mulliken charges =   0.00000

 Dipole moment (field-independent basis, Debye):
    X=              0.0039    Y=              0.0004    Z=              0.0713  Tot=              0.0714
 Quadrupole moment (field-independent basis, Debye-Ang):
   XX=            -30.8970   YY=            -31.2493   ZZ=            -38.8545
   XY=              0.1484   XZ=              0.0128   YZ=             -0.0959

 Normal termination of Gaussian 16 at Fri Sep 22 11:11:14 2023.
