 Gaussian 16, Revision A.03,
 Gaussian 16:  ES64L-G16RevA.03 25-Dec-2016

 ----------------
 # 6-31g(d) wb97x
 ----------------

 ----------------------
 tmpdir/M1_conf_2_4.gjf
 ----------------------
 Symbolic Z-matrix:
 Charge =  0 Multiplicity = 1

                         Standard orientation:
 ---------------------------------------------------------------------
 Center     Atomic      Atomic             Coordinates (Angstroms)
 Number     Number       Type             X           Y           Z
 ---------------------------------------------------------------------
      1          6           0        0.000552   -0.002287   -0.004301
      2          1           0       -0.019609    0.869427   -0.667271
      3          1           0       -0.368226    0.320612    0.982295
      4          1           0        1.068788   -0.382074    0.085984
      5          1           0       -0.684264   -0.794240   -0.375202
 ---------------------------------------------------------------------

 SCF Done:  E(RwB97X) =  -40.4978294715     A.U. after   10 cycles

 The electronic state is 1-A.
 Alpha  occ. eigenvalues --  -10.25672  -0.81258  -0.49624  -0.49023  -0.48861
 Alpha virt. eigenvalues --    0.21119   0.26537   0.27004   0.27428   0.63911
 Alpha virt. eigenvalues --    0.64399   0.65494   0.99147   1.00466   1.01424
 Alpha virt. eigenvalues --    1.05122   1.20237   1.76018   1.76265   2.30241

 Mulliken charges:
               1
     1  C   -0.659320
     2  H    0.168662
     3  H    0.165847
     4  H    0.159204
     5  H    0.165606
 Sum of Mulliken charges =  -0.00000

 Dipole moment (field-independent basis, Debye):
    X=             -0.0316    Y=              0.0332    Z=              0.0129  Tot=              0.0476
 Quadrupole moment (field-independent basis, Debye-Ang):
   XX=             -8.1999   YY=             -8.2921   ZZ=             -8.4045
   XY=              0.0200   XZ=             -0.0063   YZ=             -0.0125

 Normal termination of Gaussian 16 at Fri Sep 22 11:11:03 2023.
