 Gaussian 16, Revision A.03,
 Gaussian 16:  ES64L-G16RevA.03 25-Dec-2016

 ----------------
 # 6-31g(d) wb97x
 ----------------

 ----------------------
 tmpdir/M1_conf_0_7.gjf
 ----------------------
 Symbolic Z-matrix:
 Charge =  0 Multiplicity = 1

                         Standard orientation:
 ---------------------------------------------------------------------
 Center     Atomic      Atomic             Coordinates (Angstroms)
 Number     Number       Type             X           Y           Z
 ---------------------------------------------------------------------
      1          6           0        0.000613    0.014391   -0.001917
      2          1           0       -0.197402   -0.680500   -0.829871
      3          1           0       -0.123450   -0.579992    0.914641
      4          1           0        1.086914    0.375841   -0.057790
      5          1           0       -0.769742    0.798308   -0.015479
 ---------------------------------------------------------------------

 SCF Done:  E(RwB97X) =  -40.4965097375     A.U. after   11 cycles

 The electronic state is 1-A.
 Alpha  occ. eigenvalues --  -10.25655  -0.81315  -0.50011  -0.48803  -0.48656
 Alpha virt. eigenvalues --    0.21033   0.26366   0.27176   0.27429   0.63818
 Alpha virt. eigenvalues --    0.63988   0.66103   0.98322   1.00773   1.01507
 Alpha virt. eigenvalues --    1.05895   1.20486   1.75989   1.76287   2.28285

 Mulliken charges:
               1
     1  C   -0.660752
     2  H    0.165977
     3  H    0.165501
     4  H    0.159166
     5  H    0.170109
 Sum of Mulliken charges =  -0.00000

 Dipole moment (field-independent basis, Debye):
    X=             -0.0456    Y=             -0.0703    Z=              0.0098  Tot=              0.0844
 Quadrupole moment (field-independent basis, Debye-Ang):
   XX=             -8.0692   YY=             -8.3677   ZZ=             -8.4601
   XY=             -0.0420   XZ=              0.0047   YZ=              0.0027

 Normal termination of Gaussian 16 at Fri Sep 22 11:10:36 2023.
