 Gaussian 16, Revision A.03,
 Gaussian 16:  ES64L-G16RevA.03 25-Dec-2016

 ----------------
 # 6-31g(d) wb97x
 ----------------

 ----------------------
 tmpdir/M1_conf_2_6.gjf
 ----------------------
 Symbolic Z-matrix:
 Charge =  0 Multiplicity = 1

                         Standard orientation:
 ---------------------------------------------------------------------
 Center     Atomic      Atomic             Coordinates (Angstroms)
 Number     Number       Type             X           Y           Z
 ---------------------------------------------------------------------
      1          7           0        0.006453   -0.004466   -0.031357
      2          1           0       -0.696393   -0.723528    0.072798
      3          1           0       -0.339942    0.940403    0.070089
      4          1           0        0.991163   -0.185616    0.076616
 ---------------------------------------------------------------------

 SCF Done:  E(RwB97X) =  -56.5203696326     A.U. after   13 cycles

 The electronic state is 1-A.
 Alpha  occ. eigenvalues --  -14.36579  -0.94606  -0.58117  -0.56504  -0.32414
 Alpha virt. eigenvalues --    0.19035   0.28387   0.28738   0.81069   0.83736
 Alpha virt. eigenvalues --    0.84896   0.92077   1.05477   1.06501   1.20470
 Alpha virt. eigenvalues --    1.80826   1.81679   2.26478   2.43431   2.48472

 Mulliken charges:
               1
     1  N   -0.983547
     2  H    0.327274
     3  H    0.323700
     4  H    0.332572
 Sum of Mulliken charges =  -0.00000

 Dipole moment (field-independent basis, Debye):
    X=             -0.0508    Y=              0.0359    Z=              0.6072  Tot=              0.6104
 Quadrupole moment (field-independent basis, Debye-Ang):
   XX=             -5.2984   YY=             -5.6479   ZZ=             -9.2870
   XY=             -0.0002   XZ=              0.0077   YZ=             -0.0052

 Normal termination of Gaussian 16 at Fri Sep 22 11:11:05 2023.
