 Gaussian 16, Revision A.03,
 Gaussian 16:  ES64L-G16RevA.03 25-Dec-2016

 ----------------
 # 6-31g(d) wb97x
 ----------------

 -----------------------
 tmpdir/M1_conf_2_12.gjf
 -----------------------
 Symbolic Z-matrix:
 Charge =  0 Multiplicity = 1

                         Standard orientation:
 ---------------------------------------------------------------------
 Center     Atomic      Atomic             Coordinates (Angstroms)
 Number     Number       Type             X           Y           Z
 ---------------------------------------------------------------------
      1          7           0        0.004807   -0.019826   -0.008439
      2          1           0       -0.221290    0.968776    0.016863
      3          1           0        0.966217   -0.247115    0.021138
      4          1           0       -0.778577   -0.582876    0.021075
 ---------------------------------------------------------------------

 SCF Done:  E(RwB97X) =  -56.5156182498     A.U. after   12 cycles

 The electronic state is 1-A.
 Alpha  occ. eigenvalues --  -14.35950  -0.95303  -0.60182  -0.55947  -0.32346
 Alpha virt. eigenvalues --    0.19716   0.28356   0.29804   0.78172   0.83767
 Alpha virt. eigenvalues --    0.88038   0.93524   1.05534   1.10378   1.21413
 Alpha virt. eigenvalues --    1.80103   1.82209   2.29452   2.39409   2.54861

 Mulliken charges:
               1
     1  N   -0.990179
     2  H    0.315861
     3  H    0.338067
     4  H    0.336251
 Sum of Mulliken charges =   0.00000

 Dipole moment (field-independent basis, Debye):
    X=             -0.0357    Y=              0.1555    Z=              0.1684  Tot=              0.2320
 Quadrupole moment (field-independent basis, Debye-Ang):
   XX=             -5.1155   YY=             -5.7989   ZZ=             -9.2543
   XY=              0.0401   XZ=              0.0008   YZ=             -0.0077

 Normal termination of Gaussian 16 at Fri Sep 22 11:11:07 2023.
