 Gaussian 16, Revision A.03,
 Gaussian 16:  ES64L-G16RevA.03 25-Dec-2016

 ----------------
 # 6-31g(d) wb97x
 ----------------

 ----------------------
 tmpdir/M1_conf_2_9.gjf
 ----------------------
 Symbolic Z-matrix:
 Charge =  0 Multiplicity = 1

                         Standard orientation:
 ---------------------------------------------------------------------
 Center     Atomic      Atomic             Coordinates (Angstroms)
 Number     Number       Type             X           Y           Z
 ---------------------------------------------------------------------
      1          6           0       -0.167111    0.397023   -0.011049
      2          8           0       -1.195216   -0.262947    0.014632
      3          7           0        1.084844   -0.158042   -0.037163
      4          1           0        1.845779    0.458037    0.194373
      5          1           0       -0.192149    1.489893   -0.021546
      6          1           0        1.316856   -1.120201    0.036549
 ---------------------------------------------------------------------

 SCF Done:  E(RwB97X) =  -169.839855421     A.U. after   16 cycles

 The electronic state is 1-A.
 Alpha  occ. eigenvalues --  -19.18234 -14.43812 -10.37627  -1.15479  -1.03525
 Alpha  occ. eigenvalues --   -0.75247  -0.65773  -0.60198  -0.51838  -0.50780
 Alpha  occ. eigenvalues --   -0.37294  -0.35557
 Alpha virt. eigenvalues --    0.12147   0.18030   0.20776   0.27463   0.36466
 Alpha virt. eigenvalues --    0.44303   0.64219   0.65779   0.75176   0.79541
 Alpha virt. eigenvalues --    0.80990   0.83916   0.95438   0.97936   0.99861

 Mulliken charges:
               1
     1  C    0.341181
     2  O   -0.448406
     3  N   -0.735345
     4  H    0.341081
     5  H    0.136576
     6  H    0.364914
 Sum of Mulliken charges =  -0.00000

 Dipole moment (field-independent basis, Debye):
    X=              3.7403    Y=              0.9778    Z=              0.4691  Tot=              3.8944
 Quadrupole moment (field-independent basis, Debye-Ang):
   XX=            -17.4480   YY=            -14.7737   ZZ=            -18.3583
   XY=             -1.4818   XZ=              1.0286   YZ=              0.0853

 Normal termination of Gaussian 16 at Fri Sep 22 11:11:07 2023.
