 Gaussian 16, Revision A.03,
 Gaussian 16:  ES64L-G16RevA.03 25-Dec-2016

 ----------------
 # 6-31g(d) wb97x
 ----------------

 ----------------------
 tmpdir/M1_conf_2_1.gjf
 ----------------------
 Symbolic Z-matrix:
 Charge =  0 Multiplicity = 1

                         Standard orientation:
 ---------------------------------------------------------------------
 Center     Atomic      Atomic             Coordinates (Angstroms)
 Number     Number       Type             X           Y           Z
 ---------------------------------------------------------------------
      1          6           0       -0.000409   -0.004798   -0.004417
      2          1           0        0.021711    0.777001   -0.769619
      3          1           0        0.259980    0.474848    0.954400
      4          1           0        0.767921   -0.782926   -0.218817
      5          1           0       -1.047158   -0.440138    0.060538
 ---------------------------------------------------------------------

 SCF Done:  E(RwB97X) =  -40.4977244277     A.U. after   11 cycles

 The electronic state is 1-A.
 Alpha  occ. eigenvalues --  -10.25697  -0.81245  -0.49559  -0.49072  -0.48841
 Alpha virt. eigenvalues --    0.21098   0.26589   0.26941   0.27379   0.63884
 Alpha virt. eigenvalues --    0.64453   0.65523   0.99237   1.00333   1.01244
 Alpha virt. eigenvalues --    1.05159   1.20267   1.76053   1.76226   2.30118

 Mulliken charges:
               1
     1  C   -0.659221
     2  H    0.168772
     3  H    0.165255
     4  H    0.165194
     5  H    0.160001
 Sum of Mulliken charges =   0.00000

 Dipole moment (field-independent basis, Debye):
    X=              0.0248    Y=              0.0458    Z=              0.0107  Tot=              0.0532
 Quadrupole moment (field-independent basis, Debye-Ang):
   XX=             -8.1862   YY=             -8.3018   ZZ=             -8.4133
   XY=             -0.0180   XZ=              0.0032   YZ=             -0.0162

 Normal termination of Gaussian 16 at Fri Sep 22 11:11:03 2023.
