 Gaussian 16, Revision A.03,
 Gaussian 16:  ES64L-G16RevA.03 25-Dec-2016

 ----------------
 # 6-31g(d) wb97x
 ----------------

 ----------------------
 tmpdir/M1_conf_1_6.gjf
 ----------------------
 Symbolic Z-matrix:
 Charge =  0 Multiplicity = 1

                         Standard orientation:
 ---------------------------------------------------------------------
 Center     Atomic      Atomic             Coordinates (Angstroms)
 Number     Number       Type             X           Y           Z
 ---------------------------------------------------------------------
      1          7           0        0.008354   -0.004507   -0.026302
      2          1           0       -0.660731   -0.751800    0.060814
      3          1           0       -0.401802    0.912613    0.058383
      4          1           0        1.004052   -0.129261    0.064916
 ---------------------------------------------------------------------

 SCF Done:  E(RwB97X) =  -56.5196771043     A.U. after   12 cycles

 The electronic state is 1-A.
 Alpha  occ. eigenvalues --  -14.36488  -0.94637  -0.58396  -0.56398  -0.32351
 Alpha virt. eigenvalues --    0.19104   0.28471   0.28797   0.80571   0.83742
 Alpha virt. eigenvalues --    0.85270   0.92379   1.05671   1.06765   1.20532
 Alpha virt. eigenvalues --    1.80809   1.81849   2.27266   2.42311   2.49266

 Mulliken charges:
               1
     1  N   -0.985752
     2  H    0.327545
     3  H    0.323746
     4  H    0.334462
 Sum of Mulliken charges =   0.00000

 Dipole moment (field-independent basis, Debye):
    X=             -0.0655    Y=              0.0363    Z=              0.5123  Tot=              0.5177
 Quadrupole moment (field-independent basis, Debye-Ang):
   XX=             -5.2285   YY=             -5.6934   ZZ=             -9.2913
   XY=              0.0027   XZ=              0.0077   YZ=             -0.0044

 Normal termination of Gaussian 16 at Fri Sep 22 11:10:50 2023.
