 Gaussian 16, Revision A.03,
 Gaussian 16:  ES64L-G16RevA.03 25-Dec-2016

 ----------------
 # 6-31g(d) wb97x
 ----------------

 ----------------------
 tmpdir/M1_conf_1_7.gjf
 ----------------------
 Symbolic Z-matrix:
 Charge =  0 Multiplicity = 1

                         Standard orientation:
 ---------------------------------------------------------------------
 Center     Atomic      Atomic             Coordinates (Angstroms)
 Number     Number       Type             X           Y           Z
 ---------------------------------------------------------------------
      1          6           0        0.004261    0.008594   -0.002813
      2          1           0       -0.249064   -0.702277   -0.799955
      3          1           0       -0.173791   -0.518804    0.944487
      4          1           0        1.093378    0.306681   -0.069229
      5          1           0       -0.696091    0.862837   -0.058424
 ---------------------------------------------------------------------

 SCF Done:  E(RwB97X) =  -40.4978094913     A.U. after   11 cycles

 The electronic state is 1-A.
 Alpha  occ. eigenvalues --  -10.25547  -0.81356  -0.49681  -0.49106  -0.48844
 Alpha virt. eigenvalues --    0.21177   0.26770   0.27213   0.27233   0.63841
 Alpha virt. eigenvalues --    0.64183   0.65564   0.99461   1.00951   1.01036
 Alpha virt. eigenvalues --    1.05783   1.20469   1.76020   1.76129   2.30096

 Mulliken charges:
               1
     1  C   -0.661321
     2  H    0.166634
     3  H    0.165754
     4  H    0.162127
     5  H    0.166807
 Sum of Mulliken charges =  -0.00000

 Dipole moment (field-independent basis, Debye):
    X=             -0.0414    Y=             -0.0481    Z=              0.0128  Tot=              0.0647
 Quadrupole moment (field-independent basis, Debye-Ang):
   XX=             -8.1218   YY=             -8.3300   ZZ=             -8.4235
   XY=             -0.0128   XZ=              0.0040   YZ=              0.0040

 Normal termination of Gaussian 16 at Fri Sep 22 11:10:51 2023.
