 Gaussian 16, Revision A.03,
 Gaussian 16:  ES64L-G16RevA.03 25-Dec-2016

 ----------------
 # 6-31g(d) wb97x
 ----------------

 ----------------------
 tmpdir/M1_conf_2_5.gjf
 ----------------------
 Symbolic Z-matrix:
 Charge =  0 Multiplicity = 1

                         Standard orientation:
 ---------------------------------------------------------------------
 Center     Atomic      Atomic             Coordinates (Angstroms)
 Number     Number       Type             X           Y           Z
 ---------------------------------------------------------------------
      1          6           0       -0.001567    0.000667   -0.000116
      2          1           0       -0.279147   -0.601436    0.871428
      3          1           0       -0.785261   -0.144532   -0.769825
      4          1           0        0.055466    1.076930    0.268465
      5          1           0        1.018345   -0.334966   -0.369372
 ---------------------------------------------------------------------

 SCF Done:  E(RwB97X) =  -40.4978886878     A.U. after   11 cycles

 The electronic state is 1-A.
 Alpha  occ. eigenvalues --  -10.25720  -0.81218  -0.49650  -0.49269  -0.48543
 Alpha virt. eigenvalues --    0.21111   0.26400   0.27051   0.27410   0.63950
 Alpha virt. eigenvalues --    0.64578   0.65379   0.99104   1.00648   1.01227
 Alpha virt. eigenvalues --    1.04735   1.20093   1.75954   1.76471   2.30666

 Mulliken charges:
               1
     1  C   -0.658712
     2  H    0.168651
     3  H    0.165824
     4  H    0.165235
     5  H    0.159003
 Sum of Mulliken charges =   0.00000

 Dipole moment (field-independent basis, Debye):
    X=             -0.0239    Y=             -0.0038    Z=              0.0207  Tot=              0.0318
 Quadrupole moment (field-independent basis, Debye-Ang):
   XX=             -8.2154   YY=             -8.2820   ZZ=             -8.4077
   XY=              0.0230   XZ=              0.0147   YZ=             -0.0209

 Normal termination of Gaussian 16 at Fri Sep 22 11:11:03 2023.
