 Gaussian 16, Revision A.03,
 Gaussian 16:  ES64L-G16RevA.03 25-Dec-2016

 ----------------
 # 6-31g(d) wb97x
 ----------------

 -----------------------
 tmpdir/M1_conf_0_12.gjf
 -----------------------
 Symbolic Z-matrix:
 Charge =  0 Multiplicity = 1

                         Standard orientation:
 ---------------------------------------------------------------------
 Center     Atomic      Atomic             Coordinates (Angstroms)
 Number     Number       Type             X           Y           Z
 ---------------------------------------------------------------------
      1          7           0       -0.011524   -0.013469   -0.000142
      2          1           0        0.416236    0.899302    0.000293
      3          1           0       -0.972145   -0.085190    0.000361
      4          1           0        0.636579   -0.719826    0.000342
 ---------------------------------------------------------------------

 SCF Done:  E(RwB97X) =  -56.5147737782     A.U. after   10 cycles

 The electronic state is 1-A.
 Alpha  occ. eigenvalues --  -14.35599  -0.95798  -0.60503  -0.56587  -0.32425
 Alpha virt. eigenvalues --    0.20165   0.28826   0.30140   0.79032   0.83770
 Alpha virt. eigenvalues --    0.86125   0.94312   1.06583   1.11674   1.22110
 Alpha virt. eigenvalues --    1.79911   1.81860   2.30440   2.44148   2.53985

 Mulliken charges:
               1
     1  N   -0.989740
     2  H    0.318714
     3  H    0.338218
     4  H    0.332808
 Sum of Mulliken charges =   0.00000

 Dipole moment (field-independent basis, Debye):
    X=              0.0927    Y=              0.1037    Z=              0.0029  Tot=              0.1391
 Quadrupole moment (field-independent basis, Debye-Ang):
   XX=             -5.1995   YY=             -5.7312   ZZ=             -9.2123
   XY=             -0.0482   XZ=             -0.0001   YZ=             -0.0001

 Normal termination of Gaussian 16 at Fri Sep 22 11:10:37 2023.
