 Gaussian 16, Revision A.03,
 Gaussian 16:  ES64L-G16RevA.03 25-Dec-2016

 ----------------
 # 6-31g(d) wb97x
 ----------------

 --------------------
 tmpdir/M1_ref_12.gjf
 --------------------
 Symbolic Z-matrix:
 Charge =  0 Multiplicity = 1

                         Standard orientation:
 ---------------------------------------------------------------------
 Center     Atomic      Atomic             Coordinates (Angstroms)
 Number     Number       Type             X           Y           Z
 ---------------------------------------------------------------------
      1          7           0        0.007758   -0.022007   -0.000508
      2          1           0       -0.249478    0.953421    0.000990
      3          1           0        0.969759   -0.217924    0.001298
      4          1           0       -0.774589   -0.581451    0.001271
 ---------------------------------------------------------------------

 SCF Done:  E(RwB97X) =  -56.5139521677     A.U. after   10 cycles

 The electronic state is 1-A.
 Alpha  occ. eigenvalues --  -14.35807  -0.95532  -0.60679  -0.55790  -0.32373
 Alpha virt. eigenvalues --    0.19865   0.28431   0.29916   0.77268   0.83764
 Alpha virt. eigenvalues --    0.88752   0.94650   1.05782   1.11165   1.21601
 Alpha virt. eigenvalues --    1.79853   1.82268   2.30219   2.37550   2.57034

 Mulliken charges:
               1
     1  N   -0.991225
     2  H    0.314486
     3  H    0.340301
     4  H    0.336438
 Sum of Mulliken charges =   0.00000

 Dipole moment (field-independent basis, Debye):
    X=             -0.0597    Y=              0.1760    Z=              0.0102  Tot=              0.1861
 Quadrupole moment (field-independent basis, Debye-Ang):
   XX=             -5.0486   YY=             -5.8761   ZZ=             -9.2402
   XY=              0.0413   XZ=              0.0001   YZ=             -0.0005

 Normal termination of Gaussian 16 at Fri Sep 22 11:10:23 2023.
