 Gaussian 16, Revision A.03,
 Gaussian 16:  ES64L-G16RevA.03 25-Dec-2016

 ----------------
 # 6-31g(d) wb97x
 ----------------

 --------------------
 tmpdir/M1_ref_11.gjf
 --------------------
 Symbolic Z-matrix:
 Charge =  0 Multiplicity = 1

                         Standard orientation:
 ---------------------------------------------------------------------
 Center     Atomic      Atomic             Coordinates (Angstroms)
 Number     Number       Type             X           Y           Z
 ---------------------------------------------------------------------
      1          6           0       -0.011141    0.000173   -0.004196
      2          1           0        0.205145   -0.040325    1.066796
      3          1           0        0.469537    0.905223   -0.398583
      4          1           0        0.481223   -0.865965   -0.466340
      5          1           0       -1.089058    0.000027   -0.176699
 ---------------------------------------------------------------------

 SCF Done:  E(RwB97X) =  -40.4990296768     A.U. after   11 cycles

 The electronic state is 1-A.
 Alpha  occ. eigenvalues --  -10.24978  -0.81720  -0.50227  -0.49090  -0.49033
 Alpha virt. eigenvalues --    0.21589   0.27285   0.27370   0.27796   0.63849
 Alpha virt. eigenvalues --    0.64046   0.64472   1.01204   1.01314   1.02434
 Alpha virt. eigenvalues --    1.06940   1.20876   1.75802   1.75887   2.34224

 Mulliken charges:
               1
     1  C   -0.667073
     2  H    0.165783
     3  H    0.165476
     4  H    0.165394
     5  H    0.170420
 Sum of Mulliken charges =  -0.00000

 Dipole moment (field-independent basis, Debye):
    X=              0.0347    Y=             -0.0007    Z=              0.0201  Tot=              0.0401
 Quadrupole moment (field-independent basis, Debye-Ang):
   XX=             -8.1072   YY=             -8.3167   ZZ=             -8.3484
   XY=              0.0002   XZ=              0.0088   YZ=             -0.0005

 Normal termination of Gaussian 16 at Fri Sep 22 11:10:22 2023.
