 Gaussian 16, Revision A.03,
 Gaussian 16:  ES64L-G16RevA.03 25-Dec-2016

 ----------------
 # 6-31g(d) wb97x
 ----------------

 --------------------
 tmpdir/M1_ref_14.gjf
 --------------------
 Symbolic Z-matrix:
 Charge =  0 Multiplicity = 1

                         Standard orientation:
 ---------------------------------------------------------------------
 Center     Atomic      Atomic             Coordinates (Angstroms)
 Number     Number       Type             X           Y           Z
 ---------------------------------------------------------------------
      1          6           0       -1.239223    0.602210   -0.006958
      2          6           0       -0.079158    1.377404    0.000296
      3          1           0       -0.137609    2.460902    0.005758
      4          6           0        1.151594    0.738336    0.002856
      5          1           0        2.069994    1.317989    0.014740
      6          6           0        1.179832   -0.652495   -0.003436
      7          1           0        2.128843   -1.187106   -0.006587
      8          7           0        0.083308   -1.414339   -0.000530
      9          6           0       -1.091446   -0.786835    0.000499
     10          1           0       -1.967644   -1.434058    0.031986
     11          1           0       -2.206343    1.070924   -0.001729
 ---------------------------------------------------------------------

 SCF Done:  E(RwB97X) =  -248.212746265     A.U. after   14 cycles

 The electronic state is 1-A.
 Alpha  occ. eigenvalues --  -14.40612 -10.30650 -10.30630 -10.29434 -10.28295
 Alpha  occ. eigenvalues --  -10.28235  -1.07225  -0.93413  -0.88961  -0.75059
 Alpha  occ. eigenvalues --   -0.74652  -0.64534  -0.58706  -0.58229  -0.53565
 Alpha  occ. eigenvalues --   -0.51219  -0.50894  -0.46287  -0.38129  -0.35519
 Alpha  occ. eigenvalues --   -0.35257
 Alpha virt. eigenvalues --    0.06350   0.07631   0.19046   0.23917   0.25538
 Alpha virt. eigenvalues --    0.25711   0.27738   0.27952   0.33787   0.39384
 Alpha virt. eigenvalues --    0.41908   0.42247   0.55587   0.56072   0.62055

 Mulliken charges:
               1
     1  C   -0.178081
     2  C   -0.134215
     3  H    0.175099
     4  C   -0.176718
     5  H    0.170821
     6  C    0.013444
     7  H    0.168904
     8  N   -0.392959
     9  C    0.013520
    10  H    0.167781
    11  H    0.172403
 Sum of Mulliken charges =  -0.00000

 Dipole moment (field-independent basis, Debye):
    X=             -0.1265    Y=              2.2457    Z=              0.0243  Tot=              2.2494
 Quadrupole moment (field-independent basis, Debye-Ang):
   XX=            -28.8429   YY=            -35.4698   ZZ=            -37.0412
   XY=              0.3480   XZ=             -0.0375   YZ=              0.0059

 Normal termination of Gaussian 16 at Fri Sep 22 11:10:32 2023.
