 Gaussian 16, Revision A.03,
 Gaussian 16:  ES64L-G16RevA.03 25-Dec-2016

 ----------------
 # 6-31g(d) wb97x
 ----------------

 --------------------
 tmpdir/M1_ref_10.gjf
 --------------------
 Symbolic Z-matrix:
 Charge =  0 Multiplicity = 1

                         Standard orientation:
 ---------------------------------------------------------------------
 Center     Atomic      Atomic             Coordinates (Angstroms)
 Number     Number       Type             X           Y           Z
 ---------------------------------------------------------------------
      1          6           0       -1.347780    0.356697   -0.005534
      2          6           0       -0.370397    1.351476    0.000888
      3          1           0       -0.647621    2.392727    0.007575
      4          6           0       -0.986306   -0.988476   -0.000789
      5          1           0       -1.748392   -1.764994   -0.008200
      6          6           0        0.359304   -1.328691    0.003133
      7          1           0        0.641524   -2.379404    0.005560
      8          6           0        1.362016   -0.367182   -0.000495
      9          6           0        0.979524    0.991527   -0.000988
     10          1           0       -2.433778    0.592871    0.020896
     11          1           0        2.412666   -0.663483   -0.001411
     12          1           0        1.797440    1.730172   -0.001717
 ---------------------------------------------------------------------

 SCF Done:  E(RwB97X) =  -232.176801587     A.U. after   14 cycles

 The electronic state is 1-A.
 Alpha  occ. eigenvalues --  -10.27594 -10.27498 -10.27310 -10.27292 -10.27067
 Alpha  occ. eigenvalues --  -10.26970  -0.98080  -0.86996  -0.86833  -0.71786
 Alpha  occ. eigenvalues --   -0.71626  -0.63402  -0.56760  -0.54763  -0.52399
 Alpha  occ. eigenvalues --   -0.52166  -0.47541  -0.44172  -0.43414  -0.33944
 Alpha  occ. eigenvalues --   -0.33736
 Alpha virt. eigenvalues --    0.08567   0.08893   0.18367   0.24085   0.24466
 Alpha virt. eigenvalues --    0.27161   0.27846   0.28154   0.29221   0.39518
 Alpha virt. eigenvalues --    0.40326   0.41161   0.42143   0.57488   0.63237

 Mulliken charges:
               1
     1  C   -0.164847
     2  C   -0.156459
     3  H    0.162788
     4  C   -0.152985
     5  H    0.161776
     6  C   -0.161497
     7  H    0.154735
     8  C   -0.155881
     9  C   -0.168143
    10  H    0.158411
    11  H    0.163702
    12  H    0.158400
 Sum of Mulliken charges =   0.00000

 Dipole moment (field-independent basis, Debye):
    X=              0.0167    Y=             -0.0369    Z=              0.0150  Tot=              0.0432
 Quadrupole moment (field-independent basis, Debye-Ang):
   XX=            -30.8594   YY=            -31.2855   ZZ=            -38.9123
   XY=              0.0545   XZ=             -0.0415   YZ=              0.0283

 Normal termination of Gaussian 16 at Fri Sep 22 11:10:31 2023.
