 Gaussian 16, Revision A.03,
 Gaussian 16:  ES64L-G16RevA.03 25-Dec-2016

 ----------------
 # 6-31g(d) wb97x
 ----------------

 -------------------
 tmpdir/M1_ref_2.gjf
 -------------------
 Symbolic Z-matrix:
 Charge =  0 Multiplicity = 1

                         Standard orientation:
 ---------------------------------------------------------------------
 Center     Atomic      Atomic             Coordinates (Angstroms)
 Number     Number       Type             X           Y           Z
 ---------------------------------------------------------------------
      1          7           0       -0.002478   -0.000060   -0.093773
      2          1           0        0.478638    0.841322    0.216912
      3          1           0       -0.965550   -0.014522    0.222525
      4          1           0        0.504261   -0.826379    0.216971
 ---------------------------------------------------------------------

 SCF Done:  E(RwB97X) =  -56.5280385912     A.U. after   13 cycles

 The electronic state is 1-A.
 Alpha  occ. eigenvalues --  -14.37566  -0.96070  -0.56750  -0.56325  -0.34546
 Alpha virt. eigenvalues --    0.18557   0.27786   0.27941   0.80316   0.80936
 Alpha virt. eigenvalues --    0.83757   0.99717   1.04428   1.04787   1.22206
 Alpha virt. eigenvalues --    1.78880   1.79113   2.13379   2.50708   2.50742

 Mulliken charges:
               1
     1  N   -0.940621
     2  H    0.312827
     3  H    0.314959
     4  H    0.312835
 Sum of Mulliken charges =  -0.00000

 Dipole moment (field-independent basis, Debye):
    X=              0.0222    Y=              0.0006    Z=              1.6410  Tot=              1.6412
 Quadrupole moment (field-independent basis, Debye-Ang):
   XX=             -5.8257   YY=             -5.8932   ZZ=             -9.0027
   XY=              0.0003   XZ=             -0.0086   YZ=             -0.0001

 Normal termination of Gaussian 16 at Fri Sep 22 11:10:19 2023.
