 Gaussian 16, Revision A.03,
 Gaussian 16:  ES64L-G16RevA.03 25-Dec-2016

 ----------------
 # 6-31g(d) wb97x
 ----------------

 --------------------
 tmpdir/M1_ref_13.gjf
 --------------------
 Symbolic Z-matrix:
 Charge =  0 Multiplicity = 1

                         Standard orientation:
 ---------------------------------------------------------------------
 Center     Atomic      Atomic             Coordinates (Angstroms)
 Number     Number       Type             X           Y           Z
 ---------------------------------------------------------------------
      1          6           0       -1.266439   -0.354376    0.005528
      2          7           0       -0.367739   -1.335608    0.000365
      3          7           0       -1.005916    0.967715   -0.004420
      4          6           0        0.278245    1.294374   -0.002984
      5          1           0        0.498988    2.361196   -0.000274
      6          6           0        1.306489    0.358732    0.001889
      7          1           0        2.345031    0.666009    0.033261
      8          6           0        0.924575   -0.980852   -0.005844
      9          1           0       -2.323440   -0.574401    0.012566
     10          1           0        1.637781   -1.784825   -0.008704
 ---------------------------------------------------------------------

 SCF Done:  E(RwB97X) =  -264.249266765     A.U. after   14 cycles

 The electronic state is 1-A.
 Alpha  occ. eigenvalues --  -14.42149 -14.41968 -10.34310 -10.33170 -10.32882
 Alpha  occ. eigenvalues --  -10.29632  -1.12150  -1.02117  -0.92733  -0.78313
 Alpha  occ. eigenvalues --   -0.78100  -0.66059  -0.62561  -0.58430  -0.54459
 Alpha  occ. eigenvalues --   -0.53205  -0.52019  -0.41599  -0.40816  -0.38154
 Alpha  occ. eigenvalues --   -0.35400
 Alpha virt. eigenvalues --    0.04528   0.05644   0.19788   0.23793   0.24814
 Alpha virt. eigenvalues --    0.25326   0.26827   0.33014   0.33807   0.42380
 Alpha virt. eigenvalues --    0.43481   0.48086   0.51324   0.60617   0.65346

 Mulliken charges:
               1
     1  C    0.149287
     2  N   -0.382492
     3  N   -0.379629
     4  C    0.032638
     5  H    0.181362
     6  C   -0.193787
     7  H    0.184318
     8  C    0.033228
     9  H    0.187304
    10  H    0.187772
 Sum of Mulliken charges =  -0.00000

 Dipole moment (field-independent basis, Debye):
    X=              2.2231    Y=              0.5735    Z=              0.0272  Tot=              2.2960
 Quadrupole moment (field-independent basis, Debye-Ang):
   XX=            -30.3799   YY=            -36.0699   ZZ=            -35.2859
   XY=              1.4872   XZ=              0.0269   YZ=              0.0382

 Normal termination of Gaussian 16 at Fri Sep 22 11:10:31 2023.
