 Gaussian 16, Revision A.03,
 Gaussian 16:  ES64L-G16RevA.03 25-Dec-2016

 ----------------
 # 6-31g(d) wb97x
 ----------------

 -------------------
 tmpdir/M1_ref_8.gjf
 -------------------
 Symbolic Z-matrix:
 Charge =  0 Multiplicity = 1

                         Standard orientation:
 ---------------------------------------------------------------------
 Center     Atomic      Atomic             Coordinates (Angstroms)
 Number     Number       Type             X           Y           Z
 ---------------------------------------------------------------------
      1          6           0        1.337066   -0.427367   -0.004012
      2          6           0        1.028565    0.933818   -0.000474
      3          1           0        1.843119    1.653371    0.001739
      4          6           0       -0.294151    1.358834   -0.004830
      5          1           0       -0.506242    2.425565    0.035042
      6          6           0        0.293528   -1.353335   -0.004057
      7          1           0        0.520665   -2.417766   -0.012066
      8          6           0       -1.029848   -0.932384    0.007422
      9          1           0       -1.846759   -1.648288    0.019872
     10          6           0       -1.335781    0.427845   -0.007526
     11          1           0        2.381029   -0.760428    0.034264
     12          1           0       -2.388088    0.703074    0.002005
 ---------------------------------------------------------------------

 SCF Done:  E(RwB97X) =  -232.177882282     A.U. after   13 cycles

 The electronic state is 1-A.
 Alpha  occ. eigenvalues --  -10.27302 -10.27258 -10.27209 -10.27114 -10.27103
 Alpha  occ. eigenvalues --  -10.27008  -0.98168  -0.87056  -0.86900  -0.71933
 Alpha  occ. eigenvalues --   -0.71609  -0.63502  -0.56846  -0.54804  -0.52395
 Alpha  occ. eigenvalues --   -0.52237  -0.47590  -0.44222  -0.43490  -0.33894
 Alpha  occ. eigenvalues --   -0.33811
 Alpha virt. eigenvalues --    0.08632   0.08938   0.18515   0.24294   0.24506
 Alpha virt. eigenvalues --    0.27255   0.27923   0.28482   0.29281   0.39893
 Alpha virt. eigenvalues --    0.40363   0.41276   0.42079   0.57531   0.63214

 Mulliken charges:
               1
     1  C   -0.159203
     2  C   -0.160318
     3  H    0.159120
     4  C   -0.160571
     5  H    0.159476
     6  C   -0.160576
     7  H    0.157722
     8  C   -0.157806
     9  H    0.159105
    10  C   -0.160330
    11  H    0.161894
    12  H    0.161488
 Sum of Mulliken charges =  -0.00000

 Dipole moment (field-independent basis, Debye):
    X=             -0.0055    Y=             -0.0152    Z=              0.0543  Tot=              0.0566
 Quadrupole moment (field-independent basis, Debye-Ang):
   XX=            -30.8372   YY=            -31.3065   ZZ=            -38.8533
   XY=              0.0814   XZ=              0.0190   YZ=              0.0556

 Normal termination of Gaussian 16 at Fri Sep 22 11:10:30 2023.
