 Gaussian 16, Revision A.03,
 Gaussian 16:  ES64L-G16RevA.03 25-Dec-2016

 ----------------
 # 6-31g(d) wb97x
 ----------------

 -----------------------
 tmpdir/M2_conf_0_76.gjf
 -----------------------
 Symbolic Z-matrix:
 Charge =  0 Multiplicity = 1

                         Standard orientation:
 ---------------------------------------------------------------------
 Center     Atomic      Atomic             Coordinates (Angstroms)
 Number     Number       Type             X           Y           Z
 ---------------------------------------------------------------------
      1          6           0        0.693499   -0.008798    0.001011
      2          6           0       -0.695786   -0.008345   -0.005462
      3          1           0       -1.234817    0.936720    0.020895
      4          1           0        1.207156   -0.878723    0.010687
      5          1           0        1.249252    0.925225   -0.008137
      6          1           0       -1.207866   -0.880364    0.003263
 ---------------------------------------------------------------------

 SCF Done:  E(RwB97X) =  -78.5443297764     A.U. after   12 cycles

 The electronic state is 1-A.
 Alpha  occ. eigenvalues --  -10.26653 -10.26582  -0.87775  -0.71031  -0.58385
 Alpha  occ. eigenvalues --   -0.51096  -0.47231  -0.35699
 Alpha virt. eigenvalues --    0.10017   0.22324   0.26247   0.26981   0.35065
 Alpha virt. eigenvalues --    0.41044   0.59742   0.66017   0.66582   0.74643
 Alpha virt. eigenvalues --    0.75721   0.77848   0.99867   1.00333   1.08465

 Mulliken charges:
               1
     1  C   -0.332958
     2  C   -0.332679
     3  H    0.162277
     4  H    0.170222
     5  H    0.162237
     6  H    0.170900
 Sum of Mulliken charges =  -0.00000

 Dipole moment (field-independent basis, Debye):
    X=              0.0068    Y=             -0.0431    Z=              0.0256  Tot=              0.0506
 Quadrupole moment (field-independent basis, Debye-Ang):
   XX=            -11.8526   YY=            -11.9248   ZZ=            -15.1113
   XY=              0.0137   XZ=             -0.0274   YZ=             -0.0003

 Normal termination of Gaussian 16 at Wed Jun  5 16:59:44 2019.
