 Gaussian 16, Revision A.03,
 Gaussian 16:  ES64L-G16RevA.03 25-Dec-2016

 ----------------
 # 6-31g(d) wb97x
 ----------------

 ------------------------
 tmpdir/M2_conf_2_170.gjf
 ------------------------
 Symbolic Z-matrix:
 Charge =  0 Multiplicity = 1

                         Standard orientation:
 ---------------------------------------------------------------------
 Center     Atomic      Atomic             Coordinates (Angstroms)
 Number     Number       Type             X           Y           Z
 ---------------------------------------------------------------------
      1          6           0        0.746565    0.476629   -0.006094
      2          6           0       -0.654501    0.501823   -0.001385
      3          1           0        1.331279    1.378329   -0.001516
      4          6           0        1.372446   -0.770371    0.004939
      5          6           0       -1.488294   -0.679696   -0.001736
      6          1           0       -1.188573    1.451362    0.027173
 ---------------------------------------------------------------------

 SCF Done:  E(RwB97X) =  -153.239553525     A.U. after   20 cycles

 The electronic state is 1-A.
 Alpha  occ. eigenvalues --  -10.36973 -10.36498 -10.31833 -10.31172  -0.97274
 Alpha  occ. eigenvalues --   -0.84063  -0.71865  -0.60823  -0.59131  -0.46201
 Alpha  occ. eigenvalues --   -0.42489  -0.40154  -0.32912
 Alpha virt. eigenvalues --   -0.03270   0.00183   0.02043   0.16132   0.21094
 Alpha virt. eigenvalues --    0.25002   0.33823   0.45377   0.46792   0.58967
 Alpha virt. eigenvalues --    0.61092   0.62378   0.66131   0.66624   0.69173

 Mulliken charges:
               1
     1  C   -0.254218
     2  C   -0.293538
     3  H    0.234259
     4  C    0.037814
     5  C    0.044104
     6  H    0.231579
 Sum of Mulliken charges =   0.00000

 Dipole moment (field-independent basis, Debye):
    X=              0.3527    Y=              3.3073    Z=              0.0248  Tot=              3.3262
 Quadrupole moment (field-independent basis, Debye-Ang):
   XX=            -24.4005   YY=            -23.3718   ZZ=            -25.6125
   XY=              0.0044   XZ=             -0.0870   YZ=              0.0727

 Normal termination of Gaussian 16 at Wed Jun  5 17:04:47 2019.
