 Gaussian 16, Revision A.03,
 Gaussian 16:  ES64L-G16RevA.03 25-Dec-2016

 ----------------
 # 6-31g(d) wb97x
 ----------------

 ------------------------
 tmpdir/M2_conf_0_185.gjf
 ------------------------
 Symbolic Z-matrix:
 Charge =  0 Multiplicity = 1

                         Standard orientation:
 ---------------------------------------------------------------------
 Center     Atomic      Atomic             Coordinates (Angstroms)
 Number     Number       Type             X           Y           Z
 ---------------------------------------------------------------------
      1          6           0        0.635172    0.491739    0.001448
      2          7           0       -0.708485    0.541988   -0.001634
      3          8           0        1.275753   -0.554064   -0.000667
      4          1           0        1.145883    1.453785    0.001441
      5          8           0       -1.275443   -0.470702    0.000830
 ---------------------------------------------------------------------

 SCF Done:  E(RwB97X) =  -243.700596567     A.U. after   24 cycles

 The electronic state is 1-A.
 Alpha  occ. eigenvalues --  -19.32007 -19.27176 -14.54101 -10.40700  -1.36650
 Alpha  occ. eigenvalues --   -1.20954  -0.96264  -0.72246  -0.67998  -0.63713
 Alpha  occ. eigenvalues --   -0.62076  -0.55518  -0.51430  -0.42969  -0.35042
 Alpha virt. eigenvalues --   -0.06651   0.11533   0.21781   0.30440   0.38010
 Alpha virt. eigenvalues --    0.49152   0.59375   0.64419   0.71364   0.77797
 Alpha virt. eigenvalues --    0.79401   0.80055   0.84619   0.90376   0.93855

 Mulliken charges:
               1
     1  C    0.283709
     2  N    0.037568
     3  O   -0.314294
     4  H    0.183000
     5  O   -0.189983
 Sum of Mulliken charges =   0.00000

 Dipole moment (field-independent basis, Debye):
    X=              0.6194    Y=              1.8486    Z=              0.0082  Tot=              1.9496
 Quadrupole moment (field-independent basis, Debye-Ang):
   XX=            -24.5319   YY=            -21.9018   ZZ=            -19.5902
   XY=              2.8221   XZ=             -0.0064   YZ=              0.0141

 Normal termination of Gaussian 16 at Wed Jun  5 17:00:41 2019.
