 Gaussian 16, Revision A.03,
 Gaussian 16:  ES64L-G16RevA.03 25-Dec-2016

 ----------------
 # 6-31g(d) wb97x
 ----------------

 ------------------------
 tmpdir/M2_conf_0_139.gjf
 ------------------------
 Symbolic Z-matrix:
 Charge =  0 Multiplicity = 1

                         Standard orientation:
 ---------------------------------------------------------------------
 Center     Atomic      Atomic             Coordinates (Angstroms)
 Number     Number       Type             X           Y           Z
 ---------------------------------------------------------------------
      1          6           0       -0.842038   -0.632996   -0.000823
      2          6           0        0.370236    0.061469   -0.000642
      3          7           0        1.631788   -0.550385    0.001927
      4          8           0       -1.899958   -0.006523    0.003171
      5          1           0       -0.842668   -1.710483   -0.004771
      6          8           0        0.388559    1.305728   -0.004150
      7          1           0        2.428117    0.068122    0.033487
      8          1           0        1.914044   -1.469426   -0.025593
 ---------------------------------------------------------------------

 SCF Done:  E(RwB97X) =  -283.102385072     A.U. after   18 cycles

 The electronic state is 1-A.
 Alpha  occ. eigenvalues --  -19.24835 -19.20045 -14.44873 -10.39528 -10.38102
 Alpha  occ. eigenvalues --   -1.20253  -1.15712  -1.04069  -0.86246  -0.71255
 Alpha  occ. eigenvalues --   -0.67515  -0.63610  -0.56448  -0.56192  -0.53107
 Alpha  occ. eigenvalues --   -0.47782  -0.39386  -0.37966  -0.37298
 Alpha virt. eigenvalues --   -0.01025   0.17126   0.17921   0.22118   0.23795
 Alpha virt. eigenvalues --    0.30103   0.36223   0.45041   0.52046   0.60003
 Alpha virt. eigenvalues --    0.60311   0.71303   0.71742   0.75187   0.78265

 Mulliken charges:
               1
     1  C    0.175589
     2  C    0.547375
     3  N   -0.804864
     4  O   -0.334385
     5  H    0.154838
     6  O   -0.458323
     7  H    0.369925
     8  H    0.349845
 Sum of Mulliken charges =  -0.00000

 Dipole moment (field-independent basis, Debye):
    X=              3.2552    Y=             -4.2498    Z=             -0.0009  Tot=              5.3532
 Quadrupole moment (field-independent basis, Debye-Ang):
   XX=            -26.2288   YY=            -27.8888   ZZ=            -27.8208
   XY=             -1.1984   XZ=              0.0660   YZ=              0.1124

 Normal termination of Gaussian 16 at Wed Jun  5 17:00:40 2019.
