 Gaussian 16, Revision A.03,
 Gaussian 16:  ES64L-G16RevA.03 25-Dec-2016

 ----------------
 # 6-31g(d) wb97x
 ----------------

 ------------------------
 tmpdir/M2_conf_2_105.gjf
 ------------------------
 Symbolic Z-matrix:
 Charge =  0 Multiplicity = 1

                         Standard orientation:
 ---------------------------------------------------------------------
 Center     Atomic      Atomic             Coordinates (Angstroms)
 Number     Number       Type             X           Y           Z
 ---------------------------------------------------------------------
      1          7           0       -1.181948   -0.196272   -0.021138
      2          6           0        0.066384    0.466653    0.031061
      3          6           0        1.286171   -0.207721   -0.016422
      4          1           0       -1.385660   -1.096421    0.239828
      5          1           0       -1.974977    0.406411   -0.182287
      6          1           0        0.053655    1.473992    0.073299
      7          1           0        1.316423   -1.283376   -0.071813
      8          1           0        2.148862    0.319705    0.001107
 ---------------------------------------------------------------------

 SCF Done:  E(RwB97X) =  -133.879209548     A.U. after   15 cycles

 The electronic state is 1-A.
 Alpha  occ. eigenvalues --  -14.40315 -10.29775 -10.22795  -1.01944  -0.84357
 Alpha  occ. eigenvalues --   -0.71041  -0.62407  -0.58666  -0.49978  -0.47811
 Alpha  occ. eigenvalues --   -0.42414  -0.28101
 Alpha virt. eigenvalues --    0.13498   0.19270   0.24141   0.25753   0.29846
 Alpha virt. eigenvalues --    0.31827   0.42418   0.43905   0.63271   0.66429
 Alpha virt. eigenvalues --    0.68405   0.74835   0.76518   0.78620   0.83490

 Mulliken charges:
               1
     1  N   -0.780935
     2  C    0.063619
     3  C   -0.420821
     4  H    0.347680
     5  H    0.332856
     6  H    0.165716
     7  H    0.139222
     8  H    0.152664
 Sum of Mulliken charges =  -0.00000

 Dipole moment (field-independent basis, Debye):
    X=             -1.6610    Y=              0.2447    Z=              0.2723  Tot=              1.7009
 Quadrupole moment (field-independent basis, Debye-Ang):
   XX=            -15.8471   YY=            -15.7667   ZZ=            -21.9901
   XY=              0.3144   XZ=             -0.1190   YZ=             -0.6483

 Normal termination of Gaussian 16 at Wed Jun  5 17:04:04 2019.
