 Gaussian 16, Revision A.03,
 Gaussian 16:  ES64L-G16RevA.03 25-Dec-2016

 ----------------
 # 6-31g(d) wb97x
 ----------------

 -----------------------
 tmpdir/M2_conf_0_29.gjf
 -----------------------
 Symbolic Z-matrix:
 Charge =  0 Multiplicity = 1

                         Standard orientation:
 ---------------------------------------------------------------------
 Center     Atomic      Atomic             Coordinates (Angstroms)
 Number     Number       Type             X           Y           Z
 ---------------------------------------------------------------------
      1          7           0       -0.740624   -0.000082   -0.114066
      2          6           0        0.701628    0.000085    0.013699
      3          1           0        1.121554   -0.884301   -0.477644
      4          1           0       -1.150798   -0.834865    0.299231
      5          1           0       -1.151612    0.833023    0.302045
      6          1           0        1.038980   -0.001723    1.068357
      7          1           0        1.116480    0.887931   -0.475719
 ---------------------------------------------------------------------

 SCF Done:  E(RwB97X) =  -95.8222568985     A.U. after   14 cycles

 The electronic state is 1-A.
 Alpha  occ. eigenvalues --  -14.38042 -10.27919  -0.99572  -0.77527  -0.59976
 Alpha  occ. eigenvalues --   -0.53872  -0.50706  -0.46797  -0.32267
 Alpha virt. eigenvalues --    0.18553   0.24209   0.25425   0.27741   0.29081
 Alpha virt. eigenvalues --    0.34579   0.66192   0.67337   0.69885   0.85048
 Alpha virt. eigenvalues --    0.87191   0.90124   0.97784   1.03217   1.04420

 Mulliken charges:
               1
     1  N   -0.740791
     2  C   -0.327754
     3  H    0.162628
     4  H    0.308129
     5  H    0.308226
     6  H    0.126964
     7  H    0.162598
 Sum of Mulliken charges =  -0.00000

 Dipole moment (field-independent basis, Debye):
    X=              0.1339    Y=             -0.0022    Z=              1.3538  Tot=              1.3604
 Quadrupole moment (field-independent basis, Debye-Ang):
   XX=            -13.4876   YY=            -12.2185   ZZ=            -15.2491
   XY=             -0.0022   XZ=             -2.0677   YZ=              0.0019

 Normal termination of Gaussian 16 at Wed Jun  5 16:59:31 2019.
