 Gaussian 16, Revision A.03,
 Gaussian 16:  ES64L-G16RevA.03 25-Dec-2016

 ----------------
 # 6-31g(d) wb97x
 ----------------

 -----------------------
 tmpdir/M2_conf_2_71.gjf
 -----------------------
 Symbolic Z-matrix:
 Charge =  0 Multiplicity = 1

                         Standard orientation:
 ---------------------------------------------------------------------
 Center     Atomic      Atomic             Coordinates (Angstroms)
 Number     Number       Type             X           Y           Z
 ---------------------------------------------------------------------
      1          6           0        0.703311    0.507126   -0.005772
      2          6           0       -0.692376    0.503397   -0.001100
      3          1           0       -1.212062    1.457999   -0.004377
      4          1           0        1.256425    1.453357    0.026181
      5          8           0        1.298962   -0.569009    0.000339
      6          8           0       -1.312709   -0.552803    0.002089
 ---------------------------------------------------------------------

 SCF Done:  E(RwB97X) =  -227.738811418     A.U. after   16 cycles

 The electronic state is 1-A.
 Alpha  occ. eigenvalues --  -19.25445 -19.25416 -10.38120 -10.37984  -1.21676
 Alpha  occ. eigenvalues --   -1.17495  -0.87759  -0.69159  -0.66992  -0.58150
 Alpha  occ. eigenvalues --   -0.56314  -0.55230  -0.47877  -0.41059  -0.38138
 Alpha virt. eigenvalues --   -0.03584   0.14242   0.20518   0.23748   0.27274
 Alpha virt. eigenvalues --    0.41412   0.48825   0.58904   0.61610   0.67346
 Alpha virt. eigenvalues --    0.69916   0.77562   0.77840   0.85859   0.92550

 Mulliken charges:
               1
     1  C    0.172916
     2  C    0.183603
     3  H    0.150676
     4  H    0.158295
     5  O   -0.332313
     6  O   -0.333177
 Sum of Mulliken charges =  -0.00000

 Dipole moment (field-independent basis, Debye):
    X=              0.0686    Y=              3.6546    Z=             -0.0047  Tot=              3.6552
 Quadrupole moment (field-independent basis, Debye-Ang):
   XX=            -25.4601   YY=            -21.1690   ZZ=            -20.8132
   XY=              0.1134   XZ=              0.0178   YZ=              0.0082

 Normal termination of Gaussian 16 at Wed Jun  5 17:03:58 2019.
