 Gaussian 16, Revision A.03,
 Gaussian 16:  ES64L-G16RevA.03 25-Dec-2016

 ----------------
 # 6-31g(d) wb97x
 ----------------

 ------------------------
 tmpdir/M2_conf_2_181.gjf
 ------------------------
 Symbolic Z-matrix:
 Charge =  0 Multiplicity = 1

                         Standard orientation:
 ---------------------------------------------------------------------
 Center     Atomic      Atomic             Coordinates (Angstroms)
 Number     Number       Type             X           Y           Z
 ---------------------------------------------------------------------
      1          6           0       -0.690861    0.513020   -0.000799
      2          6           0        0.695938    0.511059   -0.000483
      3          1           0        1.239827    1.451147    0.004552
      4          8           0       -1.285175   -0.563983    0.000589
      5          1           0       -1.240759    1.448459   -0.000445
      6          8           0        1.281484   -0.566526   -0.000140
 ---------------------------------------------------------------------

 SCF Done:  E(RwB97X) =  -227.736203848     A.U. after   14 cycles

 The electronic state is 1-A.
 Alpha  occ. eigenvalues --  -19.25305 -19.25263 -10.37875 -10.37811  -1.21731
 Alpha  occ. eigenvalues --   -1.17242  -0.87833  -0.69272  -0.67202  -0.58064
 Alpha  occ. eigenvalues --   -0.56346  -0.55104  -0.47657  -0.40730  -0.38256
 Alpha virt. eigenvalues --   -0.03570   0.14347   0.20768   0.23874   0.27284
 Alpha virt. eigenvalues --    0.41348   0.49517   0.58885   0.61217   0.67374
 Alpha virt. eigenvalues --    0.69827   0.77695   0.78311   0.86406   0.92804

 Mulliken charges:
               1
     1  C    0.175400
     2  C    0.177438
     3  H    0.156132
     4  O   -0.333729
     5  H    0.156893
     6  O   -0.332134
 Sum of Mulliken charges =  -0.00000

 Dipole moment (field-independent basis, Debye):
    X=              0.0188    Y=              3.7054    Z=             -0.0009  Tot=              3.7055
 Quadrupole moment (field-independent basis, Debye-Ang):
   XX=            -25.2900   YY=            -21.1137   ZZ=            -20.7913
   XY=             -0.0012   XZ=              0.0038   YZ=              0.0014

 Normal termination of Gaussian 16 at Wed Jun  5 17:04:55 2019.
