 Gaussian 16, Revision A.03,
 Gaussian 16:  ES64L-G16RevA.03 25-Dec-2016

 ----------------
 # 6-31g(d) wb97x
 ----------------

 ------------------------
 tmpdir/M2_conf_2_144.gjf
 ------------------------
 Symbolic Z-matrix:
 Charge =  0 Multiplicity = 1

                         Standard orientation:
 ---------------------------------------------------------------------
 Center     Atomic      Atomic             Coordinates (Angstroms)
 Number     Number       Type             X           Y           Z
 ---------------------------------------------------------------------
      1          6           0       -1.020509   -0.433561    0.018744
      2          7           0       -0.033633    0.562383    0.011307
      3          6           0        1.336806    0.469946    0.000211
      4          1           0       -0.805824   -1.421253    0.052021
      5          8           0       -2.201047   -0.041914   -0.019588
      6          1           0       -0.361776    1.516315    0.008288
      7          8           0        1.912472   -0.666296   -0.011710
      8          1           0        1.813853    1.415630   -0.002802
 ---------------------------------------------------------------------

 SCF Done:  E(RwB97X) =  -283.128705105     A.U. after   15 cycles

 The electronic state is 1-A.
 Alpha  occ. eigenvalues --  -19.22348 -19.21955 -14.48537 -10.41070 -10.40612
 Alpha  occ. eigenvalues --   -1.19278  -1.15936  -1.06940  -0.83439  -0.75482
 Alpha  occ. eigenvalues --   -0.67335  -0.64138  -0.56814  -0.55080  -0.53798
 Alpha  occ. eigenvalues --   -0.49144  -0.40579  -0.39029  -0.37500
 Alpha virt. eigenvalues --    0.03078   0.12126   0.16303   0.22881   0.24977
 Alpha virt. eigenvalues --    0.30553   0.33612   0.37623   0.44177   0.58099
 Alpha virt. eigenvalues --    0.58507   0.65818   0.67914   0.72829   0.73766

 Mulliken charges:
               1
     1  C    0.374048
     2  N   -0.581001
     3  C    0.338917
     4  H    0.211601
     5  O   -0.435641
     6  H    0.367685
     7  O   -0.452969
     8  H    0.177361
 Sum of Mulliken charges =  -0.00000

 Dipole moment (field-independent basis, Debye):
    X=              0.7149    Y=              2.4364    Z=              0.1093  Tot=              2.5415
 Quadrupole moment (field-independent basis, Debye-Ang):
   XX=            -39.5627   YY=            -23.2347   ZZ=            -27.7633
   XY=              5.2107   XZ=             -0.1073   YZ=             -0.0648

 Normal termination of Gaussian 16 at Wed Jun  5 17:04:52 2019.
