 Gaussian 16, Revision A.03,
 Gaussian 16:  ES64L-G16RevA.03 25-Dec-2016

 ----------------
 # 6-31g(d) wb97x
 ----------------

 -----------------------
 tmpdir/M2_conf_0_82.gjf
 -----------------------
 Symbolic Z-matrix:
 Charge =  0 Multiplicity = 1

                         Standard orientation:
 ---------------------------------------------------------------------
 Center     Atomic      Atomic             Coordinates (Angstroms)
 Number     Number       Type             X           Y           Z
 ---------------------------------------------------------------------
      1          6           0       -1.414870   -0.474125   -0.002953
      2          6           0       -0.584060    0.646611   -0.005910
      3          6           0        0.794950    0.482494    0.006720
      4          1           0       -2.505052   -0.362722    0.034594
      5          1           0       -0.993658   -1.392419    0.002396
      6          1           0       -1.025161    1.641562   -0.016955
      7          1           0        1.462431    1.339460    0.017222
      8          8           0        1.285665   -0.644469   -0.003049
 ---------------------------------------------------------------------

 SCF Done:  E(RwB97X) =  -191.836687899     A.U. after   15 cycles

 The electronic state is 1-A.
 Alpha  occ. eigenvalues --  -19.20375 -10.35013 -10.30154 -10.28832  -1.15780
 Alpha  occ. eigenvalues --   -0.92224  -0.79511  -0.66577  -0.63350  -0.55450
 Alpha  occ. eigenvalues --   -0.52501  -0.50488  -0.49205  -0.36996  -0.35656
 Alpha virt. eigenvalues --    0.00988   0.17384   0.20248   0.24023   0.26751
 Alpha virt. eigenvalues --    0.30258   0.34949   0.41174   0.46422   0.61998
 Alpha virt. eigenvalues --    0.63108   0.68628   0.68804   0.70418   0.74705

 Mulliken charges:
               1
     1  C   -0.299440
     2  C   -0.196340
     3  C    0.210563
     4  H    0.181957
     5  H    0.214131
     6  H    0.169326
     7  H    0.137316
     8  O   -0.417512
 Sum of Mulliken charges =  -0.00000

 Dipole moment (field-independent basis, Debye):
    X=             -2.1259    Y=              1.7257    Z=              0.0372  Tot=              2.7384
 Quadrupole moment (field-independent basis, Debye-Ang):
   XX=            -23.1098   YY=            -21.8967   ZZ=            -24.3095
   XY=              3.1956   XZ=             -0.0449   YZ=             -0.0287

 Normal termination of Gaussian 16 at Wed Jun  5 16:59:58 2019.
