 Gaussian 16, Revision A.03,
 Gaussian 16:  ES64L-G16RevA.03 25-Dec-2016

 ----------------
 # 6-31g(d) wb97x
 ----------------

 ----------------------
 tmpdir/M2_conf_1_2.gjf
 ----------------------
 Symbolic Z-matrix:
 Charge =  0 Multiplicity = 1

                         Standard orientation:
 ---------------------------------------------------------------------
 Center     Atomic      Atomic             Coordinates (Angstroms)
 Number     Number       Type             X           Y           Z
 ---------------------------------------------------------------------
      1          6           0       -0.769201    0.000962   -0.005175
      2          6           0        0.768869    0.001599    0.004460
      3          1           0       -1.122292   -0.083027   -1.050985
      4          1           0       -1.138144   -0.871720    0.546747
      5          1           0       -1.168753    0.949301    0.496173
      6          1           0        1.137794   -0.894345   -0.509076
      7          1           0        1.121195   -0.041202    1.054602
      8          1           0        1.172191    0.925627   -0.533172
 ---------------------------------------------------------------------

 SCF Done:  E(RwB97X) =  -79.7972702423     A.U. after   12 cycles

 The electronic state is 1-A.
 Alpha  occ. eigenvalues --  -10.26208 -10.26190  -0.87549  -0.72554  -0.54263
 Alpha  occ. eigenvalues --   -0.53869  -0.45741  -0.44137  -0.43848
 Alpha virt. eigenvalues --    0.19248   0.25153   0.25310   0.25926   0.28097
 Alpha virt. eigenvalues --    0.28353   0.33065   0.61827   0.65885   0.65923
 Alpha virt. eigenvalues --    0.73994   0.74809   0.77952   0.97618   0.99115

 Mulliken charges:
               1
     1  C   -0.459141
     2  C   -0.459398
     3  H    0.155305
     4  H    0.157280
     5  H    0.146689
     6  H    0.157078
     7  H    0.154800
     8  H    0.147387
 Sum of Mulliken charges =   0.00000

 Dipole moment (field-independent basis, Debye):
    X=              0.0007    Y=             -0.0853    Z=              0.0008  Tot=              0.0853
 Quadrupole moment (field-independent basis, Debye-Ang):
   XX=            -15.6904   YY=            -14.6923   ZZ=            -14.6605
   XY=              0.0051   XZ=             -0.0509   YZ=             -0.0018

 Normal termination of Gaussian 16 at Wed Jun  5 17:01:30 2019.
