 Gaussian 16, Revision A.03,
 Gaussian 16:  ES64L-G16RevA.03 25-Dec-2016

 ----------------
 # 6-31g(d) wb97x
 ----------------

 -----------------------
 tmpdir/M2_conf_2_78.gjf
 -----------------------
 Symbolic Z-matrix:
 Charge =  0 Multiplicity = 1

                         Standard orientation:
 ---------------------------------------------------------------------
 Center     Atomic      Atomic             Coordinates (Angstroms)
 Number     Number       Type             X           Y           Z
 ---------------------------------------------------------------------
      1          1           0        1.245941    1.441728    0.036338
      2          6           0        0.694567    0.504321   -0.004316
      3          6           0       -0.702427    0.507634   -0.007638
      4          8           0        1.315822   -0.551335   -0.000639
      5          8           0       -1.302992   -0.564783    0.004810
      6          1           0       -1.301431    1.415486    0.002013
 ---------------------------------------------------------------------

 SCF Done:  E(RwB97X) =  -227.738214151     A.U. after   16 cycles

 The electronic state is 1-A.
 Alpha  occ. eigenvalues --  -19.25373 -19.25284 -10.38092 -10.38014  -1.21662
 Alpha  occ. eigenvalues --   -1.17522  -0.87479  -0.69360  -0.67221  -0.58073
 Alpha  occ. eigenvalues --   -0.56290  -0.55120  -0.47871  -0.40922  -0.38113
 Alpha virt. eigenvalues --   -0.03519   0.14239   0.20783   0.23553   0.27291
 Alpha virt. eigenvalues --    0.42003   0.48441   0.58932   0.60974   0.67317
 Alpha virt. eigenvalues --    0.69897   0.77903   0.78352   0.86281   0.92974

 Mulliken charges:
               1
     1  H    0.152967
     2  C    0.180004
     3  C    0.168529
     4  O   -0.331914
     5  O   -0.331340
     6  H    0.161754
 Sum of Mulliken charges =  -0.00000

 Dipole moment (field-independent basis, Debye):
    X=             -0.0679    Y=              3.6563    Z=             -0.0090  Tot=              3.6570
 Quadrupole moment (field-independent basis, Debye-Ang):
   XX=            -25.3108   YY=            -21.2412   ZZ=            -20.8098
   XY=             -0.1211   XZ=              0.0271   YZ=              0.0126

 Normal termination of Gaussian 16 at Wed Jun  5 17:04:17 2019.
