 Gaussian 16, Revision A.03,
 Gaussian 16:  ES64L-G16RevA.03 25-Dec-2016

 ----------------
 # 6-31g(d) wb97x
 ----------------

 -----------------------
 tmpdir/M2_conf_1_66.gjf
 -----------------------
 Symbolic Z-matrix:
 Charge =  0 Multiplicity = 1

                         Standard orientation:
 ---------------------------------------------------------------------
 Center     Atomic      Atomic             Coordinates (Angstroms)
 Number     Number       Type             X           Y           Z
 ---------------------------------------------------------------------
      1          6           0       -1.723148   -0.524035    0.002676
      2          6           0       -0.359322    0.134564   -0.020603
      3          6           0        0.800174   -0.642203   -0.007580
      4          1           0       -1.763414   -1.488646   -0.605232
      5          1           0       -2.488763    0.204924   -0.329148
      6          1           0       -1.967779   -0.777305    1.043214
      7          8           0       -0.253323    1.359886   -0.004533
      8          1           0        0.703207   -1.724701   -0.019611
      9          8           0        1.904638   -0.112915    0.012510
 ---------------------------------------------------------------------

 SCF Done:  E(RwB97X) =  -267.055192337     A.U. after   17 cycles

 The electronic state is 1-A.
 Alpha  occ. eigenvalues --  -19.24819 -19.23520 -10.37647 -10.37382 -10.30037
 Alpha  occ. eigenvalues --   -1.20885  -1.16625  -0.91487  -0.82244  -0.67519
 Alpha  occ. eigenvalues --   -0.61964  -0.58453  -0.58303  -0.53451  -0.52260
 Alpha  occ. eigenvalues --   -0.51772  -0.46046  -0.40018  -0.36977
 Alpha virt. eigenvalues --   -0.02411   0.14100   0.18157   0.22542   0.23181
 Alpha virt. eigenvalues --    0.25960   0.31091   0.32000   0.44153   0.49715
 Alpha virt. eigenvalues --    0.58848   0.59753   0.66978   0.67694   0.73345

 Mulliken charges:
               1
     1  C   -0.582636
     2  C    0.397592
     3  C    0.167682
     4  H    0.173818
     5  H    0.213956
     6  H    0.204669
     7  O   -0.386982
     8  H    0.147508
     9  O   -0.335605
 Sum of Mulliken charges =  -0.00000

 Dipole moment (field-independent basis, Debye):
    X=             -2.6619    Y=             -3.2063    Z=              0.0636  Tot=              4.1678
 Quadrupole moment (field-independent basis, Debye-Ang):
   XX=            -31.4462   YY=            -30.1838   ZZ=            -27.0199
   XY=              0.1484   XZ=             -0.2740   YZ=             -0.0153

 Normal termination of Gaussian 16 at Wed Jun  5 17:01:58 2019.
