 Gaussian 16, Revision A.03,
 Gaussian 16:  ES64L-G16RevA.03 25-Dec-2016

 ----------------
 # 6-31g(d) wb97x
 ----------------

 ------------------------
 tmpdir/M2_conf_1_156.gjf
 ------------------------
 Symbolic Z-matrix:
 Charge =  0 Multiplicity = 1

                         Standard orientation:
 ---------------------------------------------------------------------
 Center     Atomic      Atomic             Coordinates (Angstroms)
 Number     Number       Type             X           Y           Z
 ---------------------------------------------------------------------
      1          6           0       -0.642186    0.505702   -0.003790
      2          6           0        0.740560    0.479324   -0.001216
      3          6           0       -1.457619   -0.679687    0.003881
      4          1           0       -1.178909    1.453706   -0.006404
      5          1           0        1.319522    1.394843    0.023172
      6          6           0        1.335809   -0.780097   -0.001669
 ---------------------------------------------------------------------

 SCF Done:  E(RwB97X) =  -153.238074028     A.U. after   20 cycles

 The electronic state is 1-A.
 Alpha  occ. eigenvalues --  -10.36724 -10.36453 -10.31545 -10.31086  -0.97845
 Alpha  occ. eigenvalues --   -0.83875  -0.72230  -0.60749  -0.59105  -0.46569
 Alpha  occ. eigenvalues --   -0.42589  -0.40011  -0.32756
 Alpha virt. eigenvalues --   -0.03516   0.00630   0.02033   0.16457   0.20955
 Alpha virt. eigenvalues --    0.25089   0.34032   0.45875   0.47140   0.59030
 Alpha virt. eigenvalues --    0.61025   0.63149   0.66000   0.66682   0.69340

 Mulliken charges:
               1
     1  C   -0.293439
     2  C   -0.248199
     3  C    0.040567
     4  H    0.232641
     5  H    0.234056
     6  C    0.034374
 Sum of Mulliken charges =  -0.00000

 Dipole moment (field-independent basis, Debye):
    X=              0.3938    Y=              3.3753    Z=              0.0192  Tot=              3.3983
 Quadrupole moment (field-independent basis, Debye-Ang):
   XX=            -24.1453   YY=            -23.4472   ZZ=            -25.5519
   XY=             -0.0773   XZ=              0.0911   YZ=              0.0340

 Normal termination of Gaussian 16 at Wed Jun  5 17:02:35 2019.
