 Gaussian 16, Revision A.03,
 Gaussian 16:  ES64L-G16RevA.03 25-Dec-2016

 ----------------
 # 6-31g(d) wb97x
 ----------------

 ------------------------
 tmpdir/M2_conf_0_187.gjf
 ------------------------
 Symbolic Z-matrix:
 Charge =  0 Multiplicity = 1

                         Standard orientation:
 ---------------------------------------------------------------------
 Center     Atomic      Atomic             Coordinates (Angstroms)
 Number     Number       Type             X           Y           Z
 ---------------------------------------------------------------------
      1          6           0       -1.345030   -0.485765   -0.000438
      2          6           0       -0.526933    0.639345   -0.002174
      3          7           0        0.803096    0.522014    0.002025
      4          1           0       -0.914786   -1.392784   -0.004864
      5          1           0       -2.427074   -0.392604    0.010764
      6          1           0       -0.959827    1.638827   -0.002429
      7          8           0        1.238974   -0.553627   -0.000247
 ---------------------------------------------------------------------

 SCF Done:  E(RwB97X) =  -207.791936511     A.U. after   18 cycles

 The electronic state is 1-A.
 Alpha  occ. eigenvalues --  -19.26001 -14.50536 -10.31171 -10.31049  -1.31778
 Alpha  occ. eigenvalues --   -0.96810  -0.84449  -0.68336  -0.64544  -0.60020
 Alpha  occ. eigenvalues --   -0.58783  -0.53730  -0.49806  -0.38870  -0.31067
 Alpha virt. eigenvalues --   -0.01678   0.15121   0.20957   0.24584   0.28413
 Alpha virt. eigenvalues --    0.37395   0.38987   0.48448   0.62884   0.65009
 Alpha virt. eigenvalues --    0.69935   0.71359   0.72883   0.76245   0.80937

 Mulliken charges:
               1
     1  C   -0.300691
     2  C   -0.050230
     3  N    0.046922
     4  H    0.211464
     5  H    0.194775
     6  H    0.188156
     7  O   -0.290397
 Sum of Mulliken charges =  -0.00000

 Dipole moment (field-independent basis, Debye):
    X=             -3.0411    Y=              0.0421    Z=             -0.0019  Tot=              3.0414
 Quadrupole moment (field-independent basis, Debye-Ang):
   XX=            -22.9224   YY=            -22.0083   ZZ=            -22.9777
   XY=              0.1317   XZ=             -0.0303   YZ=             -0.0122

 Normal termination of Gaussian 16 at Wed Jun  5 17:00:54 2019.
