 Gaussian 16, Revision A.03,
 Gaussian 16:  ES64L-G16RevA.03 25-Dec-2016

 ----------------
 # 6-31g(d) wb97x
 ----------------

 ------------------------
 tmpdir/M2_conf_0_183.gjf
 ------------------------
 Symbolic Z-matrix:
 Charge =  0 Multiplicity = 1

                         Standard orientation:
 ---------------------------------------------------------------------
 Center     Atomic      Atomic             Coordinates (Angstroms)
 Number     Number       Type             X           Y           Z
 ---------------------------------------------------------------------
      1          1           0       -1.276512    0.908237    0.006563
      2          6           0       -0.701284   -0.012998   -0.000666
      3          6           0        0.689755   -0.000370   -0.000493
      4          1           0       -1.168231   -0.901692   -0.002852
      5          1           0        1.235010    0.942529   -0.003185
      6          1           0        1.278908   -0.868869    0.006426
 ---------------------------------------------------------------------

 SCF Done:  E(RwB97X) =  -78.5463011457     A.U. after   13 cycles

 The electronic state is 1-A.
 Alpha  occ. eigenvalues --  -10.27096 -10.26652  -0.87614  -0.70916  -0.58007
 Alpha  occ. eigenvalues --   -0.51319  -0.46901  -0.35695
 Alpha virt. eigenvalues --    0.09960   0.22391   0.25448   0.26918   0.34884
 Alpha virt. eigenvalues --    0.41093   0.60007   0.65760   0.66557   0.74554
 Alpha virt. eigenvalues --    0.75810   0.77697   0.99205   1.00489   1.06999

 Mulliken charges:
               1
     1  H    0.166344
     2  C   -0.329791
     3  C   -0.335940
     4  H    0.170582
     5  H    0.159547
     6  H    0.169258
 Sum of Mulliken charges =   0.00000

 Dipole moment (field-independent basis, Debye):
    X=              0.0071    Y=             -0.0358    Z=              0.0066  Tot=              0.0370
 Quadrupole moment (field-independent basis, Debye-Ang):
   XX=            -11.7686   YY=            -12.0010   ZZ=            -15.1535
   XY=             -0.1132   XZ=             -0.0005   YZ=              0.0004

 Normal termination of Gaussian 16 at Wed Jun  5 17:00:55 2019.
