 Gaussian 16, Revision A.03,
 Gaussian 16:  ES64L-G16RevA.03 25-Dec-2016

 ----------------
 # 6-31g(d) wb97x
 ----------------

 -----------------------
 tmpdir/M2_conf_1_73.gjf
 -----------------------
 Symbolic Z-matrix:
 Charge =  0 Multiplicity = 1

                         Standard orientation:
 ---------------------------------------------------------------------
 Center     Atomic      Atomic             Coordinates (Angstroms)
 Number     Number       Type             X           Y           Z
 ---------------------------------------------------------------------
      1          1           0        1.232452    0.933364   -0.008394
      2          6           0        0.692886   -0.010104    0.001024
      3          6           0       -0.696399   -0.010079   -0.005466
      4          1           0        1.221459   -0.871053    0.010677
      5          1           0       -1.224628    0.941053    0.021044
      6          1           0       -1.208206   -0.882266    0.003329
 ---------------------------------------------------------------------

 SCF Done:  E(RwB97X) =  -78.5442449010     A.U. after   12 cycles

 The electronic state is 1-A.
 Alpha  occ. eigenvalues --  -10.26647 -10.26570  -0.87777  -0.71004  -0.58460
 Alpha  occ. eigenvalues --   -0.51016  -0.47249  -0.35697
 Alpha virt. eigenvalues --    0.10023   0.22231   0.26319   0.27030   0.35034
 Alpha virt. eigenvalues --    0.40992   0.59746   0.66075   0.66582   0.74650
 Alpha virt. eigenvalues --    0.75724   0.77877   0.99801   1.00352   1.08393

 Mulliken charges:
               1
     1  H    0.161081
     2  C   -0.332931
     3  C   -0.332471
     4  H    0.170834
     5  H    0.162452
     6  H    0.171036
 Sum of Mulliken charges =   0.00000

 Dipole moment (field-independent basis, Debye):
    X=              0.0090    Y=             -0.0391    Z=              0.0257  Tot=              0.0476
 Quadrupole moment (field-independent basis, Debye-Ang):
   XX=            -11.8794   YY=            -11.9076   ZZ=            -15.1120
   XY=             -0.0075   XZ=             -0.0274   YZ=             -0.0002

 Normal termination of Gaussian 16 at Wed Jun  5 17:02:05 2019.
