 Gaussian 16, Revision A.03,
 Gaussian 16:  ES64L-G16RevA.03 25-Dec-2016

 ----------------
 # 6-31g(d) wb97x
 ----------------

 ------------------------
 tmpdir/M2_conf_1_157.gjf
 ------------------------
 Symbolic Z-matrix:
 Charge =  0 Multiplicity = 1

                         Standard orientation:
 ---------------------------------------------------------------------
 Center     Atomic      Atomic             Coordinates (Angstroms)
 Number     Number       Type             X           Y           Z
 ---------------------------------------------------------------------
      1          7           0        0.689896   -0.141927   -0.000638
      2          6           0       -0.622466    0.041362   -0.000693
      3          1           0       -1.247950   -0.850563    0.004033
      4          1           0        1.208871    0.645998    0.004578
      5          1           0       -1.055400    0.949882    0.000012
 ---------------------------------------------------------------------

 SCF Done:  E(RwB97X) =  -94.5786658451     A.U. after   14 cycles

 The electronic state is 1-A.
 Alpha  occ. eigenvalues --  -14.40144 -10.31558  -1.01620  -0.76545  -0.62016
 Alpha  occ. eigenvalues --   -0.54265  -0.41849  -0.36692
 Alpha virt. eigenvalues --    0.07451   0.21923   0.24310   0.29912   0.39795
 Alpha virt. eigenvalues --    0.65491   0.68229   0.72082   0.77232   0.84229
 Alpha virt. eigenvalues --    0.87409   0.97148   1.07155   1.09161   1.16797

 Mulliken charges:
               1
     1  N   -0.501456
     2  C   -0.157028
     3  H    0.174518
     4  H    0.316909
     5  H    0.167057
 Sum of Mulliken charges =  -0.00000

 Dipole moment (field-independent basis, Debye):
    X=             -1.2536    Y=              1.7082    Z=              0.0096  Tot=              2.1188
 Quadrupole moment (field-independent basis, Debye-Ang):
   XX=            -11.4003   YY=            -12.1027   ZZ=            -13.2688
   XY=              2.1114   XZ=              0.0055   YZ=              0.0010

 Normal termination of Gaussian 16 at Wed Jun  5 17:02:38 2019.
