 Gaussian 16, Revision A.03,
 Gaussian 16:  ES64L-G16RevA.03 25-Dec-2016

 ----------------
 # 6-31g(d) wb97x
 ----------------

 ------------------------
 tmpdir/M2_conf_2_145.gjf
 ------------------------
 Symbolic Z-matrix:
 Charge =  0 Multiplicity = 1

                         Standard orientation:
 ---------------------------------------------------------------------
 Center     Atomic      Atomic             Coordinates (Angstroms)
 Number     Number       Type             X           Y           Z
 ---------------------------------------------------------------------
      1          1           0        1.845222    0.471672    0.008565
      2          7           0        1.080347   -0.186021   -0.000539
      3          6           0       -0.148417    0.427909   -0.001941
      4          1           0        1.324665   -1.136834   -0.002060
      5          8           0       -1.220075   -0.260640    0.001098
      6          1           0       -0.081207    1.484977    0.000128
 ---------------------------------------------------------------------

 SCF Done:  E(RwB97X) =  -169.830832948     A.U. after   15 cycles

 The electronic state is 1-A.
 Alpha  occ. eigenvalues --  -19.17986 -14.44196 -10.38007  -1.13030  -1.03227
 Alpha  occ. eigenvalues --   -0.76597  -0.65530  -0.60899  -0.50587  -0.50108
 Alpha  occ. eigenvalues --   -0.36479  -0.35207
 Alpha virt. eigenvalues --    0.10900   0.17601   0.20918   0.27741   0.35334
 Alpha virt. eigenvalues --    0.43421   0.64598   0.65767   0.74479   0.75167
 Alpha virt. eigenvalues --    0.80315   0.82415   0.96416   0.99005   0.99749

 Mulliken charges:
               1
     1  H    0.338621
     2  N   -0.726047
     3  C    0.341337
     4  H    0.371954
     5  O   -0.481206
     6  H    0.155341
 Sum of Mulliken charges =  -0.00000

 Dipole moment (field-independent basis, Debye):
    X=              4.0809    Y=              1.1392    Z=              0.0067  Tot=              4.2370
 Quadrupole moment (field-independent basis, Debye-Ang):
   XX=            -17.5796   YY=            -14.4061   ZZ=            -18.5062
   XY=             -1.3574   XZ=              0.0300   YZ=              0.0143

 Normal termination of Gaussian 16 at Wed Jun  5 17:04:30 2019.
