 Gaussian 16, Revision A.03,
 Gaussian 16:  ES64L-G16RevA.03 25-Dec-2016

 ----------------
 # 6-31g(d) wb97x
 ----------------

 -----------------------
 tmpdir/M2_conf_1_69.gjf
 -----------------------
 Symbolic Z-matrix:
 Charge =  0 Multiplicity = 1

                         Standard orientation:
 ---------------------------------------------------------------------
 Center     Atomic      Atomic             Coordinates (Angstroms)
 Number     Number       Type             X           Y           Z
 ---------------------------------------------------------------------
      1          6           0       -0.545584   -0.012879   -0.000529
      2          1           0       -1.114629    0.909279    0.001068
      3          1           0       -1.045102   -0.891057    0.001144
      4          8           0        0.679154    0.007381    0.000120
 ---------------------------------------------------------------------

 SCF Done:  E(RwB97X) =  -114.459145793     A.U. after   13 cycles

 The electronic state is 1-A.
 Alpha  occ. eigenvalues --  -19.23086 -10.35931  -1.17173  -0.77398  -0.62039
 Alpha  occ. eigenvalues --   -0.55128  -0.49602  -0.36917
 Alpha virt. eigenvalues --    0.05595   0.21925   0.29738   0.31653   0.62136
 Alpha virt. eigenvalues --    0.71088   0.73794   0.78887   0.96240   0.97742
 Alpha virt. eigenvalues --    1.06010   1.07874   1.17727   1.48410   1.60958

 Mulliken charges:
               1
     1  C    0.056442
     2  H    0.137736
     3  H    0.154795
     4  O   -0.348973
 Sum of Mulliken charges =   0.00000

 Dipole moment (field-independent basis, Debye):
    X=             -2.4460    Y=             -0.0996    Z=              0.0002  Tot=              2.4480
 Quadrupole moment (field-independent basis, Debye-Ang):
   XX=            -11.7451   YY=            -11.2893   ZZ=            -11.3332
   XY=              0.0445   XZ=             -0.0009   YZ=              0.0000

 Normal termination of Gaussian 16 at Wed Jun  5 17:02:19 2019.
