 Gaussian 16, Revision A.03,
 Gaussian 16:  ES64L-G16RevA.03 25-Dec-2016

 ----------------
 # 6-31g(d) wb97x
 ----------------

 ------------------------
 tmpdir/M2_conf_1_131.gjf
 ------------------------
 Symbolic Z-matrix:
 Charge =  0 Multiplicity = 1

                         Standard orientation:
 ---------------------------------------------------------------------
 Center     Atomic      Atomic             Coordinates (Angstroms)
 Number     Number       Type             X           Y           Z
 ---------------------------------------------------------------------
      1          6           0       -0.228345    0.437532    0.000217
      2          6           0        1.164809   -0.139690   -0.000141
      3          1           0        1.917387    0.653482   -0.006328
      4          1           0       -0.367328    1.433479   -0.000747
      5          8           0       -1.234770   -0.294333    0.000036
      6          1           0        1.351880   -0.764985   -0.883094
      7          1           0        1.357440   -0.754364    0.889426
 ---------------------------------------------------------------------

 SCF Done:  E(RwB97X) =  -153.774300433     A.U. after   14 cycles

 The electronic state is 1-A.
 Alpha  occ. eigenvalues --  -19.21286 -10.35875 -10.28020  -1.15127  -0.88031
 Alpha  occ. eigenvalues --   -0.72391  -0.58935  -0.55040  -0.53949  -0.49817
 Alpha  occ. eigenvalues --   -0.45451  -0.35658
 Alpha virt. eigenvalues --    0.06191   0.20887   0.22526   0.27210   0.28214
 Alpha virt. eigenvalues --    0.34910   0.36687   0.63198   0.63502   0.67928
 Alpha virt. eigenvalues --    0.72159   0.75799   0.83158   0.87490   0.96225

 Mulliken charges:
               1
     1  C    0.226479
     2  C   -0.562734
     3  H    0.165586
     4  H    0.155828
     5  O   -0.396610
     6  H    0.205794
     7  H    0.205657
 Sum of Mulliken charges =  -0.00000

 Dipole moment (field-independent basis, Debye):
    X=              2.5061    Y=              1.2399    Z=              0.0011  Tot=              2.7961
 Quadrupole moment (field-independent basis, Debye-Ang):
   XX=            -20.6505   YY=            -17.3449   ZZ=            -17.4601
   XY=             -1.4069   XZ=              0.0040   YZ=              0.0014

 Normal termination of Gaussian 16 at Wed Jun  5 17:02:21 2019.
