 Gaussian 16, Revision A.03,
 Gaussian 16:  ES64L-G16RevA.03 25-Dec-2016

 ----------------
 # 6-31g(d) wb97x
 ----------------

 -----------------------
 tmpdir/M2_conf_2_81.gjf
 -----------------------
 Symbolic Z-matrix:
 Charge =  0 Multiplicity = 1

                         Standard orientation:
 ---------------------------------------------------------------------
 Center     Atomic      Atomic             Coordinates (Angstroms)
 Number     Number       Type             X           Y           Z
 ---------------------------------------------------------------------
      1          6           0       -0.698413   -0.009397   -0.005528
      2          6           0        0.696673   -0.007408    0.000465
      3          1           0        1.242052    0.934427   -0.010470
      4          1           0       -1.259702    0.932053    0.024992
      5          1           0       -1.184049   -0.895301   -0.000065
      6          1           0        1.212142   -0.870353    0.015924
 ---------------------------------------------------------------------

 SCF Done:  E(RwB97X) =  -78.5425831707     A.U. after   12 cycles

 The electronic state is 1-A.
 Alpha  occ. eigenvalues --  -10.26791 -10.26627  -0.87685  -0.71017  -0.58381
 Alpha  occ. eigenvalues --   -0.50917  -0.47330  -0.35601
 Alpha virt. eigenvalues --    0.09896   0.22206   0.26266   0.26914   0.35018
 Alpha virt. eigenvalues --    0.40793   0.59800   0.66161   0.66644   0.74586
 Alpha virt. eigenvalues --    0.75675   0.77515   0.99659   1.00150   1.08369

 Mulliken charges:
               1
     1  C   -0.333406
     2  C   -0.333019
     3  H    0.161570
     4  H    0.163285
     5  H    0.170205
     6  H    0.171366
 Sum of Mulliken charges =   0.00000

 Dipole moment (field-independent basis, Debye):
    X=              0.0080    Y=             -0.0487    Z=              0.0293  Tot=              0.0574
 Quadrupole moment (field-independent basis, Debye-Ang):
   XX=            -11.8749   YY=            -11.9047   ZZ=            -15.1319
   XY=             -0.0444   XZ=             -0.0250   YZ=             -0.0005

 Normal termination of Gaussian 16 at Wed Jun  5 17:03:59 2019.
