 Gaussian 16, Revision A.03,
 Gaussian 16:  ES64L-G16RevA.03 25-Dec-2016

 ----------------
 # 6-31g(d) wb97x
 ----------------

 ------------------------
 tmpdir/M2_conf_0_147.gjf
 ------------------------
 Symbolic Z-matrix:
 Charge =  0 Multiplicity = 1

                         Standard orientation:
 ---------------------------------------------------------------------
 Center     Atomic      Atomic             Coordinates (Angstroms)
 Number     Number       Type             X           Y           Z
 ---------------------------------------------------------------------
      1          6           0       -0.602817    0.508245    0.002588
      2          7           0        0.751470    0.531430   -0.003741
      3          1           0       -1.040080    1.495435    0.005547
      4          8           0       -1.340354   -0.530305   -0.001360
      5          8           0        1.264941   -0.502810    0.001999
 ---------------------------------------------------------------------

 SCF Done:  E(RwB97X) =  -243.695671039     A.U. after   24 cycles

 The electronic state is 1-A.
 Alpha  occ. eigenvalues --  -19.32268 -19.27521 -14.54776 -10.41138  -1.37439
 Alpha  occ. eigenvalues --   -1.18611  -0.96369  -0.72398  -0.67984  -0.63915
 Alpha  occ. eigenvalues --   -0.62060  -0.55324  -0.50285  -0.42824  -0.35561
 Alpha virt. eigenvalues --   -0.07128   0.10522   0.22143   0.29195   0.36937
 Alpha virt. eigenvalues --    0.49352   0.59878   0.64360   0.67710   0.77246
 Alpha virt. eigenvalues --    0.78721   0.79715   0.83620   0.90274   0.94861

 Mulliken charges:
               1
     1  C    0.288561
     2  N    0.040414
     3  H    0.186806
     4  O   -0.333470
     5  O   -0.182310
 Sum of Mulliken charges =  -0.00000

 Dipole moment (field-independent basis, Debye):
    X=             -0.3175    Y=              1.9055    Z=              0.0152  Tot=              1.9318
 Quadrupole moment (field-independent basis, Debye-Ang):
   XX=            -25.0085   YY=            -21.7145   ZZ=            -19.6897
   XY=             -2.6599   XZ=              0.0108   YZ=              0.0275

 Normal termination of Gaussian 16 at Wed Jun  5 17:00:26 2019.
