 Gaussian 16, Revision A.03,
 Gaussian 16:  ES64L-G16RevA.03 25-Dec-2016

 ----------------
 # 6-31g(d) wb97x
 ----------------

 ------------------------
 tmpdir/M2_conf_0_111.gjf
 ------------------------
 Symbolic Z-matrix:
 Charge =  0 Multiplicity = 1

                         Standard orientation:
 ---------------------------------------------------------------------
 Center     Atomic      Atomic             Coordinates (Angstroms)
 Number     Number       Type             X           Y           Z
 ---------------------------------------------------------------------
      1          6           0       -1.414894   -0.472571   -0.005282
      2          6           0       -0.594281    0.655027   -0.000056
      3          6           0        0.792803    0.488026   -0.000809
      4          1           0       -2.523829   -0.398530    0.020326
      5          1           0       -1.012954   -1.397280   -0.000153
      6          1           0       -1.021431    1.644230    0.004833
      7          8           0        1.294672   -0.650674    0.001782
      8          1           0        1.499079    1.334073   -0.002377
 ---------------------------------------------------------------------

 SCF Done:  E(RwB97X) =  -191.836271733     A.U. after   14 cycles

 The electronic state is 1-A.
 Alpha  occ. eigenvalues --  -19.20355 -10.35385 -10.30429 -10.29103  -1.14919
 Alpha  occ. eigenvalues --   -0.92241  -0.79355  -0.66707  -0.63073  -0.55486
 Alpha  occ. eigenvalues --   -0.52217  -0.50003  -0.49220  -0.37027  -0.35556
 Alpha virt. eigenvalues --    0.00849   0.16988   0.20027   0.23880   0.26323
 Alpha virt. eigenvalues --    0.29959   0.34821   0.41378   0.45835   0.62059
 Alpha virt. eigenvalues --    0.62804   0.68555   0.68791   0.70453   0.74321

 Mulliken charges:
               1
     1  C   -0.298576
     2  C   -0.192648
     3  C    0.204491
     4  H    0.179661
     5  H    0.215365
     6  H    0.173092
     7  O   -0.422083
     8  H    0.140698
 Sum of Mulliken charges =  -0.00000

 Dipole moment (field-independent basis, Debye):
    X=             -2.1810    Y=              1.7421    Z=              0.0138  Tot=              2.7914
 Quadrupole moment (field-independent basis, Debye-Ang):
   XX=            -23.1239   YY=            -21.8413   ZZ=            -24.3743
   XY=              3.3532   XZ=             -0.0540   YZ=              0.0012

 Normal termination of Gaussian 16 at Wed Jun  5 17:00:01 2019.
