 Gaussian 16, Revision A.03,
 Gaussian 16:  ES64L-G16RevA.03 25-Dec-2016

 ----------------
 # 6-31g(d) wb97x
 ----------------

 -----------------------
 tmpdir/M2_conf_1_40.gjf
 -----------------------
 Symbolic Z-matrix:
 Charge =  0 Multiplicity = 1

                         Standard orientation:
 ---------------------------------------------------------------------
 Center     Atomic      Atomic             Coordinates (Angstroms)
 Number     Number       Type             X           Y           Z
 ---------------------------------------------------------------------
      1          1           0        1.165134   -0.782596    0.649339
      2          6           0        0.760732   -0.000017   -0.003610
      3          6           0       -0.760435   -0.001453    0.005944
      4          1           0        1.144271    1.013967    0.357632
      5          1           0        1.098411   -0.215086   -1.037501
      6          1           0       -1.129833   -0.956486   -0.383379
      7          1           0       -1.116282    0.101303    1.049360
      8          1           0       -1.163484    0.847718   -0.649459
 ---------------------------------------------------------------------

 SCF Done:  E(RwB97X) =  -79.7971167708     A.U. after   11 cycles

 The electronic state is 1-A.
 Alpha  occ. eigenvalues --  -10.26093 -10.26074  -0.87877  -0.72440  -0.54428
 Alpha  occ. eigenvalues --   -0.54051  -0.46065  -0.43918  -0.43703
 Alpha virt. eigenvalues --    0.19219   0.25056   0.25343   0.25937   0.28149
 Alpha virt. eigenvalues --    0.28328   0.33645   0.61344   0.66014   0.66328
 Alpha virt. eigenvalues --    0.73613   0.74948   0.78888   0.97305   0.98834

 Mulliken charges:
               1
     1  H    0.157704
     2  C   -0.457850
     3  C   -0.457771
     4  H    0.146337
     5  H    0.153875
     6  H    0.156979
     7  H    0.154447
     8  H    0.146277
 Sum of Mulliken charges =   0.00000

 Dipole moment (field-independent basis, Debye):
    X=              0.0000    Y=             -0.0784    Z=              0.0111  Tot=              0.0792
 Quadrupole moment (field-independent basis, Debye-Ang):
   XX=            -15.7204   YY=            -14.6738   ZZ=            -14.6695
   XY=             -0.0375   XZ=              0.0814   YZ=              0.0080

 Normal termination of Gaussian 16 at Wed Jun  5 17:01:24 2019.
