 Gaussian 16, Revision A.03,
 Gaussian 16:  ES64L-G16RevA.03 25-Dec-2016

 ----------------
 # 6-31g(d) wb97x
 ----------------

 ------------------------
 tmpdir/M2_conf_0_190.gjf
 ------------------------
 Symbolic Z-matrix:
 Charge =  0 Multiplicity = 1

                         Standard orientation:
 ---------------------------------------------------------------------
 Center     Atomic      Atomic             Coordinates (Angstroms)
 Number     Number       Type             X           Y           Z
 ---------------------------------------------------------------------
      1          6           0       -0.744527    0.475783   -0.001274
      2          7           0        0.578194    0.657905   -0.000549
      3          6           0        1.404340   -0.386686   -0.003771
      4          8           0       -1.278108   -0.628446    0.002473
      5          1           0       -1.348229    1.382374   -0.000865
      6          1           0        1.100600   -1.351163   -0.010955
      7          1           0        2.466257   -0.143569    0.026148
 ---------------------------------------------------------------------

 SCF Done:  E(RwB97X) =  -207.875853243     A.U. after   17 cycles

 The electronic state is 1-A.
 Alpha  occ. eigenvalues --  -19.21551 -14.42853 -10.37791 -10.35549  -1.18121
 Alpha  occ. eigenvalues --   -1.05299  -0.84227  -0.69922  -0.64656  -0.57336
 Alpha  occ. eigenvalues --   -0.55087  -0.53714  -0.41778  -0.40168  -0.36431
 Alpha virt. eigenvalues --   -0.01154   0.15527   0.21687   0.24286   0.27827
 Alpha virt. eigenvalues --    0.32898   0.37718   0.46687   0.60012   0.63209
 Alpha virt. eigenvalues --    0.66762   0.67340   0.74996   0.77453   0.80443

 Mulliken charges:
               1
     1  C    0.287602
     2  N   -0.354432
     3  C   -0.104942
     4  O   -0.398788
     5  H    0.158973
     6  H    0.212767
     7  H    0.198820
 Sum of Mulliken charges =  -0.00000

 Dipole moment (field-independent basis, Debye):
    X=              2.0525    Y=             -0.0668    Z=             -0.0076  Tot=              2.0536
 Quadrupole moment (field-independent basis, Debye-Ang):
   XX=            -21.3373   YY=            -23.6488   ZZ=            -22.5368
   XY=             -5.4302   XZ=              0.0368   YZ=             -0.0005

 Normal termination of Gaussian 16 at Wed Jun  5 17:00:50 2019.
