 Gaussian 16, Revision A.03,
 Gaussian 16:  ES64L-G16RevA.03 25-Dec-2016

 ----------------
 # 6-31g(d) wb97x
 ----------------

 -----------------------
 tmpdir/M2_conf_1_75.gjf
 -----------------------
 Symbolic Z-matrix:
 Charge =  0 Multiplicity = 1

                         Standard orientation:
 ---------------------------------------------------------------------
 Center     Atomic      Atomic             Coordinates (Angstroms)
 Number     Number       Type             X           Y           Z
 ---------------------------------------------------------------------
      1          6           0        0.694885    0.485712   -0.004225
      2          6           0       -0.701110    0.487781   -0.007459
      3          6           0        1.396133   -0.713617   -0.000855
      4          1           0        1.249018    1.421471    0.036915
      5          6           0       -1.381257   -0.729302    0.005920
      6          1           0       -1.300922    1.395088    0.002802
 ---------------------------------------------------------------------

 SCF Done:  E(RwB97X) =  -153.248000580     A.U. after   18 cycles

 The electronic state is 1-A.
 Alpha  occ. eigenvalues --  -10.36193 -10.36117 -10.31251 -10.31186  -0.98017
 Alpha  occ. eigenvalues --   -0.84703  -0.72023  -0.60650  -0.59461  -0.46755
 Alpha  occ. eigenvalues --   -0.42485  -0.40005  -0.33303
 Alpha virt. eigenvalues --   -0.03361   0.00678   0.02679   0.16811   0.20994
 Alpha virt. eigenvalues --    0.24806   0.35036   0.45912   0.48166   0.58287
 Alpha virt. eigenvalues --    0.60892   0.63313   0.66182   0.66580   0.69147

 Mulliken charges:
               1
     1  C   -0.270868
     2  C   -0.268873
     3  C    0.032875
     4  H    0.236673
     5  C    0.034039
     6  H    0.236155
 Sum of Mulliken charges =   0.00000

 Dipole moment (field-independent basis, Debye):
    X=             -0.0706    Y=              3.4538    Z=              0.0413  Tot=              3.4548
 Quadrupole moment (field-independent basis, Debye-Ang):
   XX=            -24.0670   YY=            -23.5008   ZZ=            -25.4596
   XY=             -0.0061   XZ=              0.1034   YZ=              0.1017

 Normal termination of Gaussian 16 at Wed Jun  5 17:01:49 2019.
