 Gaussian 16, Revision A.03,
 Gaussian 16:  ES64L-G16RevA.03 25-Dec-2016

 ----------------
 # 6-31g(d) wb97x
 ----------------

 ----------------------
 tmpdir/M2_conf_1_3.gjf
 ----------------------
 Symbolic Z-matrix:
 Charge =  0 Multiplicity = 1

                         Standard orientation:
 ---------------------------------------------------------------------
 Center     Atomic      Atomic             Coordinates (Angstroms)
 Number     Number       Type             X           Y           Z
 ---------------------------------------------------------------------
      1          6           0       -0.697609   -0.000079    0.011780
      2          7           0        0.734887    0.001528   -0.112760
      3          1           0       -1.011105   -0.014499    1.073367
      4          1           0       -1.092358   -0.903071   -0.468927
      5          1           0       -1.123494    0.891483   -0.475312
      6          1           0        1.118940    0.851502    0.302081
      7          1           0        1.149462   -0.835637    0.287434
 ---------------------------------------------------------------------

 SCF Done:  E(RwB97X) =  -95.8211190868     A.U. after   14 cycles

 The electronic state is 1-A.
 Alpha  occ. eigenvalues --  -14.37917 -10.27883  -0.99820  -0.77218  -0.60396
 Alpha  occ. eigenvalues --   -0.53798  -0.50688  -0.46847  -0.32057
 Alpha virt. eigenvalues --    0.18416   0.24366   0.25329   0.27641   0.29091
 Alpha virt. eigenvalues --    0.34781   0.66228   0.67977   0.69888   0.84853
 Alpha virt. eigenvalues --    0.87293   0.89630   0.97780   1.02538   1.04617

 Mulliken charges:
               1
     1  C   -0.326199
     2  N   -0.738959
     3  H    0.125861
     4  H    0.161051
     5  H    0.161250
     6  H    0.307150
     7  H    0.309846
 Sum of Mulliken charges =  -0.00000

 Dipole moment (field-independent basis, Debye):
    X=             -0.1219    Y=             -0.0118    Z=              1.3391  Tot=              1.3446
 Quadrupole moment (field-independent basis, Debye-Ang):
   XX=            -13.6654   YY=            -12.1053   ZZ=            -15.2688
   XY=             -0.0732   XZ=              2.0319   YZ=              0.0183

 Normal termination of Gaussian 16 at Wed Jun  5 17:01:36 2019.
