 Gaussian 16, Revision A.03,
 Gaussian 16:  ES64L-G16RevA.03 25-Dec-2016

 ----------------
 # 6-31g(d) wb97x
 ----------------

 ------------------------
 tmpdir/M2_conf_0_110.gjf
 ------------------------
 Symbolic Z-matrix:
 Charge =  0 Multiplicity = 1

                         Standard orientation:
 ---------------------------------------------------------------------
 Center     Atomic      Atomic             Coordinates (Angstroms)
 Number     Number       Type             X           Y           Z
 ---------------------------------------------------------------------
      1          6           0       -0.693835   -0.012074   -0.004661
      2          6           0        0.700724   -0.002615    0.000379
      3          1           0        1.245040    0.927290   -0.001676
      4          1           0       -1.292831    0.924265    0.014041
      5          1           0       -1.199114   -0.884550    0.006997
      6          1           0        1.205571   -0.878871    0.006333
 ---------------------------------------------------------------------

 SCF Done:  E(RwB97X) =  -78.5429325963     A.U. after   13 cycles

 The electronic state is 1-A.
 Alpha  occ. eigenvalues --  -10.26931 -10.26654  -0.87646  -0.71096  -0.58140
 Alpha  occ. eigenvalues --   -0.51187  -0.47142  -0.35629
 Alpha virt. eigenvalues --    0.09885   0.22298   0.26001   0.26840   0.35023
 Alpha virt. eigenvalues --    0.40987   0.59898   0.65838   0.66620   0.74552
 Alpha virt. eigenvalues --    0.75814   0.77423   0.98749   1.00786   1.08521

 Mulliken charges:
               1
     1  C   -0.333377
     2  C   -0.332619
     3  H    0.165154
     4  H    0.159319
     5  H    0.170485
     6  H    0.171037
 Sum of Mulliken charges =  -0.00000

 Dipole moment (field-independent basis, Debye):
    X=              0.0001    Y=             -0.0548    Z=              0.0242  Tot=              0.0600
 Quadrupole moment (field-independent basis, Debye-Ang):
   XX=            -11.7866   YY=            -11.9712   ZZ=            -15.1384
   XY=             -0.0055   XZ=             -0.0214   YZ=             -0.0011

 Normal termination of Gaussian 16 at Wed Jun  5 16:59:52 2019.
