 Gaussian 16, Revision A.03,
 Gaussian 16:  ES64L-G16RevA.03 25-Dec-2016

 ----------------
 # 6-31g(d) wb97x
 ----------------

 ------------------------
 tmpdir/M2_conf_1_108.gjf
 ------------------------
 Symbolic Z-matrix:
 Charge =  0 Multiplicity = 1

                         Standard orientation:
 ---------------------------------------------------------------------
 Center     Atomic      Atomic             Coordinates (Angstroms)
 Number     Number       Type             X           Y           Z
 ---------------------------------------------------------------------
      1          6           0        0.549136   -0.011717   -0.000044
      2          1           0        1.112780    0.907893    0.000090
      3          8           0       -0.680211    0.007695    0.000010
      4          1           0        1.034092   -0.899153    0.000095
 ---------------------------------------------------------------------

 SCF Done:  E(RwB97X) =  -114.458729714     A.U. after   13 cycles

 The electronic state is 1-A.
 Alpha  occ. eigenvalues --  -19.23035 -10.35918  -1.16907  -0.77385  -0.62167
 Alpha  occ. eigenvalues --   -0.54966  -0.49418  -0.36905
 Alpha virt. eigenvalues --    0.05495   0.21944   0.29682   0.31632   0.62188
 Alpha virt. eigenvalues --    0.70783   0.74059   0.78316   0.96463   0.98170
 Alpha virt. eigenvalues --    1.05890   1.07898   1.17786   1.48276   1.60893

 Mulliken charges:
               1
     1  C    0.055006
     2  H    0.141193
     3  O   -0.351787
     4  H    0.155588
 Sum of Mulliken charges =   0.00000

 Dipole moment (field-independent basis, Debye):
    X=              2.4646    Y=             -0.0896    Z=              0.0000  Tot=              2.4662
 Quadrupole moment (field-independent basis, Debye-Ang):
   XX=            -11.7503   YY=            -11.2541   ZZ=            -11.3419
   XY=             -0.0225   XZ=              0.0001   YZ=              0.0000

 Normal termination of Gaussian 16 at Wed Jun  5 17:02:23 2019.
