 Gaussian 16, Revision A.03,
 Gaussian 16:  ES64L-G16RevA.03 25-Dec-2016

 ----------------
 # 6-31g(d) wb97x
 ----------------

 ------------------------
 tmpdir/M2_conf_2_152.gjf
 ------------------------
 Symbolic Z-matrix:
 Charge =  0 Multiplicity = 1

                         Standard orientation:
 ---------------------------------------------------------------------
 Center     Atomic      Atomic             Coordinates (Angstroms)
 Number     Number       Type             X           Y           Z
 ---------------------------------------------------------------------
      1          6           0       -1.353533   -0.372925   -0.000127
      2          7           0       -0.569139    0.701888   -0.000880
      3          6           0        0.752765    0.481830    0.002424
      4          1           0       -2.428446   -0.271481   -0.004579
      5          1           0       -1.034746   -1.382958    0.010265
      6          8           0        1.209019   -0.658371   -0.001739
      7          1           0        1.379620    1.354764    0.000610
 ---------------------------------------------------------------------

 SCF Done:  E(RwB97X) =  -207.878541391     A.U. after   16 cycles

 The electronic state is 1-A.
 Alpha  occ. eigenvalues --  -19.21447 -14.42984 -10.37792 -10.35603  -1.18321
 Alpha  occ. eigenvalues --   -1.05092  -0.83728  -0.70314  -0.63931  -0.57234
 Alpha  occ. eigenvalues --   -0.54506  -0.53799  -0.41604  -0.40478  -0.36579
 Alpha virt. eigenvalues --   -0.00966   0.15210   0.21933   0.23990   0.27610
 Alpha virt. eigenvalues --    0.33409   0.37222   0.46504   0.60165   0.64136
 Alpha virt. eigenvalues --    0.66672   0.68487   0.75229   0.77405   0.80408

 Mulliken charges:
               1
     1  C   -0.103237
     2  N   -0.359529
     3  C    0.295571
     4  H    0.195553
     5  H    0.210375
     6  O   -0.404723
     7  H    0.165989
 Sum of Mulliken charges =  -0.00000

 Dipole moment (field-independent basis, Debye):
    X=             -1.7806    Y=             -0.0589    Z=              0.0147  Tot=              1.7816
 Quadrupole moment (field-independent basis, Debye-Ang):
   XX=            -21.2370   YY=            -23.7683   ZZ=            -22.5504
   XY=              5.7955   XZ=              0.0018   YZ=             -0.0014

 Normal termination of Gaussian 16 at Wed Jun  5 17:04:57 2019.
