 Gaussian 16, Revision A.03,
 Gaussian 16:  ES64L-G16RevA.03 25-Dec-2016

 ----------------
 # 6-31g(d) wb97x
 ----------------

 -----------------------
 tmpdir/M2_conf_2_29.gjf
 -----------------------
 Symbolic Z-matrix:
 Charge =  0 Multiplicity = 1

                         Standard orientation:
 ---------------------------------------------------------------------
 Center     Atomic      Atomic             Coordinates (Angstroms)
 Number     Number       Type             X           Y           Z
 ---------------------------------------------------------------------
      1          7           0       -0.741721   -0.000335   -0.114598
      2          6           0        0.700495    0.000323    0.013571
      3          1           0        1.141775   -0.873173   -0.478535
      4          1           0       -1.151157   -0.838670    0.292191
      5          1           0       -1.153672    0.829147    0.307752
      6          1           0        1.037559   -0.009203    1.068280
      7          1           0        1.114576    0.892305   -0.468929
 ---------------------------------------------------------------------

 SCF Done:  E(RwB97X) =  -95.8221906682     A.U. after   14 cycles

 The electronic state is 1-A.
 Alpha  occ. eigenvalues --  -14.38074 -10.27922  -0.99569  -0.77567  -0.59947
 Alpha  occ. eigenvalues --   -0.53867  -0.50784  -0.46745  -0.32274
 Alpha virt. eigenvalues --    0.18575   0.24151   0.25404   0.27772   0.29099
 Alpha virt. eigenvalues --    0.34625   0.66204   0.67263   0.69874   0.85011
 Alpha virt. eigenvalues --    0.87343   0.90093   0.97815   1.03266   1.04344

 Mulliken charges:
               1
     1  N   -0.740430
     2  C   -0.328489
     3  H    0.162635
     4  H    0.308285
     5  H    0.308844
     6  H    0.126683
     7  H    0.162472
 Sum of Mulliken charges =  -0.00000

 Dipole moment (field-independent basis, Debye):
    X=              0.1359    Y=             -0.0122    Z=              1.3541  Tot=              1.3609
 Quadrupole moment (field-independent basis, Debye-Ang):
   XX=            -13.4478   YY=            -12.2342   ZZ=            -15.2619
   XY=             -0.0086   XZ=             -2.0794   YZ=              0.0113

 Normal termination of Gaussian 16 at Wed Jun  5 17:03:47 2019.
