 Gaussian 16, Revision A.03,
 Gaussian 16:  ES64L-G16RevA.03 25-Dec-2016

 ----------------
 # 6-31g(d) wb97x
 ----------------

 ------------------------
 tmpdir/M2_conf_1_103.gjf
 ------------------------
 Symbolic Z-matrix:
 Charge =  0 Multiplicity = 1

                         Standard orientation:
 ---------------------------------------------------------------------
 Center     Atomic      Atomic             Coordinates (Angstroms)
 Number     Number       Type             X           Y           Z
 ---------------------------------------------------------------------
      1          6           0       -0.694152   -0.012182   -0.004661
      2          6           0        0.701306   -0.002660    0.000380
      3          1           0       -1.293186    0.924131    0.014045
      4          1           0       -1.199396   -0.884683    0.006995
      5          1           0        1.243466    0.928498   -0.001684
      6          1           0        1.206189   -0.878893    0.006328
 ---------------------------------------------------------------------

 SCF Done:  E(RwB97X) =  -78.5428063863     A.U. after   13 cycles

 The electronic state is 1-A.
 Alpha  occ. eigenvalues --  -10.26941 -10.26667  -0.87629  -0.71097  -0.58144
 Alpha  occ. eigenvalues --   -0.51161  -0.47159  -0.35614
 Alpha virt. eigenvalues --    0.09867   0.22289   0.26005   0.26844   0.35013
 Alpha virt. eigenvalues --    0.40949   0.59918   0.65837   0.66631   0.74544
 Alpha virt. eigenvalues --    0.75809   0.77372   0.98754   1.00792   1.08495

 Mulliken charges:
               1
     1  C   -0.333505
     2  C   -0.332688
     3  H    0.159355
     4  H    0.170498
     5  H    0.165185
     6  H    0.171155
 Sum of Mulliken charges =  -0.00000

 Dipole moment (field-independent basis, Debye):
    X=             -0.0006    Y=             -0.0545    Z=              0.0242  Tot=              0.0596
 Quadrupole moment (field-independent basis, Debye-Ang):
   XX=            -11.7891   YY=            -11.9685   ZZ=            -15.1410
   XY=             -0.0076   XZ=             -0.0214   YZ=             -0.0011

 Normal termination of Gaussian 16 at Wed Jun  5 17:02:17 2019.
