 Gaussian 16, Revision A.03,
 Gaussian 16:  ES64L-G16RevA.03 25-Dec-2016

 ----------------
 # 6-31g(d) wb97x
 ----------------

 ----------------------
 tmpdir/M2_conf_0_0.gjf
 ----------------------
 Symbolic Z-matrix:
 Charge =  0 Multiplicity = 1

                         Standard orientation:
 ---------------------------------------------------------------------
 Center     Atomic      Atomic             Coordinates (Angstroms)
 Number     Number       Type             X           Y           Z
 ---------------------------------------------------------------------
      1          6           0        0.001140    0.001791   -0.001647
      2          1           0        0.599902   -0.501853   -0.780378
      3          1           0        0.161186   -0.529964    0.943836
      4          1           0        0.347567    1.042659    0.098912
      5          1           0       -1.115493   -0.021586   -0.252489
 ---------------------------------------------------------------------

 SCF Done:  E(RwB97X) =  -40.4976682866     A.U. after   11 cycles

 The electronic state is 1-A.
 Alpha  occ. eigenvalues --  -10.25689  -0.81249  -0.49471  -0.49286  -0.48737
 Alpha virt. eigenvalues --    0.21094   0.26372   0.27173   0.27407   0.63982
 Alpha virt. eigenvalues --    0.64225   0.65622   0.98659   1.00931   1.01379
 Alpha virt. eigenvalues --    1.05091   1.20214   1.76005   1.76265   2.29757

 Mulliken charges:
               1
     1  C   -0.658893
     2  H    0.166629
     3  H    0.167744
     4  H    0.167448
     5  H    0.157073
 Sum of Mulliken charges =   0.00000

 Dipole moment (field-independent basis, Debye):
    X=              0.0396    Y=             -0.0075    Z=              0.0234  Tot=              0.0466
 Quadrupole moment (field-independent basis, Debye-Ang):
   XX=             -8.2151   YY=             -8.3037   ZZ=             -8.3800
   XY=             -0.0004   XZ=             -0.0201   YZ=             -0.0047

 Normal termination of Gaussian 16 at Wed Jun  5 16:59:12 2019.
