 Gaussian 16, Revision A.03,
 Gaussian 16:  ES64L-G16RevA.03 25-Dec-2016

 ----------------
 # 6-31g(d) wb97x
 ----------------

 ------------------------
 tmpdir/M2_conf_1_115.gjf
 ------------------------
 Symbolic Z-matrix:
 Charge =  0 Multiplicity = 1

                         Standard orientation:
 ---------------------------------------------------------------------
 Center     Atomic      Atomic             Coordinates (Angstroms)
 Number     Number       Type             X           Y           Z
 ---------------------------------------------------------------------
      1          6           0        0.690270    0.504095   -0.004707
      2          6           0       -0.702622    0.502237   -0.000408
      3          1           0       -1.255115    1.439494   -0.007066
      4          1           0        1.198921    1.492223    0.022840
      5          8           0        1.314981   -0.554856    0.000043
      6          8           0       -1.298693   -0.566358    0.001822
 ---------------------------------------------------------------------

 SCF Done:  E(RwB97X) =  -227.738503449     A.U. after   16 cycles

 The electronic state is 1-A.
 Alpha  occ. eigenvalues --  -19.25581 -19.25413 -10.38293 -10.37954  -1.21776
 Alpha  occ. eigenvalues --   -1.17585  -0.87847  -0.69018  -0.66828  -0.58229
 Alpha  occ. eigenvalues --   -0.56404  -0.55240  -0.47943  -0.41123  -0.38155
 Alpha virt. eigenvalues --   -0.03630   0.14315   0.20224   0.23589   0.27330
 Alpha virt. eigenvalues --    0.41343   0.49010   0.58836   0.61688   0.67336
 Alpha virt. eigenvalues --    0.69948   0.77542   0.77879   0.85691   0.92013

 Mulliken charges:
               1
     1  C    0.183068
     2  C    0.176729
     3  H    0.156748
     4  H    0.148223
     5  O   -0.334745
     6  O   -0.330023
 Sum of Mulliken charges =  -0.00000

 Dipole moment (field-independent basis, Debye):
    X=             -0.0974    Y=              3.6237    Z=             -0.0049  Tot=              3.6250
 Quadrupole moment (field-independent basis, Debye-Ang):
   XX=            -25.5126   YY=            -21.1939   ZZ=            -20.8228
   XY=             -0.1258   XZ=              0.0157   YZ=              0.0049

 Normal termination of Gaussian 16 at Wed Jun  5 17:02:06 2019.
