 Gaussian 16, Revision A.03,
 Gaussian 16:  ES64L-G16RevA.03 25-Dec-2016

 ----------------
 # 6-31g(d) wb97x
 ----------------

 ------------------------
 tmpdir/M2_conf_0_137.gjf
 ------------------------
 Symbolic Z-matrix:
 Charge =  0 Multiplicity = 1

                         Standard orientation:
 ---------------------------------------------------------------------
 Center     Atomic      Atomic             Coordinates (Angstroms)
 Number     Number       Type             X           Y           Z
 ---------------------------------------------------------------------
      1          6           0       -0.168508    0.464980   -0.003521
      2          7           0        1.069082   -0.136006    0.000083
      3          1           0       -0.293301    1.468526   -0.010455
      4          8           0       -1.152606   -0.296623    0.003611
      5          1           0        1.075962   -1.144474   -0.024624
      6          1           0        1.965664    0.211096    0.026732
 ---------------------------------------------------------------------

 SCF Done:  E(RwB97X) =  -169.826652958     A.U. after   15 cycles

 The electronic state is 1-A.
 Alpha  occ. eigenvalues --  -19.17679 -14.43225 -10.37201  -1.14644  -1.02551
 Alpha  occ. eigenvalues --   -0.76213  -0.67685  -0.59708  -0.51067  -0.50497
 Alpha  occ. eigenvalues --   -0.36318  -0.35381
 Alpha virt. eigenvalues --    0.11424   0.19028   0.23252   0.27044   0.35660
 Alpha virt. eigenvalues --    0.43342   0.64257   0.64513   0.75265   0.78172
 Alpha virt. eigenvalues --    0.82702   0.84110   0.98885   1.00213   1.02663

 Mulliken charges:
               1
     1  C    0.354433
     2  N   -0.750954
     3  H    0.163957
     4  O   -0.473820
     5  H    0.359169
     6  H    0.347216
 Sum of Mulliken charges =  -0.00000

 Dipole moment (field-independent basis, Debye):
    X=              3.6473    Y=              1.1453    Z=             -0.0086  Tot=              3.8229
 Quadrupole moment (field-independent basis, Debye-Ang):
   XX=            -17.0425   YY=            -14.6136   ZZ=            -18.3618
   XY=             -1.8412   XZ=              0.0717   YZ=              0.0728

 Normal termination of Gaussian 16 at Wed Jun  5 17:00:18 2019.
