 Gaussian 16, Revision A.03,
 Gaussian 16:  ES64L-G16RevA.03 25-Dec-2016

 ----------------
 # 6-31g(d) wb97x
 ----------------

 ------------------------
 tmpdir/M2_conf_1_164.gjf
 ------------------------
 Symbolic Z-matrix:
 Charge =  0 Multiplicity = 1

                         Standard orientation:
 ---------------------------------------------------------------------
 Center     Atomic      Atomic             Coordinates (Angstroms)
 Number     Number       Type             X           Y           Z
 ---------------------------------------------------------------------
      1          1           0       -1.303006    0.892510    0.017496
      2          6           0       -0.702469   -0.009105   -0.002950
      3          6           0        0.690430    0.007855   -0.000837
      4          1           0       -1.129665   -0.920334   -0.003100
      5          1           0        1.247958   -0.885773    0.014532
      6          1           0        1.256947    0.921096   -0.006209
 ---------------------------------------------------------------------

 SCF Done:  E(RwB97X) =  -78.5460691945     A.U. after   13 cycles

 The electronic state is 1-A.
 Alpha  occ. eigenvalues --  -10.26987 -10.26649  -0.87650  -0.70893  -0.58116
 Alpha  occ. eigenvalues --   -0.51169  -0.47082  -0.35651
 Alpha virt. eigenvalues --    0.09933   0.22573   0.25363   0.27033   0.34982
 Alpha virt. eigenvalues --    0.40915   0.59902   0.66066   0.66596   0.74563
 Alpha virt. eigenvalues --    0.75759   0.77604   0.99851   1.00658   1.07008

 Mulliken charges:
               1
     1  H    0.168430
     2  C   -0.329653
     3  C   -0.337851
     4  H    0.169134
     5  H    0.166719
     6  H    0.163221
 Sum of Mulliken charges =  -0.00000

 Dipole moment (field-independent basis, Debye):
    X=              0.0108    Y=             -0.0384    Z=              0.0215  Tot=              0.0453
 Quadrupole moment (field-independent basis, Debye-Ang):
   XX=            -11.7968   YY=            -11.9742   ZZ=            -15.1473
   XY=             -0.1139   XZ=             -0.0095   YZ=              0.0006

 Normal termination of Gaussian 16 at Wed Jun  5 17:02:56 2019.
