 Gaussian 16, Revision A.03,
 Gaussian 16:  ES64L-G16RevA.03 25-Dec-2016

 ----------------
 # 6-31g(d) wb97x
 ----------------

 ------------------------
 tmpdir/M2_conf_2_123.gjf
 ------------------------
 Symbolic Z-matrix:
 Charge =  0 Multiplicity = 1

                         Standard orientation:
 ---------------------------------------------------------------------
 Center     Atomic      Atomic             Coordinates (Angstroms)
 Number     Number       Type             X           Y           Z
 ---------------------------------------------------------------------
      1          6           0       -0.229523    0.437634    0.000234
      2          6           0        1.167205   -0.140106   -0.000134
      3          1           0       -0.369093    1.433499   -0.000706
      4          8           0       -1.235518   -0.294825    0.000024
      5          1           0        1.912361    0.660034   -0.006314
      6          1           0        1.354649   -0.765266   -0.883104
      7          1           0        1.360133   -0.754835    0.889332
 ---------------------------------------------------------------------

 SCF Done:  E(RwB97X) =  -153.774279807     A.U. after   14 cycles

 The electronic state is 1-A.
 Alpha  occ. eigenvalues --  -19.21299 -10.35895 -10.28040  -1.15127  -0.87975
 Alpha  occ. eigenvalues --   -0.72390  -0.58869  -0.55002  -0.53956  -0.49859
 Alpha  occ. eigenvalues --   -0.45473  -0.35648
 Alpha virt. eigenvalues --    0.06190   0.20875   0.22510   0.27199   0.28241
 Alpha virt. eigenvalues --    0.34858   0.36573   0.63172   0.63525   0.67878
 Alpha virt. eigenvalues --    0.72162   0.75787   0.83058   0.87449   0.96240

 Mulliken charges:
               1
     1  C    0.225857
     2  C   -0.561984
     3  H    0.155974
     4  O   -0.396169
     5  H    0.165188
     6  H    0.205636
     7  H    0.205499
 Sum of Mulliken charges =  -0.00000

 Dipole moment (field-independent basis, Debye):
    X=              2.4982    Y=              1.2432    Z=              0.0011  Tot=              2.7904
 Quadrupole moment (field-independent basis, Debye-Ang):
   XX=            -20.6710   YY=            -17.3326   ZZ=            -17.4649
   XY=             -1.4108   XZ=              0.0038   YZ=              0.0012

 Normal termination of Gaussian 16 at Wed Jun  5 17:04:42 2019.
