 Gaussian 16, Revision A.03,
 Gaussian 16:  ES64L-G16RevA.03 25-Dec-2016

 ----------------
 # 6-31g(d) wb97x
 ----------------

 ----------------------
 tmpdir/M2_conf_2_5.gjf
 ----------------------
 Symbolic Z-matrix:
 Charge =  0 Multiplicity = 1

                         Standard orientation:
 ---------------------------------------------------------------------
 Center     Atomic      Atomic             Coordinates (Angstroms)
 Number     Number       Type             X           Y           Z
 ---------------------------------------------------------------------
      1          1           0       -1.112681   -0.076806   -1.051950
      2          6           0       -0.761046    0.000983   -0.005169
      3          6           0        0.760725    0.001597    0.004624
      4          1           0       -1.130601   -0.875027    0.541050
      5          1           0       -1.161544    0.946244    0.501221
      6          1           0        1.129756   -0.891259   -0.514189
      7          1           0        1.112880   -0.047459    1.054555
      8          1           0        1.164113    0.928826   -0.527420
 ---------------------------------------------------------------------

 SCF Done:  E(RwB97X) =  -79.7971891058     A.U. after   12 cycles

 The electronic state is 1-A.
 Alpha  occ. eigenvalues --  -10.26090 -10.26071  -0.87879  -0.72422  -0.54444
 Alpha  occ. eigenvalues --   -0.54046  -0.45990  -0.43988  -0.43704
 Alpha virt. eigenvalues --    0.19223   0.25219   0.25261   0.25861   0.28133
 Alpha virt. eigenvalues --    0.28362   0.33588   0.61334   0.66151   0.66188
 Alpha virt. eigenvalues --    0.73838   0.74696   0.78851   0.97496   0.98852

 Mulliken charges:
               1
     1  H    0.154768
     2  C   -0.457702
     3  C   -0.457962
     4  H    0.156848
     5  H    0.146214
     6  H    0.156640
     7  H    0.154285
     8  H    0.146908
 Sum of Mulliken charges =  -0.00000

 Dipole moment (field-independent basis, Debye):
    X=              0.0008    Y=             -0.0856    Z=             -0.0000  Tot=              0.0856
 Quadrupole moment (field-independent basis, Debye-Ang):
   XX=            -15.7364   YY=            -14.6819   ZZ=            -14.6509
   XY=              0.0050   XZ=             -0.0540   YZ=             -0.0021

 Normal termination of Gaussian 16 at Wed Jun  5 17:03:30 2019.
