 Gaussian 16, Revision A.03,
 Gaussian 16:  ES64L-G16RevA.03 25-Dec-2016

 ----------------
 # 6-31g(d) wb97x
 ----------------

 ------------------------
 tmpdir/M2_conf_1_170.gjf
 ------------------------
 Symbolic Z-matrix:
 Charge =  0 Multiplicity = 1

                         Standard orientation:
 ---------------------------------------------------------------------
 Center     Atomic      Atomic             Coordinates (Angstroms)
 Number     Number       Type             X           Y           Z
 ---------------------------------------------------------------------
      1          6           0        0.746468    0.476626   -0.006094
      2          6           0       -0.654398    0.501825   -0.001385
      3          1           0        1.331188    1.378322   -0.001516
      4          6           0        1.372342   -0.770378    0.004939
      5          6           0       -1.488199   -0.679688   -0.001736
      6          1           0       -1.188464    1.451368    0.027173
 ---------------------------------------------------------------------

 SCF Done:  E(RwB97X) =  -153.239531536     A.U. after   20 cycles

 The electronic state is 1-A.
 Alpha  occ. eigenvalues --  -10.36973 -10.36498 -10.31831 -10.31170  -0.97278
 Alpha  occ. eigenvalues --   -0.84062  -0.71868  -0.60824  -0.59130  -0.46203
 Alpha  occ. eigenvalues --   -0.42490  -0.40153  -0.32910
 Alpha virt. eigenvalues --   -0.03271   0.00185   0.02041   0.16135   0.21093
 Alpha virt. eigenvalues --    0.25004   0.33824   0.45385   0.46793   0.58968
 Alpha virt. eigenvalues --    0.61091   0.62380   0.66132   0.66624   0.69173

 Mulliken charges:
               1
     1  C   -0.254193
     2  C   -0.293534
     3  H    0.234255
     4  C    0.037804
     5  C    0.044093
     6  H    0.231576
 Sum of Mulliken charges =  -0.00000

 Dipole moment (field-independent basis, Debye):
    X=              0.3528    Y=              3.3074    Z=              0.0248  Tot=              3.3262
 Quadrupole moment (field-independent basis, Debye-Ang):
   XX=            -24.4004   YY=            -23.3718   ZZ=            -25.6121
   XY=              0.0043   XZ=             -0.0870   YZ=              0.0727

 Normal termination of Gaussian 16 at Wed Jun  5 17:02:41 2019.
