 Gaussian 16, Revision A.03,
 Gaussian 16:  ES64L-G16RevA.03 25-Dec-2016

 ----------------
 # 6-31g(d) wb97x
 ----------------

 ----------------------
 tmpdir/M2_conf_0_8.gjf
 ----------------------
 Symbolic Z-matrix:
 Charge =  0 Multiplicity = 1

                         Standard orientation:
 ---------------------------------------------------------------------
 Center     Atomic      Atomic             Coordinates (Angstroms)
 Number     Number       Type             X           Y           Z
 ---------------------------------------------------------------------
      1          1           0        1.088910    0.906395   -0.472121
      2          6           0        0.706795   -0.000309    0.011810
      3          7           0       -0.744231   -0.002338   -0.112040
      4          1           0        1.027637    0.017734    1.071144
      5          1           0        1.138090   -0.887872   -0.477816
      6          1           0       -1.127359   -0.852582    0.303087
      7          1           0       -1.158431    0.834545    0.289126
 ---------------------------------------------------------------------

 SCF Done:  E(RwB97X) =  -95.8214371768     A.U. after   13 cycles

 The electronic state is 1-A.
 Alpha  occ. eigenvalues --  -14.38002 -10.28044  -0.99337  -0.77353  -0.60142
 Alpha  occ. eigenvalues --   -0.53545  -0.50468  -0.47013  -0.32151
 Alpha virt. eigenvalues --    0.18420   0.24206   0.25477   0.27605   0.29028
 Alpha virt. eigenvalues --    0.34129   0.66045   0.67722   0.69757   0.84789
 Alpha virt. eigenvalues --    0.87433   0.89578   0.97749   1.02436   1.04635

 Mulliken charges:
               1
     1  H    0.162104
     2  C   -0.327403
     3  N   -0.743199
     4  H    0.128414
     5  H    0.162599
     6  H    0.307251
     7  H    0.310234
 Sum of Mulliken charges =  -0.00000

 Dipole moment (field-independent basis, Debye):
    X=              0.1586    Y=              0.0126    Z=              1.3469  Tot=              1.3563
 Quadrupole moment (field-independent basis, Debye-Ang):
   XX=            -13.6111   YY=            -12.1167   ZZ=            -15.2708
   XY=             -0.0891   XZ=             -2.0308   YZ=             -0.0185

 Normal termination of Gaussian 16 at Wed Jun  5 16:59:30 2019.
