 Gaussian 16, Revision A.03,
 Gaussian 16:  ES64L-G16RevA.03 25-Dec-2016

 ----------------
 # 6-31g(d) wb97x
 ----------------

 ------------------------
 tmpdir/M2_conf_2_154.gjf
 ------------------------
 Symbolic Z-matrix:
 Charge =  0 Multiplicity = 1

                         Standard orientation:
 ---------------------------------------------------------------------
 Center     Atomic      Atomic             Coordinates (Angstroms)
 Number     Number       Type             X           Y           Z
 ---------------------------------------------------------------------
      1          6           0       -0.706621    0.499298    0.003131
      2          7           0        0.630398    0.667685   -0.003949
      3          6           0        1.375204   -0.428272    0.000632
      4          1           0       -1.247891    1.433511    0.007495
      5          8           0       -1.327742   -0.612800   -0.001570
      6          1           0        2.453355   -0.272137    0.005547
      7          1           0        0.992186   -1.358926    0.004585
 ---------------------------------------------------------------------

 SCF Done:  E(RwB97X) =  -207.874540137     A.U. after   17 cycles

 The electronic state is 1-A.
 Alpha  occ. eigenvalues --  -19.21875 -14.43552 -10.38386 -10.35633  -1.16024
 Alpha  occ. eigenvalues --   -1.05776  -0.84381  -0.70261  -0.64680  -0.57205
 Alpha  occ. eigenvalues --   -0.54389  -0.52987  -0.41608  -0.40392  -0.37088
 Alpha virt. eigenvalues --   -0.01553   0.14356   0.21674   0.24328   0.28096
 Alpha virt. eigenvalues --    0.32494   0.36867   0.45160   0.60113   0.63422
 Alpha virt. eigenvalues --    0.66933   0.68507   0.74594   0.74689   0.78513

 Mulliken charges:
               1
     1  C    0.291133
     2  N   -0.350092
     3  C   -0.101599
     4  H    0.167268
     5  O   -0.423955
     6  H    0.199908
     7  H    0.217339
 Sum of Mulliken charges =   0.00000

 Dipole moment (field-independent basis, Debye):
    X=              2.2218    Y=             -0.0808    Z=              0.0222  Tot=              2.2234
 Quadrupole moment (field-independent basis, Debye-Ang):
   XX=            -22.1292   YY=            -23.3512   ZZ=            -22.6147
   XY=             -5.5975   XZ=              0.0120   YZ=              0.0067

 Normal termination of Gaussian 16 at Wed Jun  5 17:05:10 2019.
