 Gaussian 16, Revision A.03,
 Gaussian 16:  ES64L-G16RevA.03 25-Dec-2016

 ----------------
 # 6-31g(d) wb97x
 ----------------

 ------------------------
 tmpdir/M2_conf_1_183.gjf
 ------------------------
 Symbolic Z-matrix:
 Charge =  0 Multiplicity = 1

                         Standard orientation:
 ---------------------------------------------------------------------
 Center     Atomic      Atomic             Coordinates (Angstroms)
 Number     Number       Type             X           Y           Z
 ---------------------------------------------------------------------
      1          1           0       -1.249394    0.923682    0.006645
      2          6           0       -0.701384   -0.013999   -0.000682
      3          6           0        0.689667   -0.003011   -0.000505
      4          1           0       -1.194150   -0.888641   -0.002742
      5          1           0        1.236048    0.939234   -0.003221
      6          1           0        1.277801   -0.872215    0.006439
 ---------------------------------------------------------------------

 SCF Done:  E(RwB97X) =  -78.5464823209     A.U. after   13 cycles

 The electronic state is 1-A.
 Alpha  occ. eigenvalues --  -10.27098 -10.26655  -0.87601  -0.70933  -0.58027
 Alpha  occ. eigenvalues --   -0.51296  -0.46914  -0.35695
 Alpha virt. eigenvalues --    0.09958   0.22329   0.25593   0.26864   0.34885
 Alpha virt. eigenvalues --    0.41102   0.60046   0.65695   0.66557   0.74554
 Alpha virt. eigenvalues --    0.75851   0.77648   0.99162   1.00459   1.07006

 Mulliken charges:
               1
     1  H    0.164614
     2  C   -0.329780
     3  C   -0.335480
     4  H    0.171822
     5  H    0.159997
     6  H    0.168828
 Sum of Mulliken charges =   0.00000

 Dipole moment (field-independent basis, Debye):
    X=              0.0090    Y=             -0.0306    Z=              0.0067  Tot=              0.0326
 Quadrupole moment (field-independent basis, Debye-Ang):
   XX=            -11.7748   YY=            -11.9975   ZZ=            -15.1534
   XY=             -0.0575   XZ=             -0.0005   YZ=              0.0004

 Normal termination of Gaussian 16 at Wed Jun  5 17:03:03 2019.
