 Gaussian 16, Revision A.03,
 Gaussian 16:  ES64L-G16RevA.03 25-Dec-2016

 ----------------
 # 6-31g(d) wb97x
 ----------------

 ------------------------
 tmpdir/M2_conf_1_111.gjf
 ------------------------
 Symbolic Z-matrix:
 Charge =  0 Multiplicity = 1

                         Standard orientation:
 ---------------------------------------------------------------------
 Center     Atomic      Atomic             Coordinates (Angstroms)
 Number     Number       Type             X           Y           Z
 ---------------------------------------------------------------------
      1          6           0       -1.415289   -0.472402   -0.005281
      2          6           0       -0.594185    0.654838   -0.000057
      3          6           0        0.792912    0.487962   -0.000810
      4          1           0       -2.524191   -0.397877    0.020328
      5          1           0       -1.013752   -1.397286   -0.000153
      6          1           0       -1.020903    1.644228    0.004833
      7          8           0        1.294887   -0.650690    0.001782
      8          1           0        1.499120    1.334069   -0.002377
 ---------------------------------------------------------------------

 SCF Done:  E(RwB97X) =  -191.836275901     A.U. after   14 cycles

 The electronic state is 1-A.
 Alpha  occ. eigenvalues --  -19.20356 -10.35385 -10.30431 -10.29104  -1.14919
 Alpha  occ. eigenvalues --   -0.92240  -0.79357  -0.66707  -0.63072  -0.55486
 Alpha  occ. eigenvalues --   -0.52222  -0.50003  -0.49218  -0.37028  -0.35556
 Alpha virt. eigenvalues --    0.00848   0.16989   0.20025   0.23879   0.26323
 Alpha virt. eigenvalues --    0.29958   0.34821   0.41377   0.45837   0.62058
 Alpha virt. eigenvalues --    0.62804   0.68549   0.68791   0.70451   0.74319

 Mulliken charges:
               1
     1  C   -0.298612
     2  C   -0.192562
     3  C    0.204449
     4  H    0.179685
     5  H    0.215336
     6  H    0.173045
     7  O   -0.422049
     8  H    0.140707
 Sum of Mulliken charges =  -0.00000

 Dipole moment (field-independent basis, Debye):
    X=             -2.1812    Y=              1.7421    Z=              0.0138  Tot=              2.7916
 Quadrupole moment (field-independent basis, Debye-Ang):
   XX=            -23.1232   YY=            -21.8421   ZZ=            -24.3744
   XY=              3.3543   XZ=             -0.0541   YZ=              0.0012

 Normal termination of Gaussian 16 at Wed Jun  5 17:02:08 2019.
