 Gaussian 16, Revision A.03,
 Gaussian 16:  ES64L-G16RevA.03 25-Dec-2016

 ----------------
 # 6-31g(d) wb97x
 ----------------

 ------------------------
 tmpdir/M2_conf_1_125.gjf
 ------------------------
 Symbolic Z-matrix:
 Charge =  0 Multiplicity = 1

                         Standard orientation:
 ---------------------------------------------------------------------
 Center     Atomic      Atomic             Coordinates (Angstroms)
 Number     Number       Type             X           Y           Z
 ---------------------------------------------------------------------
      1          6           0        0.791302   -0.634046   -0.002119
      2          6           0       -0.364624    0.136478   -0.000054
      3          6           0       -1.721007   -0.522529    0.000757
      4          8           0        1.906467   -0.130467    0.001705
      5          1           0        0.697856   -1.718026   -0.003634
      6          8           0       -0.243044    1.374921   -0.000630
      7          1           0       -1.617678   -1.611017   -0.005309
      8          1           0       -2.313566   -0.247646   -0.881799
      9          1           0       -2.308023   -0.258361    0.890636
 ---------------------------------------------------------------------

 SCF Done:  E(RwB97X) =  -267.053508064     A.U. after   15 cycles

 The electronic state is 1-A.
 Alpha  occ. eigenvalues --  -19.24754 -19.23650 -10.37821 -10.37277 -10.29600
 Alpha  occ. eigenvalues --   -1.20635  -1.16223  -0.92009  -0.82538  -0.67500
 Alpha  occ. eigenvalues --   -0.62316  -0.58530  -0.58407  -0.53486  -0.52223
 Alpha  occ. eigenvalues --   -0.52096  -0.45746  -0.39996  -0.37078
 Alpha virt. eigenvalues --   -0.02970   0.14762   0.18274   0.21409   0.26110
 Alpha virt. eigenvalues --    0.26340   0.30646   0.31350   0.44475   0.52384
 Alpha virt. eigenvalues --    0.57645   0.59755   0.66756   0.69302   0.73359

 Mulliken charges:
               1
     1  C    0.165989
     2  C    0.395259
     3  C   -0.586278
     4  O   -0.333512
     5  H    0.143087
     6  O   -0.391594
     7  H    0.172508
     8  H    0.217339
     9  H    0.217203
 Sum of Mulliken charges =  -0.00000

 Dipole moment (field-independent basis, Debye):
    X=             -2.8211    Y=             -3.1584    Z=             -0.0030  Tot=              4.2349
 Quadrupole moment (field-independent basis, Debye-Ang):
   XX=            -30.9759   YY=            -30.5444   ZZ=            -26.8474
   XY=              0.3080   XZ=             -0.0117   YZ=             -0.0007

 Normal termination of Gaussian 16 at Wed Jun  5 17:02:23 2019.
