 Gaussian 16, Revision A.03,
 Gaussian 16:  ES64L-G16RevA.03 25-Dec-2016

 ----------------
 # 6-31g(d) wb97x
 ----------------

 ------------------------
 tmpdir/M2_conf_2_146.gjf
 ------------------------
 Symbolic Z-matrix:
 Charge =  0 Multiplicity = 1

                         Standard orientation:
 ---------------------------------------------------------------------
 Center     Atomic      Atomic             Coordinates (Angstroms)
 Number     Number       Type             X           Y           Z
 ---------------------------------------------------------------------
      1          6           0        0.622748    0.028124   -0.000845
      2          7           0       -0.704512   -0.133785    0.000626
      3          1           0        1.282792   -0.826327    0.000354
      4          1           0        1.142796    0.950856    0.002614
      5          1           0       -1.230494    0.643226   -0.002278
 ---------------------------------------------------------------------

 SCF Done:  E(RwB97X) =  -94.5792852607     A.U. after   13 cycles

 The electronic state is 1-A.
 Alpha  occ. eigenvalues --  -14.40472 -10.32370  -1.01174  -0.76768  -0.61209
 Alpha  occ. eigenvalues --   -0.54330  -0.41655  -0.36599
 Alpha virt. eigenvalues --    0.07032   0.21938   0.23881   0.29049   0.39655
 Alpha virt. eigenvalues --    0.65464   0.68318   0.70382   0.78144   0.83690
 Alpha virt. eigenvalues --    0.87218   0.96423   1.05318   1.09000   1.15816

 Mulliken charges:
               1
     1  C   -0.152421
     2  N   -0.505122
     3  H    0.176745
     4  H    0.158265
     5  H    0.322534
 Sum of Mulliken charges =  -0.00000

 Dipole moment (field-independent basis, Debye):
    X=              1.2662    Y=              1.6500    Z=             -0.0021  Tot=              2.0799
 Quadrupole moment (field-independent basis, Debye-Ang):
   XX=            -11.1420   YY=            -12.3183   ZZ=            -13.3355
   XY=             -2.1590   XZ=              0.0076   YZ=             -0.0002

 Normal termination of Gaussian 16 at Wed Jun  5 17:04:34 2019.
