 Gaussian 16, Revision A.03,
 Gaussian 16:  ES64L-G16RevA.03 25-Dec-2016

 ----------------
 # 6-31g(d) wb97x
 ----------------

 ------------------------
 tmpdir/M2_conf_0_158.gjf
 ------------------------
 Symbolic Z-matrix:
 Charge =  0 Multiplicity = 1

                         Standard orientation:
 ---------------------------------------------------------------------
 Center     Atomic      Atomic             Coordinates (Angstroms)
 Number     Number       Type             X           Y           Z
 ---------------------------------------------------------------------
      1          7           0       -1.366592   -0.503265    0.001932
      2          6           0       -0.646601    0.609151   -0.003823
      3          6           0        0.740754    0.520380   -0.000681
      4          1           0       -0.871281   -1.306224    0.012430
      5          1           0       -1.209762    1.541695   -0.005174
      6          1           0        1.360156    1.408998    0.025204
      7          8           0        1.215265   -0.612350   -0.002369
 ---------------------------------------------------------------------

 SCF Done:  E(RwB97X) =  -207.865094036     A.U. after   16 cycles

 The electronic state is 1-A.
 Alpha  occ. eigenvalues --  -19.23859 -14.42456 -10.37558 -10.33309  -1.19363
 Alpha  occ. eigenvalues --   -1.03905  -0.85184  -0.70983  -0.65316  -0.59701
 Alpha  occ. eigenvalues --   -0.53855  -0.53441  -0.42090  -0.39534  -0.38388
 Alpha virt. eigenvalues --   -0.01731   0.15206   0.20983   0.24607   0.24955
 Alpha virt. eigenvalues --    0.33060   0.43282   0.48497   0.60552   0.62663
 Alpha virt. eigenvalues --    0.68972   0.69838   0.74626   0.78262   0.82407

 Mulliken charges:
               1
     1  N   -0.464818
     2  C   -0.046510
     3  C    0.213780
     4  H    0.344180
     5  H    0.188736
     6  H    0.159570
     7  O   -0.394938
 Sum of Mulliken charges =   0.00000

 Dipole moment (field-independent basis, Debye):
    X=              0.5860    Y=              2.2385    Z=              0.0205  Tot=              2.3140
 Quadrupole moment (field-independent basis, Debye-Ang):
   XX=            -28.7275   YY=            -19.4882   ZZ=            -22.6027
   XY=              1.4327   XZ=              0.0090   YZ=             -0.0192

 Normal termination of Gaussian 16 at Wed Jun  5 17:00:40 2019.
