 Gaussian 16, Revision A.03,
 Gaussian 16:  ES64L-G16RevA.03 25-Dec-2016

 ----------------
 # 6-31g(d) wb97x
 ----------------

 ------------------------
 tmpdir/M2_conf_0_109.gjf
 ------------------------
 Symbolic Z-matrix:
 Charge =  0 Multiplicity = 1

                         Standard orientation:
 ---------------------------------------------------------------------
 Center     Atomic      Atomic             Coordinates (Angstroms)
 Number     Number       Type             X           Y           Z
 ---------------------------------------------------------------------
      1          6           0       -0.716914    0.486135    0.001311
      2          6           0        0.693974    0.491115   -0.001583
      3          6           0       -1.400635   -0.729359   -0.001496
      4          1           0       -1.256341    1.418870    0.005992
      5          6           0        1.417834   -0.720641    0.001617
      6          1           0        1.290792    1.417631   -0.005089
 ---------------------------------------------------------------------

 SCF Done:  E(RwB97X) =  -153.246394296     A.U. after   17 cycles

 The electronic state is 1-A.
 Alpha  occ. eigenvalues --  -10.36462 -10.36360 -10.31662 -10.31299  -0.97441
 Alpha  occ. eigenvalues --   -0.84480  -0.71830  -0.60242  -0.59550  -0.46353
 Alpha  occ. eigenvalues --   -0.42466  -0.40119  -0.33258
 Alpha virt. eigenvalues --   -0.03326   0.00364   0.02513   0.16379   0.20955
 Alpha virt. eigenvalues --    0.24719   0.34649   0.45130   0.47609   0.58473
 Alpha virt. eigenvalues --    0.61012   0.62910   0.65992   0.66681   0.69180

 Mulliken charges:
               1
     1  C   -0.265155
     2  C   -0.279174
     3  C    0.035766
     4  H    0.235661
     5  C    0.038225
     6  H    0.234677
 Sum of Mulliken charges =  -0.00000

 Dipole moment (field-independent basis, Debye):
    X=             -0.0415    Y=              3.4109    Z=              0.0012  Tot=              3.4112
 Quadrupole moment (field-independent basis, Debye-Ang):
   XX=            -24.1855   YY=            -23.4490   ZZ=            -25.5581
   XY=              0.0649   XZ=             -0.0359   YZ=              0.0019

 Normal termination of Gaussian 16 at Wed Jun  5 17:00:25 2019.
