 Gaussian 16, Revision A.03,
 Gaussian 16:  ES64L-G16RevA.03 25-Dec-2016

 ----------------
 # 6-31g(d) wb97x
 ----------------

 ------------------------
 tmpdir/M2_conf_2_100.gjf
 ------------------------
 Symbolic Z-matrix:
 Charge =  0 Multiplicity = 1

                         Standard orientation:
 ---------------------------------------------------------------------
 Center     Atomic      Atomic             Coordinates (Angstroms)
 Number     Number       Type             X           Y           Z
 ---------------------------------------------------------------------
      1          6           0       -0.167057    0.392225   -0.014484
      2          7           0        1.086705   -0.159231   -0.021798
      3          1           0        1.851139    0.476678    0.149485
      4          1           0       -0.189098    1.479678   -0.021135
      5          8           0       -1.199944   -0.259618    0.013698
      6          1           0        1.332920   -1.118149    0.001559
 ---------------------------------------------------------------------

 SCF Done:  E(RwB97X) =  -169.839772929     A.U. after   16 cycles

 The electronic state is 1-A.
 Alpha  occ. eigenvalues --  -19.18146 -14.43862 -10.37538  -1.15389  -1.03501
 Alpha  occ. eigenvalues --   -0.75335  -0.65805  -0.60320  -0.51711  -0.50810
 Alpha  occ. eigenvalues --   -0.37158  -0.35535
 Alpha virt. eigenvalues --    0.12319   0.17904   0.20846   0.27671   0.36514
 Alpha virt. eigenvalues --    0.44326   0.64268   0.65708   0.75269   0.79458
 Alpha virt. eigenvalues --    0.81111   0.83191   0.95747   0.98115   0.99608

 Mulliken charges:
               1
     1  C    0.344311
     2  N   -0.738867
     3  H    0.342541
     4  H    0.135359
     5  O   -0.449623
     6  H    0.366279
 Sum of Mulliken charges =  -0.00000

 Dipole moment (field-independent basis, Debye):
    X=              3.8072    Y=              0.9797    Z=              0.2729  Tot=              3.9407
 Quadrupole moment (field-independent basis, Debye-Ang):
   XX=            -17.3358   YY=            -14.7574   ZZ=            -18.3906
   XY=             -1.4453   XZ=              0.6966   YZ=              0.1439

 Normal termination of Gaussian 16 at Wed Jun  5 17:03:59 2019.
