 Gaussian 16, Revision A.03,
 Gaussian 16:  ES64L-G16RevA.03 25-Dec-2016

 ----------------
 # 6-31g(d) wb97x
 ----------------

 ------------------------
 tmpdir/M2_conf_1_173.gjf
 ------------------------
 Symbolic Z-matrix:
 Charge =  0 Multiplicity = 1

                         Standard orientation:
 ---------------------------------------------------------------------
 Center     Atomic      Atomic             Coordinates (Angstroms)
 Number     Number       Type             X           Y           Z
 ---------------------------------------------------------------------
      1          6           0        1.414228   -0.509437    0.002453
      2          6           0        0.632194    0.646072   -0.006591
      3          6           0       -0.757175    0.501348   -0.000704
      4          1           0        2.497371   -0.444690    0.009094
      5          1           0        0.956903   -1.403119    0.004553
      6          1           0        1.095155    1.615930   -0.001580
      7          8           0       -1.360288   -0.621870   -0.001545
      8          1           0       -1.402604    1.378945    0.029344
 ---------------------------------------------------------------------

 SCF Done:  E(RwB97X) =  -191.833712478     A.U. after   16 cycles

 The electronic state is 1-A.
 Alpha  occ. eigenvalues --  -19.20451 -10.35547 -10.30442 -10.29331  -1.13232
 Alpha  occ. eigenvalues --   -0.92796  -0.79825  -0.66918  -0.63359  -0.55272
 Alpha  occ. eigenvalues --   -0.52330  -0.49464  -0.49192  -0.37103  -0.35515
 Alpha virt. eigenvalues --    0.00387   0.16551   0.20123   0.24094   0.26738
 Alpha virt. eigenvalues --    0.29962   0.34240   0.41112   0.45519   0.62083
 Alpha virt. eigenvalues --    0.62242   0.68653   0.68921   0.69666   0.73789

 Mulliken charges:
               1
     1  C   -0.295644
     2  C   -0.192098
     3  C    0.202111
     4  H    0.184893
     5  H    0.217777
     6  H    0.179198
     7  O   -0.439025
     8  H    0.142788
 Sum of Mulliken charges =  -0.00000

 Dipole moment (field-independent basis, Debye):
    X=              2.5227    Y=              1.7433    Z=              0.0231  Tot=              3.0666
 Quadrupole moment (field-independent basis, Debye-Ang):
   XX=            -23.5493   YY=            -21.6339   ZZ=            -24.3808
   XY=             -3.1750   XZ=              0.0079   YZ=              0.0017

 Normal termination of Gaussian 16 at Wed Jun  5 17:03:17 2019.
