 Gaussian 16, Revision A.03,
 Gaussian 16:  ES64L-G16RevA.03 25-Dec-2016

 ----------------
 # 6-31g(d) wb97x
 ----------------

 -----------------------
 tmpdir/M2_conf_0_95.gjf
 -----------------------
 Symbolic Z-matrix:
 Charge =  0 Multiplicity = 1

                         Standard orientation:
 ---------------------------------------------------------------------
 Center     Atomic      Atomic             Coordinates (Angstroms)
 Number     Number       Type             X           Y           Z
 ---------------------------------------------------------------------
      1          6           0        0.739290    0.510609    0.091220
      2          6           0       -0.752889    0.505979   -0.085383
      3          8           0       -1.331767   -0.557717    0.075855
      4          1           0        1.267649    1.329663    0.360866
      5          8           0        1.331037   -0.552962   -0.080789
      6          1           0       -1.180216    1.456243   -0.356415
 ---------------------------------------------------------------------

 SCF Done:  E(RwB97X) =  -227.739424446     A.U. after   16 cycles

 The electronic state is 1-A.
 Alpha  occ. eigenvalues --  -19.25452 -19.24706 -10.38745 -10.37489  -1.20969
 Alpha  occ. eigenvalues --   -1.17440  -0.85262  -0.71351  -0.65927  -0.57662
 Alpha  occ. eigenvalues --   -0.56470  -0.54004  -0.48425  -0.41715  -0.36855
 Alpha virt. eigenvalues --   -0.01593   0.11278   0.21761   0.23982   0.29041
 Alpha virt. eigenvalues --    0.38434   0.43455   0.60224   0.63676   0.66954
 Alpha virt. eigenvalues --    0.72775   0.75580   0.77322   0.84459   0.94192

 Mulliken charges:
               1
     1  C    0.166205
     2  C    0.181534
     3  O   -0.334565
     4  H    0.167051
     5  O   -0.338952
     6  H    0.158727
 Sum of Mulliken charges =  -0.00000

 Dipole moment (field-independent basis, Debye):
    X=             -0.0038    Y=              3.8261    Z=              0.0356  Tot=              3.8263
 Quadrupole moment (field-independent basis, Debye-Ang):
   XX=            -25.4712   YY=            -20.9302   ZZ=            -20.7932
   XY=              0.1445   XZ=              0.7407   YZ=             -0.0195

 Normal termination of Gaussian 16 at Wed Jun  5 16:59:43 2019.
