 Gaussian 16, Revision A.03,
 Gaussian 16:  ES64L-G16RevA.03 25-Dec-2016

 ----------------
 # 6-31g(d) wb97x
 ----------------

 -----------------------
 tmpdir/M2_conf_1_35.gjf
 -----------------------
 Symbolic Z-matrix:
 Charge =  0 Multiplicity = 1

                         Standard orientation:
 ---------------------------------------------------------------------
 Center     Atomic      Atomic             Coordinates (Angstroms)
 Number     Number       Type             X           Y           Z
 ---------------------------------------------------------------------
      1          6           0        0.768029    0.001097   -0.004508
      2          6           0       -0.767746    0.000636    0.004210
      3          1           0        1.170153    0.995554    0.389351
      4          1           0        1.137043   -0.807413    0.637717
      5          1           0        1.122650   -0.198281   -1.035870
      6          1           0       -1.137661   -0.944405   -0.408331
      7          1           0       -1.124141    0.078392    1.049595
      8          1           0       -1.169737    0.865750   -0.630677
 ---------------------------------------------------------------------

 SCF Done:  E(RwB97X) =  -79.7973136614     A.U. after   11 cycles

 The electronic state is 1-A.
 Alpha  occ. eigenvalues --  -10.26198 -10.26182  -0.87586  -0.72552  -0.54251
 Alpha  occ. eigenvalues --   -0.53896  -0.45806  -0.44102  -0.43834
 Alpha virt. eigenvalues --    0.19254   0.25149   0.25293   0.25903   0.28110
 Alpha virt. eigenvalues --    0.28363   0.33158   0.61769   0.65878   0.65952
 Alpha virt. eigenvalues --    0.73996   0.74835   0.78071   0.97573   0.99058

 Mulliken charges:
               1
     1  C   -0.459127
     2  C   -0.458997
     3  H    0.147364
     4  H    0.157111
     5  H    0.154815
     6  H    0.157606
     7  H    0.155059
     8  H    0.146168
 Sum of Mulliken charges =   0.00000

 Dipole moment (field-independent basis, Debye):
    X=              0.0005    Y=             -0.0844    Z=              0.0141  Tot=              0.0855
 Quadrupole moment (field-independent basis, Debye-Ang):
   XX=            -15.6829   YY=            -14.6842   ZZ=            -14.6742
   XY=              0.0104   XZ=              0.0431   YZ=              0.0132

 Normal termination of Gaussian 16 at Wed Jun  5 17:01:24 2019.
