 Gaussian 16, Revision A.03,
 Gaussian 16:  ES64L-G16RevA.03 25-Dec-2016

 ----------------
 # 6-31g(d) wb97x
 ----------------

 ----------------------
 tmpdir/M2_conf_1_8.gjf
 ----------------------
 Symbolic Z-matrix:
 Charge =  0 Multiplicity = 1

                         Standard orientation:
 ---------------------------------------------------------------------
 Center     Atomic      Atomic             Coordinates (Angstroms)
 Number     Number       Type             X           Y           Z
 ---------------------------------------------------------------------
      1          1           0       -1.118573   -0.897880   -0.465957
      2          6           0       -0.706830   -0.000618    0.011224
      3          7           0        0.744140    0.000236   -0.113223
      4          1           0       -1.012828   -0.009491    1.075058
      5          1           0       -1.122574    0.897050   -0.473405
      6          1           0        1.128199    0.849758    0.302514
      7          1           0        1.157774   -0.837380    0.287010
 ---------------------------------------------------------------------

 SCF Done:  E(RwB97X) =  -95.8213341150     A.U. after   13 cycles

 The electronic state is 1-A.
 Alpha  occ. eigenvalues --  -14.37979 -10.28052  -0.99329  -0.77351  -0.60127
 Alpha  occ. eigenvalues --   -0.53471  -0.50553  -0.47062  -0.32096
 Alpha virt. eigenvalues --    0.18414   0.24221   0.25448   0.27595   0.29052
 Alpha virt. eigenvalues --    0.34123   0.66056   0.67733   0.69717   0.84757
 Alpha virt. eigenvalues --    0.87552   0.89415   0.97777   1.02439   1.04634

 Mulliken charges:
               1
     1  H    0.162670
     2  C   -0.327461
     3  N   -0.743283
     4  H    0.128276
     5  H    0.162320
     6  H    0.307669
     7  H    0.309810
 Sum of Mulliken charges =  -0.00000

 Dipole moment (field-independent basis, Debye):
    X=             -0.1640    Y=             -0.0106    Z=              1.3505  Tot=              1.3604
 Quadrupole moment (field-independent basis, Debye-Ang):
   XX=            -13.6057   YY=            -12.1126   ZZ=            -15.2795
   XY=             -0.0476   XZ=              2.0495   YZ=              0.0173

 Normal termination of Gaussian 16 at Wed Jun  5 17:01:40 2019.
