 Gaussian 16, Revision A.03,
 Gaussian 16:  ES64L-G16RevA.03 25-Dec-2016

 ----------------
 # 6-31g(d) wb97x
 ----------------

 -----------------------
 tmpdir/M2_conf_0_84.gjf
 -----------------------
 Symbolic Z-matrix:
 Charge =  0 Multiplicity = 1

                         Standard orientation:
 ---------------------------------------------------------------------
 Center     Atomic      Atomic             Coordinates (Angstroms)
 Number     Number       Type             X           Y           Z
 ---------------------------------------------------------------------
      1          6           0        0.550252   -0.014715   -0.001083
      2          1           0        1.085839    0.930829    0.002183
      3          1           0        1.042839   -0.891051    0.002401
      4          8           0       -0.678773    0.006064    0.000239
 ---------------------------------------------------------------------

 SCF Done:  E(RwB97X) =  -114.457817930     A.U. after   13 cycles

 The electronic state is 1-A.
 Alpha  occ. eigenvalues --  -19.22974 -10.35907  -1.16904  -0.77299  -0.62275
 Alpha  occ. eigenvalues --   -0.54869  -0.49407  -0.36854
 Alpha virt. eigenvalues --    0.05525   0.21812   0.29683   0.31658   0.62188
 Alpha virt. eigenvalues --    0.70459   0.74695   0.78156   0.96632   0.97876
 Alpha virt. eigenvalues --    1.06178   1.07925   1.17904   1.48313   1.60857

 Mulliken charges:
               1
     1  C    0.054324
     2  H    0.139381
     3  H    0.158181
     4  O   -0.351887
 Sum of Mulliken charges =  -0.00000

 Dipole moment (field-independent basis, Debye):
    X=              2.4589    Y=             -0.1050    Z=              0.0005  Tot=              2.4611
 Quadrupole moment (field-independent basis, Debye-Ang):
   XX=            -11.7809   YY=            -11.2191   ZZ=            -11.3461
   XY=             -0.0750   XZ=              0.0019   YZ=              0.0002

 Normal termination of Gaussian 16 at Wed Jun  5 17:00:07 2019.
