 Gaussian 16, Revision A.03,
 Gaussian 16:  ES64L-G16RevA.03 25-Dec-2016

 ----------------
 # 6-31g(d) wb97x
 ----------------

 -----------------------
 tmpdir/M2_conf_1_85.gjf
 -----------------------
 Symbolic Z-matrix:
 Charge =  0 Multiplicity = 1

                         Standard orientation:
 ---------------------------------------------------------------------
 Center     Atomic      Atomic             Coordinates (Angstroms)
 Number     Number       Type             X           Y           Z
 ---------------------------------------------------------------------
      1          6           0       -0.695769   -0.011366    0.001197
      2          6           0        0.700224   -0.009774   -0.002956
      3          1           0       -1.202147   -0.879796   -0.004282
      4          1           0       -1.216196    0.942156    0.002264
      5          1           0        1.193261   -0.892655    0.009747
      6          1           0        1.198351    0.957137    0.002830
 ---------------------------------------------------------------------

 SCF Done:  E(RwB97X) =  -78.5419711363     A.U. after   12 cycles

 The electronic state is 1-A.
 Alpha  occ. eigenvalues --  -10.26648 -10.26519  -0.87753  -0.70806  -0.58874
 Alpha  occ. eigenvalues --   -0.50345  -0.47633  -0.35570
 Alpha virt. eigenvalues --    0.09939   0.21921   0.26490   0.27263   0.34982
 Alpha virt. eigenvalues --    0.40359   0.59607   0.66673   0.66964   0.74645
 Alpha virt. eigenvalues --    0.75523   0.77736   1.00051   1.00368   1.07905

 Mulliken charges:
               1
     1  C   -0.333567
     2  C   -0.333488
     3  H    0.170772
     4  H    0.161678
     5  H    0.171279
     6  H    0.163326
 Sum of Mulliken charges =   0.00000

 Dipole moment (field-independent basis, Debye):
    X=             -0.0121    Y=             -0.0360    Z=              0.0104  Tot=              0.0394
 Quadrupole moment (field-independent basis, Debye-Ang):
   XX=            -12.0587   YY=            -11.7729   ZZ=            -15.1302
   XY=             -0.0015   XZ=              0.0184   YZ=             -0.0003

 Normal termination of Gaussian 16 at Wed Jun  5 17:01:45 2019.
