 Gaussian 16, Revision A.03,
 Gaussian 16:  ES64L-G16RevA.03 25-Dec-2016

 ----------------
 # 6-31g(d) wb97x
 ----------------

 -----------------------
 tmpdir/M2_conf_2_42.gjf
 -----------------------
 Symbolic Z-matrix:
 Charge =  0 Multiplicity = 1

                         Standard orientation:
 ---------------------------------------------------------------------
 Center     Atomic      Atomic             Coordinates (Angstroms)
 Number     Number       Type             X           Y           Z
 ---------------------------------------------------------------------
      1          6           0       -0.001369    0.002381   -0.000683
      2          1           0       -0.181129   -0.439489    0.985056
      3          1           0       -0.356226    1.044701   -0.008912
      4          1           0       -0.575767   -0.581714   -0.745524
      5          1           0        1.121339   -0.037783   -0.226520
 ---------------------------------------------------------------------

 SCF Done:  E(RwB97X) =  -40.4975967881     A.U. after   11 cycles

 The electronic state is 1-A.
 Alpha  occ. eigenvalues --  -10.25717  -0.81231  -0.49518  -0.49175  -0.48769
 Alpha virt. eigenvalues --    0.21076   0.26344   0.27111   0.27440   0.63983
 Alpha virt. eigenvalues --    0.64263   0.65632   0.98594   1.00776   1.01449
 Alpha virt. eigenvalues --    1.05017   1.20203   1.76035   1.76242   2.29686

 Mulliken charges:
               1
     1  C   -0.658530
     2  H    0.168323
     3  H    0.167825
     4  H    0.165689
     5  H    0.156693
 Sum of Mulliken charges =   0.00000

 Dipole moment (field-independent basis, Debye):
    X=             -0.0393    Y=             -0.0066    Z=              0.0228  Tot=              0.0459
 Quadrupole moment (field-independent basis, Debye-Ang):
   XX=             -8.2282   YY=             -8.3004   ZZ=             -8.3753
   XY=             -0.0014   XZ=              0.0145   YZ=             -0.0105

 Normal termination of Gaussian 16 at Wed Jun  5 17:03:39 2019.
