 Gaussian 16, Revision A.03,
 Gaussian 16:  ES64L-G16RevA.03 25-Dec-2016

 ----------------
 # 6-31g(d) wb97x
 ----------------

 ------------------------
 tmpdir/M2_conf_0_168.gjf
 ------------------------
 Symbolic Z-matrix:
 Charge =  0 Multiplicity = 1

                         Standard orientation:
 ---------------------------------------------------------------------
 Center     Atomic      Atomic             Coordinates (Angstroms)
 Number     Number       Type             X           Y           Z
 ---------------------------------------------------------------------
      1          6           0        1.798254    0.145914   -0.083636
      2          6           0        0.548927   -0.442714    0.098430
      3          6           0       -0.689443    0.375947    0.121905
      4          1           0        2.589982   -0.475371   -0.081964
      5          1           0        1.920595    1.210729   -0.242309
      6          1           0        0.447469   -1.484590    0.216103
      7          8           0       -1.778492   -0.135524   -0.134051
      8          1           0       -0.676539    1.358542    0.360382
 ---------------------------------------------------------------------

 SCF Done:  E(RwB97X) =  -191.833812227     A.U. after   16 cycles

 The electronic state is 1-A.
 Alpha  occ. eigenvalues --  -19.21119 -10.35468 -10.29943 -10.29645  -1.15918
 Alpha  occ. eigenvalues --   -0.92175  -0.77895  -0.70909  -0.60403  -0.57785
 Alpha  occ. eigenvalues --   -0.52374  -0.51321  -0.49174  -0.37717  -0.35718
 Alpha virt. eigenvalues --    0.02248   0.13989   0.21696   0.23013   0.26064
 Alpha virt. eigenvalues --    0.30400   0.36040   0.39149   0.43636   0.61785
 Alpha virt. eigenvalues --    0.63628   0.64416   0.69063   0.71846   0.74260

 Mulliken charges:
               1
     1  C   -0.341957
     2  C   -0.183211
     3  C    0.214869
     4  H    0.188776
     5  H    0.184536
     6  H    0.194413
     7  O   -0.406969
     8  H    0.149544
 Sum of Mulliken charges =   0.00000

 Dipole moment (field-independent basis, Debye):
    X=              3.0077    Y=              0.8251    Z=              0.4721  Tot=              3.1544
 Quadrupole moment (field-independent basis, Debye-Ang):
   XX=            -26.4952   YY=            -20.7885   ZZ=            -24.3259
   XY=             -1.0703   XZ=             -1.0843   YZ=             -0.3414

 Normal termination of Gaussian 16 at Wed Jun  5 17:01:15 2019.
