 Gaussian 16, Revision A.03,
 Gaussian 16:  ES64L-G16RevA.03 25-Dec-2016

 ----------------
 # 6-31g(d) wb97x
 ----------------

 -----------------------
 tmpdir/M2_conf_2_65.gjf
 -----------------------
 Symbolic Z-matrix:
 Charge =  0 Multiplicity = 1

                         Standard orientation:
 ---------------------------------------------------------------------
 Center     Atomic      Atomic             Coordinates (Angstroms)
 Number     Number       Type             X           Y           Z
 ---------------------------------------------------------------------
      1          6           0       -0.697782   -0.009946   -0.005523
      2          6           0        0.697303   -0.007578    0.000475
      3          1           0       -1.259327    0.931355    0.025043
      4          1           0       -1.183176   -0.895985   -0.000111
      5          1           0        1.232368    0.940157   -0.010532
      6          1           0        1.213007   -0.870384    0.015889
 ---------------------------------------------------------------------

 SCF Done:  E(RwB97X) =  -78.5425350297     A.U. after   12 cycles

 The electronic state is 1-A.
 Alpha  occ. eigenvalues --  -10.26776 -10.26622  -0.87691  -0.70983  -0.58435
 Alpha  occ. eigenvalues --   -0.50853  -0.47353  -0.35599
 Alpha virt. eigenvalues --    0.09903   0.22160   0.26281   0.26953   0.35005
 Alpha virt. eigenvalues --    0.40746   0.59776   0.66256   0.66645   0.74592
 Alpha virt. eigenvalues --    0.75645   0.77551   0.99654   1.00151   1.08352

 Mulliken charges:
               1
     1  C   -0.333508
     2  C   -0.332834
     3  H    0.163207
     4  H    0.170007
     5  H    0.161497
     6  H    0.171631
 Sum of Mulliken charges =  -0.00000

 Dipole moment (field-independent basis, Debye):
    X=              0.0051    Y=             -0.0475    Z=              0.0292  Tot=              0.0560
 Quadrupole moment (field-independent basis, Debye-Ang):
   XX=            -11.8979   YY=            -11.8890   ZZ=            -15.1325
   XY=             -0.0544   XZ=             -0.0249   YZ=             -0.0006

 Normal termination of Gaussian 16 at Wed Jun  5 17:03:48 2019.
