 Gaussian 16, Revision A.03,
 Gaussian 16:  ES64L-G16RevA.03 25-Dec-2016

 ----------------
 # 6-31g(d) wb97x
 ----------------

 -----------------------
 tmpdir/M2_conf_0_27.gjf
 -----------------------
 Symbolic Z-matrix:
 Charge =  0 Multiplicity = 1

                         Standard orientation:
 ---------------------------------------------------------------------
 Center     Atomic      Atomic             Coordinates (Angstroms)
 Number     Number       Type             X           Y           Z
 ---------------------------------------------------------------------
      1          7           0       -0.741881   -0.000020   -0.112397
      2          6           0        0.700570    0.000025    0.013099
      3          1           0        1.063223   -0.000225    1.059329
      4          1           0       -1.151587   -0.834069    0.302837
      5          1           0       -1.152031    0.833821    0.303065
      6          1           0        1.114847    0.887014   -0.478341
      7          1           0        1.115296   -0.886556   -0.478707
 ---------------------------------------------------------------------

 SCF Done:  E(RwB97X) =  -95.8224391022     A.U. after   14 cycles

 The electronic state is 1-A.
 Alpha  occ. eigenvalues --  -14.38112 -10.27912  -0.99587  -0.77566  -0.60006
 Alpha  occ. eigenvalues --   -0.53971  -0.50526  -0.46806  -0.32347
 Alpha virt. eigenvalues --    0.18577   0.24172   0.25428   0.27740   0.29086
 Alpha virt. eigenvalues --    0.34648   0.66192   0.67369   0.69794   0.85059
 Alpha virt. eigenvalues --    0.87146   0.90341   0.97775   1.03096   1.04411

 Mulliken charges:
               1
     1  N   -0.740096
     2  C   -0.328098
     3  H    0.126628
     4  H    0.308491
     5  H    0.308493
     6  H    0.162288
     7  H    0.162294
 Sum of Mulliken charges =  -0.00000

 Dipole moment (field-independent basis, Debye):
    X=              0.1269    Y=             -0.0002    Z=              1.3521  Tot=              1.3580
 Quadrupole moment (field-independent basis, Debye-Ang):
   XX=            -13.4677   YY=            -12.2185   ZZ=            -15.2640
   XY=             -0.0006   XZ=             -2.0429   YZ=              0.0001

 Normal termination of Gaussian 16 at Wed Jun  5 16:59:20 2019.
