 Gaussian 16, Revision A.03,
 Gaussian 16:  ES64L-G16RevA.03 25-Dec-2016

 ----------------
 # 6-31g(d) wb97x
 ----------------

 ------------------------
 tmpdir/M2_conf_1_116.gjf
 ------------------------
 Symbolic Z-matrix:
 Charge =  0 Multiplicity = 1

                         Standard orientation:
 ---------------------------------------------------------------------
 Center     Atomic      Atomic             Coordinates (Angstroms)
 Number     Number       Type             X           Y           Z
 ---------------------------------------------------------------------
      1          6           0        0.795226    0.480041   -0.004565
      2          6           0       -0.587932    0.644443   -0.000525
      3          6           0       -1.405500   -0.477211    0.001784
      4          1           0        1.418172    1.400397    0.023160
      5          8           0        1.289081   -0.645906    0.000215
      6          1           0       -1.025482    1.640557   -0.007207
      7          1           0       -2.485694   -0.347108    0.003609
      8          1           0       -1.030409   -1.410235   -0.001448
 ---------------------------------------------------------------------

 SCF Done:  E(RwB97X) =  -191.837671459     A.U. after   15 cycles

 The electronic state is 1-A.
 Alpha  occ. eigenvalues --  -19.20635 -10.35359 -10.29944 -10.28747  -1.15825
 Alpha  occ. eigenvalues --   -0.92354  -0.79607  -0.66420  -0.63126  -0.55782
 Alpha  occ. eigenvalues --   -0.52032  -0.50522  -0.49551  -0.37146  -0.35761
 Alpha virt. eigenvalues --    0.01048   0.17359   0.20112   0.23714   0.26728
 Alpha virt. eigenvalues --    0.30369   0.35117   0.41028   0.46109   0.61963
 Alpha virt. eigenvalues --    0.63651   0.68748   0.68800   0.70318   0.74306

 Mulliken charges:
               1
     1  C    0.215640
     2  C   -0.194785
     3  C   -0.296898
     4  H    0.130201
     5  O   -0.417018
     6  H    0.170444
     7  H    0.178153
     8  H    0.214264
 Sum of Mulliken charges =  -0.00000

 Dipole moment (field-independent basis, Debye):
    X=             -2.1655    Y=              1.6980    Z=             -0.0046  Tot=              2.7518
 Quadrupole moment (field-independent basis, Debye-Ang):
   XX=            -23.3832   YY=            -21.7513   ZZ=            -24.3081
   XY=              3.1325   XZ=              0.0059   YZ=             -0.0028

 Normal termination of Gaussian 16 at Wed Jun  5 17:02:16 2019.
