 Gaussian 16, Revision A.03,
 Gaussian 16:  ES64L-G16RevA.03 25-Dec-2016

 ----------------
 # 6-31g(d) wb97x
 ----------------

 -----------------------
 tmpdir/M2_conf_2_35.gjf
 -----------------------
 Symbolic Z-matrix:
 Charge =  0 Multiplicity = 1

                         Standard orientation:
 ---------------------------------------------------------------------
 Center     Atomic      Atomic             Coordinates (Angstroms)
 Number     Number       Type             X           Y           Z
 ---------------------------------------------------------------------
      1          6           0        0.767329    0.001097   -0.004511
      2          6           0       -0.767046    0.000637    0.004214
      3          1           0        1.169457    0.995553    0.389344
      4          1           0        1.136349   -0.807413    0.637710
      5          1           0        1.121939   -0.198281   -1.035877
      6          1           0       -1.136965   -0.944405   -0.408324
      7          1           0       -1.123431    0.078392    1.049602
      8          1           0       -1.169043    0.865751   -0.630669
 ---------------------------------------------------------------------

 SCF Done:  E(RwB97X) =  -79.7973155984     A.U. after   11 cycles

 The electronic state is 1-A.
 Alpha  occ. eigenvalues --  -10.26188 -10.26172  -0.87614  -0.72540  -0.54267
 Alpha  occ. eigenvalues --   -0.53911  -0.45828  -0.44089  -0.43822
 Alpha virt. eigenvalues --    0.19252   0.25158   0.25286   0.25897   0.28112
 Alpha virt. eigenvalues --    0.28364   0.33203   0.61726   0.65901   0.65974
 Alpha virt. eigenvalues --    0.73984   0.74823   0.78147   0.97563   0.99036

 Mulliken charges:
               1
     1  C   -0.459005
     2  C   -0.458875
     3  H    0.147322
     4  H    0.157073
     5  H    0.154773
     6  H    0.157568
     7  H    0.155017
     8  H    0.146126
 Sum of Mulliken charges =  -0.00000

 Dipole moment (field-independent basis, Debye):
    X=              0.0005    Y=             -0.0844    Z=              0.0141  Tot=              0.0856
 Quadrupole moment (field-independent basis, Debye-Ang):
   XX=            -15.6869   YY=            -14.6834   ZZ=            -14.6733
   XY=              0.0104   XZ=              0.0432   YZ=              0.0132

 Normal termination of Gaussian 16 at Wed Jun  5 17:03:30 2019.
