 Gaussian 16, Revision A.03,
 Gaussian 16:  ES64L-G16RevA.03 25-Dec-2016

 ----------------
 # 6-31g(d) wb97x
 ----------------

 -----------------------
 tmpdir/M2_conf_2_22.gjf
 -----------------------
 Symbolic Z-matrix:
 Charge =  0 Multiplicity = 1

                         Standard orientation:
 ---------------------------------------------------------------------
 Center     Atomic      Atomic             Coordinates (Angstroms)
 Number     Number       Type             X           Y           Z
 ---------------------------------------------------------------------
      1          6           0        1.227613   -0.219035    0.020060
      2          7           0        0.000403    0.539532   -0.157377
      3          6           0       -1.224868   -0.222812    0.018919
      4          1           0        1.260326   -1.069362   -0.679513
      5          1           0        2.081561    0.442502   -0.168814
      6          1           0        1.319564   -0.602680    1.055983
      7          1           0       -0.029046    1.345888    0.456399
      8          1           0       -2.080254    0.435796   -0.173096
      9          1           0       -1.318150   -0.603862    1.055892
     10          1           0       -1.253288   -1.073925   -0.679085
 ---------------------------------------------------------------------

 SCF Done:  E(RwB97X) =  -135.120152367     A.U. after   13 cycles

 The electronic state is 1-A.
 Alpha  occ. eigenvalues --  -14.38540 -10.28097 -10.28022  -1.01955  -0.82258
 Alpha  occ. eigenvalues --   -0.74128  -0.59473  -0.54646  -0.53524  -0.48956
 Alpha  occ. eigenvalues --   -0.46621  -0.46170  -0.30691
 Alpha virt. eigenvalues --    0.18112   0.23305   0.25037   0.25422   0.26676
 Alpha virt. eigenvalues --    0.28788   0.29201   0.31355   0.36812   0.62400
 Alpha virt. eigenvalues --    0.64669   0.68059   0.70029   0.70782   0.84604

 Mulliken charges:
               1
     1  C   -0.320515
     2  N   -0.554711
     3  C   -0.322797
     4  H    0.160335
     5  H    0.163544
     6  H    0.123753
     7  H    0.305115
     8  H    0.162729
     9  H    0.123266
    10  H    0.159279
 Sum of Mulliken charges =   0.00000

 Dipole moment (field-independent basis, Debye):
    X=             -0.0088    Y=             -0.1106    Z=              1.0061  Tot=              1.0122
 Quadrupole moment (field-independent basis, Debye-Ang):
   XX=            -19.5245   YY=            -19.8451   ZZ=            -21.6929
   XY=             -0.0694   XZ=             -0.0276   YZ=              2.0673

 Normal termination of Gaussian 16 at Wed Jun  5 17:03:50 2019.
