 Gaussian 16, Revision A.03,
 Gaussian 16:  ES64L-G16RevA.03 25-Dec-2016

 ----------------
 # 6-31g(d) wb97x
 ----------------

 -----------------------
 tmpdir/M2_conf_0_72.gjf
 -----------------------
 Symbolic Z-matrix:
 Charge =  0 Multiplicity = 1

                         Standard orientation:
 ---------------------------------------------------------------------
 Center     Atomic      Atomic             Coordinates (Angstroms)
 Number     Number       Type             X           Y           Z
 ---------------------------------------------------------------------
      1          6           0        0.806054    0.483585   -0.004414
      2          6           0       -0.580518    0.642946   -0.003284
      3          6           0       -1.414614   -0.468112   -0.003626
      4          1           0        1.465844    1.358667    0.030663
      5          8           0        1.271876   -0.654782    0.001248
      6          1           0       -0.990032    1.649742   -0.006127
      7          1           0       -2.492066   -0.319626    0.034303
      8          1           0       -1.024291   -1.401043   -0.000886
 ---------------------------------------------------------------------

 SCF Done:  E(RwB97X) =  -191.837758226     A.U. after   15 cycles

 The electronic state is 1-A.
 Alpha  occ. eigenvalues --  -19.20491 -10.35200 -10.29915 -10.28711  -1.15808
 Alpha  occ. eigenvalues --   -0.92110  -0.79506  -0.66493  -0.63161  -0.55639
 Alpha  occ. eigenvalues --   -0.52377  -0.50472  -0.49254  -0.37004  -0.35695
 Alpha virt. eigenvalues --    0.01097   0.17295   0.20327   0.23858   0.26689
 Alpha virt. eigenvalues --    0.30474   0.34984   0.41033   0.46034   0.62021
 Alpha virt. eigenvalues --    0.63430   0.68474   0.68787   0.70749   0.74556

 Mulliken charges:
               1
     1  C    0.210936
     2  C   -0.193988
     3  C   -0.299420
     4  H    0.138039
     5  O   -0.415667
     6  H    0.166097
     7  H    0.180043
     8  H    0.213961
 Sum of Mulliken charges =  -0.00000

 Dipole moment (field-independent basis, Debye):
    X=             -2.0308    Y=              1.7572    Z=              0.0223  Tot=              2.6856
 Quadrupole moment (field-independent basis, Debye-Ang):
   XX=            -23.1616   YY=            -21.8387   ZZ=            -24.3118
   XY=              3.2469   XZ=             -0.0611   YZ=             -0.0031

 Normal termination of Gaussian 16 at Wed Jun  5 16:59:53 2019.
