 Gaussian 16, Revision A.03,
 Gaussian 16:  ES64L-G16RevA.03 25-Dec-2016

 ----------------
 # 6-31g(d) wb97x
 ----------------

 ------------------------
 tmpdir/M2_conf_2_125.gjf
 ------------------------
 Symbolic Z-matrix:
 Charge =  0 Multiplicity = 1

                         Standard orientation:
 ---------------------------------------------------------------------
 Center     Atomic      Atomic             Coordinates (Angstroms)
 Number     Number       Type             X           Y           Z
 ---------------------------------------------------------------------
      1          6           0        0.780714   -0.634895   -0.002119
      2          6           0       -0.366857    0.148019   -0.000036
      3          6           0       -1.715866   -0.525953    0.000749
      4          8           0        1.901231   -0.143341    0.001688
      5          1           0        0.675612   -1.717807   -0.003633
      6          8           0       -0.231961    1.385082   -0.000614
      7          1           0       -1.600508   -1.613228   -0.005343
      8          1           0       -2.311430   -0.257614   -0.881805
      9          1           0       -2.305775   -0.268307    0.890629
 ---------------------------------------------------------------------

 SCF Done:  E(RwB97X) =  -267.053497980     A.U. after   15 cycles

 The electronic state is 1-A.
 Alpha  occ. eigenvalues --  -19.24720 -19.23713 -10.37847 -10.37206 -10.29635
 Alpha  occ. eigenvalues --   -1.20617  -1.16215  -0.92179  -0.82426  -0.67508
 Alpha  occ. eigenvalues --   -0.62297  -0.58557  -0.58428  -0.53519  -0.52223
 Alpha  occ. eigenvalues --   -0.52088  -0.45781  -0.40036  -0.37068
 Alpha virt. eigenvalues --   -0.02962   0.14790   0.18186   0.21380   0.26023
 Alpha virt. eigenvalues --    0.26452   0.30620   0.31506   0.44307   0.52541
 Alpha virt. eigenvalues --    0.57598   0.60090   0.66723   0.69423   0.73185

 Mulliken charges:
               1
     1  C    0.165842
     2  C    0.397873
     3  C   -0.589558
     4  O   -0.333898
     5  H    0.142876
     6  O   -0.392395
     7  H    0.174350
     8  H    0.217517
     9  H    0.217393
 Sum of Mulliken charges =  -0.00000

 Dipole moment (field-independent basis, Debye):
    X=             -2.8566    Y=             -3.1476    Z=             -0.0029  Tot=              4.2506
 Quadrupole moment (field-independent basis, Debye-Ang):
   XX=            -30.9855   YY=            -30.5653   ZZ=            -26.8477
   XY=              0.3700   XZ=             -0.0116   YZ=             -0.0007

 Normal termination of Gaussian 16 at Wed Jun  5 17:04:30 2019.
