 Gaussian 16, Revision A.03,
 Gaussian 16:  ES64L-G16RevA.03 25-Dec-2016

 ----------------
 # 6-31g(d) wb97x
 ----------------

 -----------------------
 tmpdir/M2_conf_0_49.gjf
 -----------------------
 Symbolic Z-matrix:
 Charge =  0 Multiplicity = 1

                         Standard orientation:
 ---------------------------------------------------------------------
 Center     Atomic      Atomic             Coordinates (Angstroms)
 Number     Number       Type             X           Y           Z
 ---------------------------------------------------------------------
      1          1           0       -1.086735    0.907434   -0.470610
      2          6           0       -0.707888   -0.000440    0.011428
      3          7           0        0.744644   -0.003056   -0.112394
      4          1           0       -1.143422   -0.886833   -0.475449
      5          1           0       -1.022327    0.021041    1.072824
      6          1           0        1.127139   -0.851534    0.304218
      7          1           0        1.160165    0.833920    0.287208
 ---------------------------------------------------------------------

 SCF Done:  E(RwB97X) =  -95.8213343050     A.U. after   13 cycles

 The electronic state is 1-A.
 Alpha  occ. eigenvalues --  -14.37979 -10.28047  -0.99306  -0.77375  -0.60126
 Alpha  occ. eigenvalues --   -0.53499  -0.50495  -0.47055  -0.32131
 Alpha virt. eigenvalues --    0.18425   0.24205   0.25516   0.27591   0.29053
 Alpha virt. eigenvalues --    0.34067   0.66030   0.67686   0.69727   0.84801
 Alpha virt. eigenvalues --    0.87472   0.89543   0.97764   1.02486   1.04685

 Mulliken charges:
               1
     1  H    0.162433
     2  C   -0.327514
     3  N   -0.743868
     4  H    0.163026
     5  H    0.128489
     6  H    0.307254
     7  H    0.310179
 Sum of Mulliken charges =  -0.00000

 Dipole moment (field-independent basis, Debye):
    X=             -0.1635    Y=              0.0166    Z=              1.3485  Tot=              1.3585
 Quadrupole moment (field-independent basis, Debye-Ang):
   XX=            -13.6058   YY=            -12.1154   ZZ=            -15.2706
   XY=              0.1012   XZ=              2.0388   YZ=             -0.0228

 Normal termination of Gaussian 16 at Wed Jun  5 16:59:42 2019.
