 Gaussian 16, Revision A.03,
 Gaussian 16:  ES64L-G16RevA.03 25-Dec-2016

 ----------------
 # 6-31g(d) wb97x
 ----------------

 -----------------------
 tmpdir/M2_conf_2_50.gjf
 -----------------------
 Symbolic Z-matrix:
 Charge =  0 Multiplicity = 1

                         Standard orientation:
 ---------------------------------------------------------------------
 Center     Atomic      Atomic             Coordinates (Angstroms)
 Number     Number       Type             X           Y           Z
 ---------------------------------------------------------------------
      1          1           0        1.029670   -0.016308    1.070951
      2          6           0        0.707817   -0.000073    0.011688
      3          7           0       -0.744735    0.001823   -0.111818
      4          1           0        1.126960    0.892323   -0.478596
      5          1           0        1.096932   -0.902440   -0.472509
      6          1           0       -1.127619    0.849779    0.305495
      7          1           0       -1.159702   -0.835679    0.287258
 ---------------------------------------------------------------------

 SCF Done:  E(RwB97X) =  -95.8215337209     A.U. after   13 cycles

 The electronic state is 1-A.
 Alpha  occ. eigenvalues --  -14.37989 -10.28044  -0.99308  -0.77377  -0.60133
 Alpha  occ. eigenvalues --   -0.53530  -0.50432  -0.47065  -0.32158
 Alpha virt. eigenvalues --    0.18431   0.24222   0.25512   0.27604   0.29033
 Alpha virt. eigenvalues --    0.34072   0.66031   0.67692   0.69749   0.84816
 Alpha virt. eigenvalues --    0.87407   0.89584   0.97742   1.02478   1.04691

 Mulliken charges:
               1
     1  H    0.128541
     2  C   -0.327442
     3  N   -0.743745
     4  H    0.162659
     5  H    0.162564
     6  H    0.307499
     7  H    0.309925
 Sum of Mulliken charges =  -0.00000

 Dipole moment (field-independent basis, Debye):
    X=              0.1610    Y=             -0.0157    Z=              1.3470  Tot=              1.3567
 Quadrupole moment (field-independent basis, Debye-Ang):
   XX=            -13.6091   YY=            -12.1162   ZZ=            -15.2663
   XY=              0.0766   XZ=             -2.0297   YZ=              0.0222

 Normal termination of Gaussian 16 at Wed Jun  5 17:03:30 2019.
