 Gaussian 16, Revision A.03,
 Gaussian 16:  ES64L-G16RevA.03 25-Dec-2016

 ----------------
 # 6-31g(d) wb97x
 ----------------

 ------------------------
 tmpdir/M2_conf_0_182.gjf
 ------------------------
 Symbolic Z-matrix:
 Charge =  0 Multiplicity = 1

                         Standard orientation:
 ---------------------------------------------------------------------
 Center     Atomic      Atomic             Coordinates (Angstroms)
 Number     Number       Type             X           Y           Z
 ---------------------------------------------------------------------
      1          6           0       -0.804442    0.483408   -0.000639
      2          6           0        0.571495    0.656644   -0.000130
      3          6           0        1.400440   -0.460507   -0.000519
      4          8           0       -1.257948   -0.660040   -0.000104
      5          1           0       -1.468101    1.341899    0.000302
      6          1           0        0.998034    1.655467    0.005635
      7          1           0        2.483626   -0.346351   -0.005041
      8          1           0        1.045065   -1.447969    0.007664
 ---------------------------------------------------------------------

 SCF Done:  E(RwB97X) =  -191.839026787     A.U. after   15 cycles

 The electronic state is 1-A.
 Alpha  occ. eigenvalues --  -19.20286 -10.34941 -10.30356 -10.28729  -1.15702
 Alpha  occ. eigenvalues --   -0.92035  -0.79412  -0.66649  -0.63000  -0.55533
 Alpha  occ. eigenvalues --   -0.52082  -0.50458  -0.49008  -0.36913  -0.35606
 Alpha virt. eigenvalues --    0.01075   0.17420   0.20437   0.23595   0.26618
 Alpha virt. eigenvalues --    0.29863   0.34991   0.41272   0.46448   0.62032
 Alpha virt. eigenvalues --    0.63637   0.68766   0.68921   0.70513   0.74550

 Mulliken charges:
               1
     1  C    0.212031
     2  C   -0.194274
     3  C   -0.300698
     4  O   -0.417111
     5  H    0.138077
     6  H    0.169846
     7  H    0.176692
     8  H    0.215438
 Sum of Mulliken charges =   0.00000

 Dipole moment (field-independent basis, Debye):
    X=              2.0457    Y=              1.7432    Z=              0.0061  Tot=              2.6877
 Quadrupole moment (field-independent basis, Debye-Ang):
   XX=            -23.1508   YY=            -21.7230   ZZ=            -24.3280
   XY=             -3.3547   XZ=              0.0019   YZ=             -0.0006

 Normal termination of Gaussian 16 at Wed Jun  5 17:00:50 2019.
