 Gaussian 16, Revision A.03,
 Gaussian 16:  ES64L-G16RevA.03 25-Dec-2016

 ----------------
 # 6-31g(d) wb97x
 ----------------

 -----------------------
 tmpdir/M2_conf_2_57.gjf
 -----------------------
 Symbolic Z-matrix:
 Charge =  0 Multiplicity = 1

                         Standard orientation:
 ---------------------------------------------------------------------
 Center     Atomic      Atomic             Coordinates (Angstroms)
 Number     Number       Type             X           Y           Z
 ---------------------------------------------------------------------
      1          6           0        1.172330   -0.142160   -0.005982
      2          6           0       -0.239855    0.442423   -0.005226
      3          1           0        1.915386    0.486683   -0.601023
      4          1           0        1.136237   -1.189193   -0.366656
      5          1           0        1.530214   -0.184573    1.031720
      6          1           0       -0.379922    1.442250    0.032603
      7          8           0       -1.224595   -0.294593   -0.003674
 ---------------------------------------------------------------------

 SCF Done:  E(RwB97X) =  -153.775587603     A.U. after   15 cycles

 The electronic state is 1-A.
 Alpha  occ. eigenvalues --  -19.21415 -10.35923 -10.28571  -1.15988  -0.87256
 Alpha  occ. eigenvalues --   -0.72167  -0.58701  -0.54678  -0.53569  -0.50121
 Alpha  occ. eigenvalues --   -0.45864  -0.35632
 Alpha virt. eigenvalues --    0.06967   0.20354   0.23426   0.25403   0.26082
 Alpha virt. eigenvalues --    0.34625   0.37476   0.63214   0.64027   0.70049
 Alpha virt. eigenvalues --    0.70855   0.76763   0.82484   0.85420   0.95101

 Mulliken charges:
               1
     1  C   -0.562277
     2  C    0.239250
     3  H    0.167165
     4  H    0.200993
     5  H    0.194506
     6  H    0.150305
     7  O   -0.389943
 Sum of Mulliken charges =  -0.00000

 Dipole moment (field-independent basis, Debye):
    X=              2.3691    Y=              1.3185    Z=              0.1224  Tot=              2.7140
 Quadrupole moment (field-independent basis, Debye-Ang):
   XX=            -20.7007   YY=            -17.3099   ZZ=            -17.6376
   XY=             -1.1632   XZ=              0.1195   YZ=             -0.0439

 Normal termination of Gaussian 16 at Wed Jun  5 17:03:37 2019.
