 Gaussian 16, Revision A.03,
 Gaussian 16:  ES64L-G16RevA.03 25-Dec-2016

 ----------------
 # 6-31g(d) wb97x
 ----------------

 ------------------------
 tmpdir/M2_conf_0_149.gjf
 ------------------------
 Symbolic Z-matrix:
 Charge =  0 Multiplicity = 1

                         Standard orientation:
 ---------------------------------------------------------------------
 Center     Atomic      Atomic             Coordinates (Angstroms)
 Number     Number       Type             X           Y           Z
 ---------------------------------------------------------------------
      1          7           0       -1.561550   -0.550661   -0.002205
      2          6           0       -0.349383    0.095424   -0.000865
      3          7           0        0.745762   -0.689854    0.004545
      4          1           0       -2.489628   -0.230694   -0.005979
      5          1           0       -1.433971   -1.551311    0.007634
      6          8           0       -0.289995    1.367835    0.001895
      7          8           0        1.756296   -0.131201   -0.003500
 ---------------------------------------------------------------------

 SCF Done:  E(RwB97X) =  -299.066071218     A.U. after   20 cycles

 The electronic state is 1-A.
 Alpha  occ. eigenvalues --  -19.31236 -19.20672 -14.54294 -14.46801 -10.41587
 Alpha  occ. eigenvalues --   -1.36556  -1.16363  -1.06376  -0.93804  -0.72897
 Alpha  occ. eigenvalues --   -0.67818  -0.66690  -0.63622  -0.59397  -0.53261
 Alpha  occ. eigenvalues --   -0.51023  -0.39239  -0.38854  -0.34509
 Alpha virt. eigenvalues --   -0.04041   0.15549   0.16908   0.21692   0.32744
 Alpha virt. eigenvalues --    0.37015   0.45823   0.52665   0.63318   0.66860
 Alpha virt. eigenvalues --    0.69267   0.70770   0.76413   0.79931   0.80044

 Mulliken charges:
               1
     1  N   -0.763107
     2  C    0.660544
     3  N    0.002934
     4  H    0.387783
     5  H    0.360070
     6  O   -0.462077
     7  O   -0.186147
 Sum of Mulliken charges =  -0.00000

 Dipole moment (field-independent basis, Debye):
    X=             -3.0508    Y=             -2.9557    Z=             -0.0027  Tot=              4.2477
 Quadrupole moment (field-independent basis, Debye-Ang):
   XX=            -22.6021   YY=            -30.4215   ZZ=            -26.6120
   XY=              2.9151   XZ=              0.0021   YZ=             -0.0036

 Normal termination of Gaussian 16 at Wed Jun  5 17:00:46 2019.
