 Gaussian 16, Revision A.03,
 Gaussian 16:  ES64L-G16RevA.03 25-Dec-2016

 ----------------
 # 6-31g(d) wb97x
 ----------------

 ------------------------
 tmpdir/M2_conf_1_154.gjf
 ------------------------
 Symbolic Z-matrix:
 Charge =  0 Multiplicity = 1

                         Standard orientation:
 ---------------------------------------------------------------------
 Center     Atomic      Atomic             Coordinates (Angstroms)
 Number     Number       Type             X           Y           Z
 ---------------------------------------------------------------------
      1          6           0       -0.703942    0.500347    0.003149
      2          7           0        0.632700    0.671700   -0.003969
      3          6           0        1.366897   -0.431392    0.000644
      4          1           0       -1.247283    1.433356    0.007585
      5          8           0       -1.322595   -0.613126   -0.001594
      6          1           0        2.446503   -0.285671    0.005613
      7          1           0        0.974912   -1.358309    0.004573
 ---------------------------------------------------------------------

 SCF Done:  E(RwB97X) =  -207.874645343     A.U. after   16 cycles

 The electronic state is 1-A.
 Alpha  occ. eigenvalues --  -19.21866 -14.43576 -10.38378 -10.35613  -1.16063
 Alpha  occ. eigenvalues --   -1.05815  -0.84340  -0.70245  -0.64711  -0.57190
 Alpha  occ. eigenvalues --   -0.54318  -0.53016  -0.41606  -0.40463  -0.37133
 Alpha virt. eigenvalues --   -0.01538   0.14329   0.21717   0.24317   0.28137
 Alpha virt. eigenvalues --    0.32543   0.36874   0.45111   0.60128   0.63443
 Alpha virt. eigenvalues --    0.66920   0.68745   0.74590   0.74779   0.78506

 Mulliken charges:
               1
     1  C    0.291640
     2  N   -0.350045
     3  C   -0.101677
     4  H    0.167181
     5  O   -0.424948
     6  H    0.199754
     7  H    0.218094
 Sum of Mulliken charges =  -0.00000

 Dipole moment (field-independent basis, Debye):
    X=              2.2020    Y=             -0.0900    Z=              0.0223  Tot=              2.2039
 Quadrupole moment (field-independent basis, Debye-Ang):
   XX=            -22.1737   YY=            -23.3502   ZZ=            -22.6125
   XY=             -5.6066   XZ=              0.0120   YZ=              0.0067

 Normal termination of Gaussian 16 at Wed Jun  5 17:03:01 2019.
