 Gaussian 16, Revision A.03,
 Gaussian 16:  ES64L-G16RevA.03 25-Dec-2016

 ----------------
 # 6-31g(d) wb97x
 ----------------

 ------------------------
 tmpdir/M2_conf_2_171.gjf
 ------------------------
 Symbolic Z-matrix:
 Charge =  0 Multiplicity = 1

                         Standard orientation:
 ---------------------------------------------------------------------
 Center     Atomic      Atomic             Coordinates (Angstroms)
 Number     Number       Type             X           Y           Z
 ---------------------------------------------------------------------
      1          6           0       -0.693168    0.353526    0.120780
      2          6           0        0.551218   -0.455864    0.093893
      3          6           0        1.795496    0.149121   -0.086737
      4          1           0       -0.580378    1.372995    0.360804
      5          8           0       -1.796587   -0.123844   -0.129846
      6          1           0        0.539470   -1.459132    0.219777
      7          1           0        1.874956    1.223510   -0.216462
      8          1           0        2.617373   -0.427319   -0.092965
 ---------------------------------------------------------------------

 SCF Done:  E(RwB97X) =  -191.835284729     A.U. after   16 cycles

 The electronic state is 1-A.
 Alpha  occ. eigenvalues --  -19.21536 -10.36195 -10.30019 -10.29218  -1.16158
 Alpha  occ. eigenvalues --   -0.92505  -0.77954  -0.70799  -0.60168  -0.58020
 Alpha  occ. eigenvalues --   -0.52597  -0.51631  -0.49333  -0.37783  -0.36013
 Alpha virt. eigenvalues --    0.02090   0.13990   0.21383   0.23588   0.25873
 Alpha virt. eigenvalues --    0.30250   0.35702   0.39558   0.44135   0.61617
 Alpha virt. eigenvalues --    0.63622   0.65105   0.68944   0.70887   0.74198

 Mulliken charges:
               1
     1  C    0.216652
     2  C   -0.174177
     3  C   -0.344050
     4  H    0.142577
     5  O   -0.401513
     6  H    0.189318
     7  H    0.180100
     8  H    0.191093
 Sum of Mulliken charges =  -0.00000

 Dipole moment (field-independent basis, Debye):
    X=              3.0878    Y=              0.7183    Z=              0.4711  Tot=              3.2051
 Quadrupole moment (field-independent basis, Debye-Ang):
   XX=            -26.4036   YY=            -21.0345   ZZ=            -24.3242
   XY=             -1.0167   XZ=             -0.9741   YZ=             -0.3114

 Normal termination of Gaussian 16 at Wed Jun  5 17:04:57 2019.
