 Gaussian 16, Revision A.03,
 Gaussian 16:  ES64L-G16RevA.03 25-Dec-2016

 ----------------
 # 6-31g(d) wb97x
 ----------------

 -----------------------
 tmpdir/M2_conf_2_67.gjf
 -----------------------
 Symbolic Z-matrix:
 Charge =  0 Multiplicity = 1

                         Standard orientation:
 ---------------------------------------------------------------------
 Center     Atomic      Atomic             Coordinates (Angstroms)
 Number     Number       Type             X           Y           Z
 ---------------------------------------------------------------------
      1          6           0        1.240806   -0.174946   -0.002639
      2          6           0       -0.115161    0.500031   -0.011320
      3          6           0       -1.308164   -0.223123   -0.002122
      4          1           0        2.026292    0.393694   -0.603725
      5          1           0        1.132505   -1.221241   -0.350768
      6          1           0        1.593839   -0.229678    1.036150
      7          1           0       -0.185570    1.507546    0.014252
      8          1           0       -1.276761   -1.310590   -0.034644
      9          1           0       -2.195191    0.248499    0.035218
 ---------------------------------------------------------------------

 SCF Done:  E(RwB97X) =  -117.849571875     A.U. after   14 cycles

 The electronic state is 1-A.
 Alpha  occ. eigenvalues --  -10.27180 -10.27011 -10.25457  -0.90468  -0.80176
 Alpha  occ. eigenvalues --   -0.68208  -0.57810  -0.51617  -0.51120  -0.46666
 Alpha  occ. eigenvalues --   -0.45834  -0.33694
 Alpha virt. eigenvalues --    0.10544   0.20861   0.23966   0.25116   0.27668
 Alpha virt. eigenvalues --    0.28444   0.30460   0.38401   0.44757   0.61104
 Alpha virt. eigenvalues --    0.63376   0.65258   0.71130   0.73038   0.76227

 Mulliken charges:
               1
     1  C   -0.508881
     2  C   -0.100081
     3  C   -0.364851
     4  H    0.157479
     5  H    0.167409
     6  H    0.175779
     7  H    0.159094
     8  H    0.149112
     9  H    0.164941
 Sum of Mulliken charges =   0.00000

 Dipole moment (field-independent basis, Debye):
    X=              0.2947    Y=              0.1107    Z=              0.1110  Tot=              0.3338
 Quadrupole moment (field-independent basis, Debye-Ang):
   XX=            -18.8724   YY=            -18.4491   ZZ=            -21.4295
   XY=              0.0961   XZ=             -0.0080   YZ=              0.0188

 Normal termination of Gaussian 16 at Wed Jun  5 17:04:11 2019.
