 Gaussian 16, Revision A.03,
 Gaussian 16:  ES64L-G16RevA.03 25-Dec-2016

 ----------------
 # 6-31g(d) wb97x
 ----------------

 ------------------------
 tmpdir/M2_conf_1_145.gjf
 ------------------------
 Symbolic Z-matrix:
 Charge =  0 Multiplicity = 1

                         Standard orientation:
 ---------------------------------------------------------------------
 Center     Atomic      Atomic             Coordinates (Angstroms)
 Number     Number       Type             X           Y           Z
 ---------------------------------------------------------------------
      1          1           0        1.848331    0.468409    0.008556
      2          7           0        1.080417   -0.185735   -0.000536
      3          6           0       -0.148393    0.428096   -0.001940
      4          1           0        1.320329   -1.137670   -0.002088
      5          8           0       -1.219994   -0.260542    0.001099
      6          1           0       -0.081270    1.485170    0.000130
 ---------------------------------------------------------------------

 SCF Done:  E(RwB97X) =  -169.831043039     A.U. after   15 cycles

 The electronic state is 1-A.
 Alpha  occ. eigenvalues --  -19.17990 -14.44196 -10.38004  -1.13032  -1.03221
 Alpha  occ. eigenvalues --   -0.76584  -0.65562  -0.60871  -0.50598  -0.50108
 Alpha  occ. eigenvalues --   -0.36481  -0.35211
 Alpha virt. eigenvalues --    0.10901   0.17609   0.20951   0.27715   0.35334
 Alpha virt. eigenvalues --    0.43424   0.64600   0.65787   0.74485   0.75120
 Alpha virt. eigenvalues --    0.80314   0.82414   0.96437   0.99013   0.99728

 Mulliken charges:
               1
     1  H    0.338918
     2  N   -0.726243
     3  C    0.341593
     4  H    0.371769
     5  O   -0.481296
     6  H    0.155260
 Sum of Mulliken charges =  -0.00000

 Dipole moment (field-independent basis, Debye):
    X=              4.0800    Y=              1.1366    Z=              0.0067  Tot=              4.2354
 Quadrupole moment (field-independent basis, Debye-Ang):
   XX=            -17.5756   YY=            -14.4101   ZZ=            -18.5059
   XY=             -1.3522   XZ=              0.0300   YZ=              0.0143

 Normal termination of Gaussian 16 at Wed Jun  5 17:02:24 2019.
