 Gaussian 16, Revision A.03,
 Gaussian 16:  ES64L-G16RevA.03 25-Dec-2016

 ----------------
 # 6-31g(d) wb97x
 ----------------

 ----------------------
 tmpdir/M2_conf_2_4.gjf
 ----------------------
 Symbolic Z-matrix:
 Charge =  0 Multiplicity = 1

                         Standard orientation:
 ---------------------------------------------------------------------
 Center     Atomic      Atomic             Coordinates (Angstroms)
 Number     Number       Type             X           Y           Z
 ---------------------------------------------------------------------
      1          1           0        0.617533   -0.505856   -0.767476
      2          6           0        0.000741    0.002116   -0.001329
      3          1           0        0.169237   -0.506733    0.955230
      4          1           0        0.322272    1.052755    0.078081
      5          1           0       -1.113488   -0.052859   -0.257860
 ---------------------------------------------------------------------

 SCF Done:  E(RwB97X) =  -40.4976078448     A.U. after   11 cycles

 The electronic state is 1-A.
 Alpha  occ. eigenvalues --  -10.25722  -0.81226  -0.49488  -0.49226  -0.48738
 Alpha virt. eigenvalues --    0.21074   0.26370   0.27095   0.27411   0.64001
 Alpha virt. eigenvalues --    0.64259   0.65641   0.98656   1.00751   1.01384
 Alpha virt. eigenvalues --    1.04987   1.20188   1.76015   1.76288   2.29688

 Mulliken charges:
               1
     1  H    0.165861
     2  C   -0.658550
     3  H    0.167863
     4  H    0.167602
     5  H    0.157224
 Sum of Mulliken charges =  -0.00000

 Dipole moment (field-independent basis, Debye):
    X=              0.0391    Y=             -0.0059    Z=              0.0247  Tot=              0.0466
 Quadrupole moment (field-independent basis, Debye-Ang):
   XX=             -8.2159   YY=             -8.3031   ZZ=             -8.3860
   XY=             -0.0009   XZ=             -0.0169   YZ=             -0.0082

 Normal termination of Gaussian 16 at Wed Jun  5 17:03:44 2019.
