 Gaussian 16, Revision A.03,
 Gaussian 16:  ES64L-G16RevA.03 25-Dec-2016

 ----------------
 # 6-31g(d) wb97x
 ----------------

 ------------------------
 tmpdir/M2_conf_0_155.gjf
 ------------------------
 Symbolic Z-matrix:
 Charge =  0 Multiplicity = 1

                         Standard orientation:
 ---------------------------------------------------------------------
 Center     Atomic      Atomic             Coordinates (Angstroms)
 Number     Number       Type             X           Y           Z
 ---------------------------------------------------------------------
      1          6           0        0.569704   -0.015132   -0.000715
      2          1           0        1.056299    0.955529    0.001409
      3          8           0       -0.698610   -0.000416    0.000155
      4          1           0        1.114360   -0.861411    0.001637
 ---------------------------------------------------------------------

 SCF Done:  E(RwB97X) =  -114.453073043     A.U. after   13 cycles

 The electronic state is 1-A.
 Alpha  occ. eigenvalues --  -19.23248 -10.36492  -1.14960  -0.77969  -0.61770
 Alpha  occ. eigenvalues --   -0.54347  -0.48204  -0.37012
 Alpha virt. eigenvalues --    0.04418   0.21667   0.28971   0.31131   0.62416
 Alpha virt. eigenvalues --    0.68792   0.74105   0.75430   0.97308   0.97676
 Alpha virt. eigenvalues --    1.05955   1.07769   1.17589   1.47205   1.59224

 Mulliken charges:
               1
     1  C    0.048271
     2  H    0.148648
     3  O   -0.366294
     4  H    0.169374
 Sum of Mulliken charges =  -0.00000

 Dipole moment (field-independent basis, Debye):
    X=              2.6002    Y=             -0.0852    Z=              0.0005  Tot=              2.6016
 Quadrupole moment (field-independent basis, Debye-Ang):
   XX=            -11.6709   YY=            -11.2280   ZZ=            -11.4386
   XY=             -0.1575   XZ=              0.0013   YZ=              0.0002

 Normal termination of Gaussian 16 at Wed Jun  5 17:00:17 2019.
