 Gaussian 16, Revision A.03,
 Gaussian 16:  ES64L-G16RevA.03 25-Dec-2016

 ----------------
 # 6-31g(d) wb97x
 ----------------

 ------------------------
 tmpdir/M2_conf_2_131.gjf
 ------------------------
 Symbolic Z-matrix:
 Charge =  0 Multiplicity = 1

                         Standard orientation:
 ---------------------------------------------------------------------
 Center     Atomic      Atomic             Coordinates (Angstroms)
 Number     Number       Type             X           Y           Z
 ---------------------------------------------------------------------
      1          6           0       -0.227512    0.437172    0.000229
      2          6           0        1.165264   -0.140963   -0.000144
      3          1           0        1.905252    0.663956   -0.006345
      4          1           0       -0.365842    1.433210   -0.000710
      5          8           0       -1.234417   -0.294034    0.000031
      6          1           0        1.351924   -0.766359   -0.883113
      7          1           0        1.357492   -0.755786    0.889407
 ---------------------------------------------------------------------

 SCF Done:  E(RwB97X) =  -153.774295301     A.U. after   14 cycles

 The electronic state is 1-A.
 Alpha  occ. eigenvalues --  -19.21267 -10.35849 -10.28024  -1.15111  -0.88050
 Alpha  occ. eigenvalues --   -0.72367  -0.58869  -0.55041  -0.53996  -0.49858
 Alpha  occ. eigenvalues --   -0.45441  -0.35632
 Alpha virt. eigenvalues --    0.06196   0.20855   0.22488   0.27199   0.28337
 Alpha virt. eigenvalues --    0.34892   0.36627   0.63194   0.63533   0.67890
 Alpha virt. eigenvalues --    0.72162   0.75806   0.83044   0.87463   0.96242

 Mulliken charges:
               1
     1  C    0.225595
     2  C   -0.561244
     3  H    0.164809
     4  H    0.155736
     5  O   -0.396579
     6  H    0.205910
     7  H    0.205772
 Sum of Mulliken charges =  -0.00000

 Dipole moment (field-independent basis, Debye):
    X=              2.5022    Y=              1.2386    Z=              0.0011  Tot=              2.7920
 Quadrupole moment (field-independent basis, Debye-Ang):
   XX=            -20.6934   YY=            -17.3202   ZZ=            -17.4586
   XY=             -1.4048   XZ=              0.0041   YZ=              0.0013

 Normal termination of Gaussian 16 at Wed Jun  5 17:04:29 2019.
