 Gaussian 16, Revision A.03,
 Gaussian 16:  ES64L-G16RevA.03 25-Dec-2016

 ----------------
 # 6-31g(d) wb97x
 ----------------

 ------------------------
 tmpdir/M2_conf_1_127.gjf
 ------------------------
 Symbolic Z-matrix:
 Charge =  0 Multiplicity = 1

                         Standard orientation:
 ---------------------------------------------------------------------
 Center     Atomic      Atomic             Coordinates (Angstroms)
 Number     Number       Type             X           Y           Z
 ---------------------------------------------------------------------
      1          6           0        1.229397   -0.172373   -0.000115
      2          6           0       -0.114456    0.511822    0.000175
      3          6           0       -1.312419   -0.234655    0.000212
      4          1           0        2.035164    0.566690   -0.006542
      5          1           0        1.367036   -0.810563   -0.882938
      6          1           0        1.373522   -0.800008    0.889583
      7          1           0       -0.175283    1.515579   -0.001013
      8          1           0       -2.210087    0.231093   -0.000052
      9          1           0       -1.205482   -1.331551   -0.000671
 ---------------------------------------------------------------------

 SCF Done:  E(RwB97X) =  -117.846610243     A.U. after   14 cycles

 The electronic state is 1-A.
 Alpha  occ. eigenvalues --  -10.27145 -10.26208 -10.25772  -0.90345  -0.80176
 Alpha  occ. eigenvalues --   -0.68212  -0.57835  -0.51556  -0.51518  -0.46401
 Alpha  occ. eigenvalues --   -0.45839  -0.33350
 Alpha virt. eigenvalues --    0.09750   0.21334   0.23644   0.25178   0.29024
 Alpha virt. eigenvalues --    0.29965   0.30530   0.38934   0.41570   0.61291
 Alpha virt. eigenvalues --    0.63111   0.66457   0.69963   0.72464   0.76481

 Mulliken charges:
               1
     1  C   -0.518288
     2  C   -0.115581
     3  C   -0.360714
     4  H    0.162275
     5  H    0.177129
     6  H    0.177131
     7  H    0.161988
     8  H    0.166303
     9  H    0.149758
 Sum of Mulliken charges =  -0.00000

 Dipole moment (field-independent basis, Debye):
    X=              0.3477    Y=              0.0723    Z=             -0.0011  Tot=              0.3551
 Quadrupole moment (field-independent basis, Debye-Ang):
   XX=            -18.8329   YY=            -18.4051   ZZ=            -21.3542
   XY=             -0.1221   XZ=              0.0036   YZ=              0.0004

 Normal termination of Gaussian 16 at Wed Jun  5 17:02:41 2019.
