 Gaussian 16, Revision A.03,
 Gaussian 16:  ES64L-G16RevA.03 25-Dec-2016

 ----------------
 # 6-31g(d) wb97x
 ----------------

 ----------------------
 tmpdir/M2_conf_0_4.gjf
 ----------------------
 Symbolic Z-matrix:
 Charge =  0 Multiplicity = 1

                         Standard orientation:
 ---------------------------------------------------------------------
 Center     Atomic      Atomic             Coordinates (Angstroms)
 Number     Number       Type             X           Y           Z
 ---------------------------------------------------------------------
      1          1           0        0.624555   -0.591507   -0.698686
      2          6           0        0.001388    0.001357   -0.001818
      3          1           0        0.124495   -0.413154    1.005816
      4          1           0        0.349212    1.046564   -0.011426
      5          1           0       -1.106590   -0.050046   -0.284797
 ---------------------------------------------------------------------

 SCF Done:  E(RwB97X) =  -40.4976329268     A.U. after   10 cycles

 The electronic state is 1-A.
 Alpha  occ. eigenvalues --  -10.25722  -0.81226  -0.49455  -0.49264  -0.48735
 Alpha virt. eigenvalues --    0.21075   0.26362   0.27116   0.27399   0.64023
 Alpha virt. eigenvalues --    0.64244   0.65629   0.98651   1.00802   1.01358
 Alpha virt. eigenvalues --    1.04966   1.20192   1.76031   1.76263   2.29724

 Mulliken charges:
               1
     1  H    0.166069
     2  C   -0.658529
     3  H    0.167870
     4  H    0.167497
     5  H    0.157094
 Sum of Mulliken charges =  -0.00000

 Dipole moment (field-independent basis, Debye):
    X=              0.0363    Y=             -0.0022    Z=              0.0276  Tot=              0.0457
 Quadrupole moment (field-independent basis, Debye-Ang):
   XX=             -8.2178   YY=             -8.3131   ZZ=             -8.3741
   XY=             -0.0005   XZ=             -0.0209   YZ=             -0.0077

 Normal termination of Gaussian 16 at Wed Jun  5 16:59:28 2019.
