 Gaussian 16, Revision A.03,
 Gaussian 16:  ES64L-G16RevA.03 25-Dec-2016

 ----------------
 # 6-31g(d) wb97x
 ----------------

 ------------------------
 tmpdir/M2_conf_0_166.gjf
 ------------------------
 Symbolic Z-matrix:
 Charge =  0 Multiplicity = 1

                         Standard orientation:
 ---------------------------------------------------------------------
 Center     Atomic      Atomic             Coordinates (Angstroms)
 Number     Number       Type             X           Y           Z
 ---------------------------------------------------------------------
      1          7           0        0.804485    0.519249    0.002384
      2          6           0       -0.529904    0.642677   -0.003814
      3          6           0       -1.351349   -0.482348   -0.002870
      4          8           0        1.236175   -0.556997    0.000936
      5          1           0       -0.914101    1.646353   -0.001196
      6          1           0       -0.887078   -1.375220   -0.011345
      7          1           0       -2.432097   -0.411867    0.028468
 ---------------------------------------------------------------------

 SCF Done:  E(RwB97X) =  -207.792549641     A.U. after   21 cycles

 The electronic state is 1-A.
 Alpha  occ. eigenvalues --  -19.26038 -14.50563 -10.31181 -10.30921  -1.31853
 Alpha  occ. eigenvalues --   -0.96758  -0.84367  -0.68339  -0.64607  -0.59975
 Alpha  occ. eigenvalues --   -0.58794  -0.53868  -0.49964  -0.38841  -0.31074
 Alpha virt. eigenvalues --   -0.01644   0.15029   0.21353   0.24632   0.28520
 Alpha virt. eigenvalues --    0.37453   0.38836   0.48374   0.62944   0.64586
 Alpha virt. eigenvalues --    0.69805   0.71397   0.72894   0.76584   0.81047

 Mulliken charges:
               1
     1  N    0.048162
     2  C   -0.050778
     3  C   -0.304127
     4  O   -0.290244
     5  H    0.187709
     6  H    0.211306
     7  H    0.197972
 Sum of Mulliken charges =  -0.00000

 Dipole moment (field-independent basis, Debye):
    X=             -3.0066    Y=              0.0579    Z=              0.0039  Tot=              3.0071
 Quadrupole moment (field-independent basis, Debye-Ang):
   XX=            -22.9153   YY=            -22.0195   ZZ=            -22.9738
   XY=              0.1866   XZ=             -0.0747   YZ=             -0.0121

 Normal termination of Gaussian 16 at Wed Jun  5 17:00:42 2019.
