 Gaussian 16, Revision A.03,
 Gaussian 16:  ES64L-G16RevA.03 25-Dec-2016

 ----------------
 # 6-31g(d) wb97x
 ----------------

 ------------------------
 tmpdir/M2_conf_0_159.gjf
 ------------------------
 Symbolic Z-matrix:
 Charge =  0 Multiplicity = 1

                         Standard orientation:
 ---------------------------------------------------------------------
 Center     Atomic      Atomic             Coordinates (Angstroms)
 Number     Number       Type             X           Y           Z
 ---------------------------------------------------------------------
      1          1           0       -1.263582    1.445688   -0.006619
      2          6           0       -0.663039    0.536770   -0.003865
      3          6           0        0.726992    0.515023   -0.001189
      4          8           0       -1.308447   -0.555124    0.003219
      5          1           0        1.302804    1.432530    0.023015
      6          8           0        1.255579   -0.593498   -0.001478
 ---------------------------------------------------------------------

 SCF Done:  E(RwB97X) =  -227.731104898     A.U. after   16 cycles

 The electronic state is 1-A.
 Alpha  occ. eigenvalues --  -19.25474 -19.25147 -10.38315 -10.38130  -1.21106
 Alpha  occ. eigenvalues --   -1.15863  -0.87700  -0.69648  -0.67019  -0.57814
 Alpha  occ. eigenvalues --   -0.55825  -0.54517  -0.46886  -0.40352  -0.38487
 Alpha virt. eigenvalues --   -0.04010   0.13644   0.20769   0.23310   0.26628
 Alpha virt. eigenvalues --    0.41150   0.48734   0.59026   0.60460   0.67482
 Alpha virt. eigenvalues --    0.68084   0.76143   0.78633   0.86764   0.93103

 Mulliken charges:
               1
     1  H    0.166514
     2  C    0.163129
     3  C    0.177861
     4  O   -0.345560
     5  H    0.165507
     6  O   -0.327451
 Sum of Mulliken charges =   0.00000

 Dipole moment (field-independent basis, Debye):
    X=              0.2743    Y=              3.8285    Z=             -0.0026  Tot=              3.8383
 Quadrupole moment (field-independent basis, Debye-Ang):
   XX=            -25.1298   YY=            -21.0472   ZZ=            -20.8961
   XY=              0.1033   XZ=              0.0248   YZ=              0.0074

 Normal termination of Gaussian 16 at Wed Jun  5 17:00:48 2019.
