 Gaussian 16, Revision A.03,
 Gaussian 16:  ES64L-G16RevA.03 25-Dec-2016

 ----------------
 # 6-31g(d) wb97x
 ----------------

 ----------------------
 tmpdir/M2_conf_2_0.gjf
 ----------------------
 Symbolic Z-matrix:
 Charge =  0 Multiplicity = 1

                         Standard orientation:
 ---------------------------------------------------------------------
 Center     Atomic      Atomic             Coordinates (Angstroms)
 Number     Number       Type             X           Y           Z
 ---------------------------------------------------------------------
      1          6           0        0.000933    0.001892   -0.001481
      2          1           0        0.623587   -0.537444   -0.741884
      3          1           0        0.152243   -0.471792    0.975784
      4          1           0        0.329058    1.052483    0.044601
      5          1           0       -1.110484   -0.054599   -0.269616
 ---------------------------------------------------------------------

 SCF Done:  E(RwB97X) =  -40.4976070160     A.U. after   11 cycles

 The electronic state is 1-A.
 Alpha  occ. eigenvalues --  -10.25729  -0.81222  -0.49475  -0.49232  -0.48738
 Alpha virt. eigenvalues --    0.21071   0.26366   0.27089   0.27407   0.64014
 Alpha virt. eigenvalues --    0.64259   0.65639   0.98654   1.00738   1.01374
 Alpha virt. eigenvalues --    1.04959   1.20185   1.76024   1.76281   2.29689

 Mulliken charges:
               1
     1  C   -0.658473
     2  H    0.165798
     3  H    0.167888
     4  H    0.167588
     5  H    0.157199
 Sum of Mulliken charges =   0.00000

 Dipole moment (field-independent basis, Debye):
    X=              0.0379    Y=             -0.0043    Z=              0.0262  Tot=              0.0462
 Quadrupole moment (field-independent basis, Debye-Ang):
   XX=             -8.2170   YY=             -8.3072   ZZ=             -8.3820
   XY=             -0.0005   XZ=             -0.0179   YZ=             -0.0087

 Normal termination of Gaussian 16 at Wed Jun  5 17:03:28 2019.
