 Gaussian 16, Revision A.03,
 Gaussian 16:  ES64L-G16RevA.03 25-Dec-2016

 ----------------
 # 6-31g(d) wb97x
 ----------------

 -----------------------
 tmpdir/M2_conf_1_34.gjf
 -----------------------
 Symbolic Z-matrix:
 Charge =  0 Multiplicity = 1

                         Standard orientation:
 ---------------------------------------------------------------------
 Center     Atomic      Atomic             Coordinates (Angstroms)
 Number     Number       Type             X           Y           Z
 ---------------------------------------------------------------------
      1          6           0       -0.000764    0.002308   -0.001966
      2          1           0       -0.565770   -0.504613   -0.799324
      3          1           0        1.118970    0.016744   -0.229432
      4          1           0       -0.164212   -0.554097    0.928627
      5          1           0       -0.384402    1.028117    0.111922
 ---------------------------------------------------------------------

 SCF Done:  E(RwB97X) =  -40.4978043581     A.U. after   11 cycles

 The electronic state is 1-A.
 Alpha  occ. eigenvalues --  -10.25628  -0.81290  -0.49479  -0.49313  -0.48773
 Alpha virt. eigenvalues --    0.21134   0.26431   0.27240   0.27411   0.63934
 Alpha virt. eigenvalues --    0.64203   0.65570   0.98795   1.01072   1.01398
 Alpha virt. eigenvalues --    1.05284   1.20262   1.75984   1.76236   2.29957

 Mulliken charges:
               1
     1  C   -0.659574
     2  H    0.167121
     3  H    0.157534
     4  H    0.167444
     5  H    0.167475
 Sum of Mulliken charges =  -0.00000

 Dipole moment (field-independent basis, Debye):
    X=             -0.0407    Y=             -0.0121    Z=              0.0209  Tot=              0.0473
 Quadrupole moment (field-independent basis, Debye-Ang):
   XX=             -8.2087   YY=             -8.2976   ZZ=             -8.3816
   XY=             -0.0021   XZ=              0.0195   YZ=             -0.0011

 Normal termination of Gaussian 16 at Wed Jun  5 17:01:32 2019.
