 Gaussian 16, Revision A.03,
 Gaussian 16:  ES64L-G16RevA.03 25-Dec-2016

 ----------------
 # 6-31g(d) wb97x
 ----------------

 ------------------------
 tmpdir/M2_conf_1_138.gjf
 ------------------------
 Symbolic Z-matrix:
 Charge =  0 Multiplicity = 1

                         Standard orientation:
 ---------------------------------------------------------------------
 Center     Atomic      Atomic             Coordinates (Angstroms)
 Number     Number       Type             X           Y           Z
 ---------------------------------------------------------------------
      1          6           0       -0.812093    0.483337    0.001590
      2          6           0        0.574972    0.650465   -0.001402
      3          6           0        1.430334   -0.472329    0.000832
      4          8           0       -1.286372   -0.651003   -0.001643
      5          1           0       -1.456179    1.347129    0.006857
      6          1           0        1.060166    1.640011   -0.004416
      7          1           0        1.011423   -1.386509    0.005539
      8          1           0        2.516286   -0.361445   -0.000954
 ---------------------------------------------------------------------

 SCF Done:  E(RwB97X) =  -191.834299938     A.U. after   15 cycles

 The electronic state is 1-A.
 Alpha  occ. eigenvalues --  -19.20554 -10.35205 -10.30170 -10.29116  -1.15858
 Alpha  occ. eigenvalues --   -0.91752  -0.79533  -0.66803  -0.63154  -0.55257
 Alpha  occ. eigenvalues --   -0.52661  -0.50437  -0.49006  -0.36732  -0.35823
 Alpha virt. eigenvalues --    0.00859   0.17096   0.20260   0.24144   0.26565
 Alpha virt. eigenvalues --    0.30246   0.34424   0.41036   0.46566   0.62127
 Alpha virt. eigenvalues --    0.62971   0.68026   0.68832   0.70123   0.74366

 Mulliken charges:
               1
     1  C    0.215384
     2  C   -0.204858
     3  C   -0.297379
     4  O   -0.416776
     5  H    0.140365
     6  H    0.167369
     7  H    0.212414
     8  H    0.183482
 Sum of Mulliken charges =  -0.00000

 Dipole moment (field-independent basis, Debye):
    X=              2.0873    Y=              1.7393    Z=              0.0082  Tot=              2.7170
 Quadrupole moment (field-independent basis, Debye-Ang):
   XX=            -22.9388   YY=            -21.9611   ZZ=            -24.3655
   XY=             -3.2500   XZ=             -0.0093   YZ=             -0.0103

 Normal termination of Gaussian 16 at Wed Jun  5 17:02:34 2019.
