 Gaussian 16, Revision A.03,
 Gaussian 16:  ES64L-G16RevA.03 25-Dec-2016

 ----------------
 # 6-31g(d) wb97x
 ----------------

 -----------------------
 tmpdir/M2_conf_0_15.gjf
 -----------------------
 Symbolic Z-matrix:
 Charge =  0 Multiplicity = 1

                         Standard orientation:
 ---------------------------------------------------------------------
 Center     Atomic      Atomic             Coordinates (Angstroms)
 Number     Number       Type             X           Y           Z
 ---------------------------------------------------------------------
      1          6           0        1.200206   -0.254832   -0.033927
      2          6           0       -0.054947    0.600531    0.059986
      3          7           0       -1.161777   -0.325661   -0.113330
      4          1           0        1.267353   -0.684427   -1.051960
      5          1           0        2.084203    0.373913    0.125915
      6          1           0        1.181805   -1.074134    0.765287
      7          1           0       -0.040675    1.358443   -0.732411
      8          1           0       -0.056662    1.129556    1.034104
      9          1           0       -2.053736    0.156029   -0.100643
     10          1           0       -1.121398   -1.053948    0.596663
 ---------------------------------------------------------------------

 SCF Done:  E(RwB97X) =  -135.126022687     A.U. after   12 cycles

 The electronic state is 1-A.
 Alpha  occ. eigenvalues --  -14.37936 -10.28472 -10.25702  -1.00307  -0.84718
 Alpha  occ. eigenvalues --   -0.71528  -0.60119  -0.56801  -0.52579  -0.46223
 Alpha  occ. eigenvalues --   -0.45471  -0.44395  -0.32539
 Alpha virt. eigenvalues --    0.18207   0.22312   0.23136   0.26191   0.27125
 Alpha virt. eigenvalues --    0.29331   0.30075   0.33830   0.35389   0.63328
 Alpha virt. eigenvalues --    0.67722   0.68405   0.69091   0.78287   0.78990

 Mulliken charges:
               1
     1  C   -0.459859
     2  C   -0.145523
     3  N   -0.738668
     4  H    0.171843
     5  H    0.149998
     6  H    0.133501
     7  H    0.154178
     8  H    0.122471
     9  H    0.308128
    10  H    0.303930
 Sum of Mulliken charges =  -0.00000

 Dipole moment (field-independent basis, Debye):
    X=             -0.3014    Y=              0.5429    Z=              1.1008  Tot=              1.2639
 Quadrupole moment (field-independent basis, Debye-Ang):
   XX=            -19.1808   YY=            -20.2907   ZZ=            -21.1333
   XY=             -0.4844   XZ=             -1.5215   YZ=             -1.8082

 Normal termination of Gaussian 16 at Wed Jun  5 16:59:17 2019.
