 Gaussian 16, Revision A.03,
 Gaussian 16:  ES64L-G16RevA.03 25-Dec-2016

 ----------------
 # 6-31g(d) wb97x
 ----------------

 -----------------------
 tmpdir/M2_conf_1_25.gjf
 -----------------------
 Symbolic Z-matrix:
 Charge =  0 Multiplicity = 1

                         Standard orientation:
 ---------------------------------------------------------------------
 Center     Atomic      Atomic             Coordinates (Angstroms)
 Number     Number       Type             X           Y           Z
 ---------------------------------------------------------------------
      1          6           0       -0.002245    0.003844   -0.000403
      2          1           0        0.213116   -0.715604   -0.799356
      3          1           0       -1.097714    0.309124   -0.042827
      4          1           0        0.687290    0.862670   -0.114756
      5          1           0        0.210777   -0.479257    0.959354
 ---------------------------------------------------------------------

 SCF Done:  E(RwB97X) =  -40.4978167769     A.U. after   11 cycles

 The electronic state is 1-A.
 Alpha  occ. eigenvalues --  -10.25585  -0.81324  -0.49443  -0.49278  -0.48882
 Alpha virt. eigenvalues --    0.21152   0.26599   0.27139   0.27428   0.63913
 Alpha virt. eigenvalues --    0.64100   0.65634   0.99079   1.00844   1.01420
 Alpha virt. eigenvalues --    1.05575   1.20327   1.75972   1.76216   2.29862

 Mulliken charges:
               1
     1  C   -0.660339
     2  H    0.167325
     3  H    0.159577
     4  H    0.165810
     5  H    0.167627
 Sum of Mulliken charges =   0.00000

 Dipole moment (field-independent basis, Debye):
    X=              0.0420    Y=             -0.0360    Z=              0.0054  Tot=              0.0556
 Quadrupole moment (field-independent basis, Debye-Ang):
   XX=             -8.1581   YY=             -8.3645   ZZ=             -8.3577
   XY=              0.0134   XZ=             -0.0014   YZ=              0.0010

 Normal termination of Gaussian 16 at Wed Jun  5 17:01:21 2019.
