 Gaussian 16, Revision A.03,
 Gaussian 16:  ES64L-G16RevA.03 25-Dec-2016

 ----------------
 # 6-31g(d) wb97x
 ----------------

 ------------------------
 tmpdir/M2_conf_2_168.gjf
 ------------------------
 Symbolic Z-matrix:
 Charge =  0 Multiplicity = 1

                         Standard orientation:
 ---------------------------------------------------------------------
 Center     Atomic      Atomic             Coordinates (Angstroms)
 Number     Number       Type             X           Y           Z
 ---------------------------------------------------------------------
      1          6           0        1.800552    0.144187   -0.083527
      2          6           0        0.548965   -0.439608    0.098574
      3          6           0       -0.690921    0.376789    0.121509
      4          1           0        2.589986   -0.480006   -0.080624
      5          1           0        1.926901    1.208343   -0.243474
      6          1           0        0.443606   -1.480955    0.217504
      7          8           0       -1.779032   -0.136896   -0.133999
      8          1           0       -0.679813    1.359579    0.359249
 ---------------------------------------------------------------------

 SCF Done:  E(RwB97X) =  -191.833830067     A.U. after   16 cycles

 The electronic state is 1-A.
 Alpha  occ. eigenvalues --  -19.21134 -10.35473 -10.29949 -10.29642  -1.15929
 Alpha  occ. eigenvalues --   -0.92161  -0.77920  -0.70900  -0.60388  -0.57803
 Alpha  occ. eigenvalues --   -0.52383  -0.51310  -0.49172  -0.37718  -0.35730
 Alpha virt. eigenvalues --    0.02232   0.14005   0.21706   0.23030   0.26052
 Alpha virt. eigenvalues --    0.30411   0.36025   0.39139   0.43657   0.61768
 Alpha virt. eigenvalues --    0.63587   0.64381   0.69057   0.71897   0.74291

 Mulliken charges:
               1
     1  C   -0.341750
     2  C   -0.183484
     3  C    0.214938
     4  H    0.188903
     5  H    0.184550
     6  H    0.194168
     7  O   -0.406796
     8  H    0.149471
 Sum of Mulliken charges =  -0.00000

 Dipole moment (field-independent basis, Debye):
    X=              3.0046    Y=              0.8301    Z=              0.4714  Tot=              3.1526
 Quadrupole moment (field-independent basis, Debye-Ang):
   XX=            -26.4814   YY=            -20.7997   ZZ=            -24.3254
   XY=             -1.0749   XZ=             -1.0843   YZ=             -0.3449

 Normal termination of Gaussian 16 at Wed Jun  5 17:05:27 2019.
