 Gaussian 16, Revision A.03,
 Gaussian 16:  ES64L-G16RevA.03 25-Dec-2016

 ----------------
 # 6-31g(d) wb97x
 ----------------

 ------------------------
 tmpdir/M2_conf_1_101.gjf
 ------------------------
 Symbolic Z-matrix:
 Charge =  0 Multiplicity = 1

                         Standard orientation:
 ---------------------------------------------------------------------
 Center     Atomic      Atomic             Coordinates (Angstroms)
 Number     Number       Type             X           Y           Z
 ---------------------------------------------------------------------
      1          6           0       -1.252374    0.297035   -0.060086
      2          7           0       -0.031491    0.917917   -0.065287
      3          6           0        1.241951    0.332606    0.125208
      4          1           0       -2.103301    0.958771   -0.205381
      5          8           0       -1.407841   -0.902960    0.108463
      6          1           0       -0.049006    1.925723   -0.019483
      7          8           0        1.464371   -0.849704   -0.128480
      8          1           0        1.983038    0.933555    0.451272
 ---------------------------------------------------------------------

 SCF Done:  E(RwB97X) =  -283.127612081     A.U. after   17 cycles

 The electronic state is 1-A.
 Alpha  occ. eigenvalues --  -19.21882 -19.20834 -14.47910 -10.39921 -10.39713
 Alpha  occ. eigenvalues --   -1.19396  -1.16338  -1.07356  -0.83299  -0.71231
 Alpha  occ. eigenvalues --   -0.70340  -0.62402  -0.56422  -0.54952  -0.53261
 Alpha  occ. eigenvalues --   -0.48841  -0.40128  -0.39219  -0.35926
 Alpha virt. eigenvalues --    0.04743   0.13337   0.15705   0.22293   0.24405
 Alpha virt. eigenvalues --    0.32681   0.34174   0.40097   0.44561   0.59445
 Alpha virt. eigenvalues --    0.60769   0.65187   0.69851   0.73006   0.74901

 Mulliken charges:
               1
     1  C    0.339738
     2  N   -0.598467
     3  C    0.348949
     4  H    0.152747
     5  O   -0.390990
     6  H    0.352001
     7  O   -0.375500
     8  H    0.171522
 Sum of Mulliken charges =  -0.00000

 Dipole moment (field-independent basis, Debye):
    X=              0.1286    Y=              5.8260    Z=              0.3674  Tot=              5.8390
 Quadrupole moment (field-independent basis, Debye-Ang):
   XX=            -27.9735   YY=            -26.5132   ZZ=            -27.7106
   XY=             -0.0161   XZ=              1.5242   YZ=              0.2605

 Normal termination of Gaussian 16 at Wed Jun  5 17:02:07 2019.
