 Gaussian 16, Revision A.03,
 Gaussian 16:  ES64L-G16RevA.03 25-Dec-2016

 ----------------
 # 6-31g(d) wb97x
 ----------------

 ------------------------
 tmpdir/M2_conf_2_165.gjf
 ------------------------
 Symbolic Z-matrix:
 Charge =  0 Multiplicity = 1

                         Standard orientation:
 ---------------------------------------------------------------------
 Center     Atomic      Atomic             Coordinates (Angstroms)
 Number     Number       Type             X           Y           Z
 ---------------------------------------------------------------------
      1          6           0       -0.624256    0.380730    0.096974
      2          6           0        0.625764   -0.406753    0.091339
      3          1           0       -0.523588    1.412671    0.283042
      4          6           0       -1.871502   -0.192844   -0.139322
      5          6           0        1.852016    0.217146   -0.140867
      6          1           0        0.631452   -1.402349    0.268213
 ---------------------------------------------------------------------

 SCF Done:  E(RwB97X) =  -153.250141980     A.U. after   18 cycles

 The electronic state is 1-A.
 Alpha  occ. eigenvalues --  -10.36800 -10.36774 -10.31781 -10.31417  -0.96611
 Alpha  occ. eigenvalues --   -0.86241  -0.68631  -0.67148  -0.56877  -0.45397
 Alpha  occ. eigenvalues --   -0.43120  -0.40402  -0.34592
 Alpha virt. eigenvalues --   -0.02924  -0.00767   0.04054   0.13725   0.22817
 Alpha virt. eigenvalues --    0.26407   0.35601   0.40482   0.43358   0.59817
 Alpha virt. eigenvalues --    0.61173   0.63055   0.66084   0.67058   0.68289

 Mulliken charges:
               1
     1  C   -0.278297
     2  C   -0.264448
     3  H    0.235292
     4  C    0.039056
     5  C    0.034883
     6  H    0.233514
 Sum of Mulliken charges =  -0.00000

 Dipole moment (field-independent basis, Debye):
    X=              0.0998    Y=             -0.0324    Z=              0.6411  Tot=              0.6496
 Quadrupole moment (field-independent basis, Debye-Ang):
   XX=            -31.8111   YY=            -19.4169   ZZ=            -25.4315
   XY=             -4.0323   XZ=              0.0344   YZ=              0.0359

 Normal termination of Gaussian 16 at Wed Jun  5 17:04:45 2019.
