 Gaussian 16, Revision A.03,
 Gaussian 16:  ES64L-G16RevA.03 25-Dec-2016

 ----------------
 # 6-31g(d) wb97x
 ----------------

 ------------------------
 tmpdir/M2_conf_1_135.gjf
 ------------------------
 Symbolic Z-matrix:
 Charge =  0 Multiplicity = 1

                         Standard orientation:
 ---------------------------------------------------------------------
 Center     Atomic      Atomic             Coordinates (Angstroms)
 Number     Number       Type             X           Y           Z
 ---------------------------------------------------------------------
      1          1           0        0.207741   -0.067543    1.064814
      2          6           0       -0.011192    0.000249   -0.004296
      3          1           0        0.485980   -0.850492   -0.489400
      4          1           0       -1.089452   -0.002008   -0.174423
      5          1           0        0.462886    0.918548   -0.375215
 ---------------------------------------------------------------------

 SCF Done:  E(RwB97X) =  -40.4990223521     A.U. after   11 cycles

 The electronic state is 1-A.
 Alpha  occ. eigenvalues --  -10.24978  -0.81720  -0.50231  -0.49098  -0.49020
 Alpha virt. eigenvalues --    0.21589   0.27286   0.27366   0.27797   0.63845
 Alpha virt. eigenvalues --    0.64049   0.64473   1.01206   1.01305   1.02438
 Alpha virt. eigenvalues --    1.06944   1.20878   1.75802   1.75886   2.34219

 Mulliken charges:
               1
     1  H    0.165746
     2  C   -0.667084
     3  H    0.165392
     4  H    0.170444
     5  H    0.165502
 Sum of Mulliken charges =  -0.00000

 Dipole moment (field-independent basis, Debye):
    X=              0.0349    Y=             -0.0011    Z=              0.0204  Tot=              0.0404
 Quadrupole moment (field-independent basis, Debye-Ang):
   XX=             -8.1065   YY=             -8.3154   ZZ=             -8.3504
   XY=              0.0004   XZ=              0.0087   YZ=             -0.0006

 Normal termination of Gaussian 16 at Wed Jun  5 17:02:16 2019.
