 Gaussian 16, Revision A.03,
 Gaussian 16:  ES64L-G16RevA.03 25-Dec-2016

 ----------------
 # 6-31g(d) wb97x
 ----------------

 ------------------------
 tmpdir/M2_conf_0_181.gjf
 ------------------------
 Symbolic Z-matrix:
 Charge =  0 Multiplicity = 1

                         Standard orientation:
 ---------------------------------------------------------------------
 Center     Atomic      Atomic             Coordinates (Angstroms)
 Number     Number       Type             X           Y           Z
 ---------------------------------------------------------------------
      1          6           0       -0.690635    0.512440   -0.000805
      2          6           0        0.696164    0.511116   -0.000488
      3          1           0        1.225779    1.459328    0.004579
      4          8           0       -1.284454   -0.564836    0.000591
      5          1           0       -1.240962    1.447626   -0.000458
      6          8           0        1.282206   -0.566200   -0.000137
 ---------------------------------------------------------------------

 SCF Done:  E(RwB97X) =  -227.736171652     A.U. after   14 cycles

 The electronic state is 1-A.
 Alpha  occ. eigenvalues --  -19.25350 -19.25249 -10.37893 -10.37783  -1.21734
 Alpha  occ. eigenvalues --   -1.17243  -0.87883  -0.69252  -0.67168  -0.58080
 Alpha  occ. eigenvalues --   -0.56348  -0.55123  -0.47662  -0.40758  -0.38251
 Alpha virt. eigenvalues --   -0.03578   0.14346   0.20725   0.23910   0.27303
 Alpha virt. eigenvalues --    0.41254   0.49559   0.58882   0.61330   0.67380
 Alpha virt. eigenvalues --    0.69841   0.77672   0.78184   0.86344   0.92758

 Mulliken charges:
               1
     1  C    0.174824
     2  C    0.179397
     3  H    0.155324
     4  O   -0.333728
     5  H    0.156846
     6  O   -0.332664
 Sum of Mulliken charges =  -0.00000

 Dipole moment (field-independent basis, Debye):
    X=              0.0140    Y=              3.7046    Z=             -0.0010  Tot=              3.7046
 Quadrupole moment (field-independent basis, Debye-Ang):
   XX=            -25.3167   YY=            -21.1032   ZZ=            -20.7905
   XY=             -0.0152   XZ=              0.0037   YZ=              0.0014

 Normal termination of Gaussian 16 at Wed Jun  5 17:00:40 2019.
