 Gaussian 16, Revision A.03,
 Gaussian 16:  ES64L-G16RevA.03 25-Dec-2016

 ----------------
 # 6-31g(d) wb97x
 ----------------

 -----------------------
 tmpdir/M2_conf_0_73.gjf
 -----------------------
 Symbolic Z-matrix:
 Charge =  0 Multiplicity = 1

                         Standard orientation:
 ---------------------------------------------------------------------
 Center     Atomic      Atomic             Coordinates (Angstroms)
 Number     Number       Type             X           Y           Z
 ---------------------------------------------------------------------
      1          1           0        1.239579    0.929529   -0.008333
      2          6           0        0.692848   -0.009805    0.001018
      3          6           0       -0.696438   -0.009400   -0.005473
      4          1           0        1.214853   -0.874752    0.010704
      5          1           0       -1.224404    0.941889    0.021023
      6          1           0       -1.208489   -0.881436    0.003337
 ---------------------------------------------------------------------

 SCF Done:  E(RwB97X) =  -78.5442550531     A.U. after   12 cycles

 The electronic state is 1-A.
 Alpha  occ. eigenvalues --  -10.26646 -10.26569  -0.87779  -0.71000  -0.58453
 Alpha  occ. eigenvalues --   -0.51017  -0.47255  -0.35697
 Alpha virt. eigenvalues --    0.10023   0.22248   0.26298   0.27024   0.35042
 Alpha virt. eigenvalues --    0.40991   0.59734   0.66097   0.66582   0.74650
 Alpha virt. eigenvalues --    0.75710   0.77881   0.99826   1.00345   1.08393

 Mulliken charges:
               1
     1  H    0.161544
     2  C   -0.333001
     3  C   -0.332474
     4  H    0.170474
     5  H    0.162343
     6  H    0.171115
 Sum of Mulliken charges =   0.00000

 Dipole moment (field-independent basis, Debye):
    X=              0.0094    Y=             -0.0403    Z=              0.0257  Tot=              0.0487
 Quadrupole moment (field-independent basis, Debye-Ang):
   XX=            -11.8789   YY=            -11.9075   ZZ=            -15.1120
   XY=              0.0066   XZ=             -0.0274   YZ=             -0.0002

 Normal termination of Gaussian 16 at Wed Jun  5 16:59:57 2019.
