 Gaussian 16, Revision A.03,
 Gaussian 16:  ES64L-G16RevA.03 25-Dec-2016

 ----------------
 # 6-31g(d) wb97x
 ----------------

 ------------------------
 tmpdir/M2_conf_1_192.gjf
 ------------------------
 Symbolic Z-matrix:
 Charge =  0 Multiplicity = 1

                         Standard orientation:
 ---------------------------------------------------------------------
 Center     Atomic      Atomic             Coordinates (Angstroms)
 Number     Number       Type             X           Y           Z
 ---------------------------------------------------------------------
      1          6           0        0.763584    0.502692   -0.006200
      2          6           0       -0.630563    0.590222   -0.001534
      3          7           0       -1.448167   -0.461070   -0.001385
      4          1           0        1.388025    1.377353   -0.002005
      5          8           0        1.265665   -0.620233    0.004008
      6          1           0       -1.121651    1.562701    0.026600
      7          1           0       -1.052655   -1.308184   -0.000568
 ---------------------------------------------------------------------

 SCF Done:  E(RwB97X) =  -207.864638692     A.U. after   16 cycles

 The electronic state is 1-A.
 Alpha  occ. eigenvalues --  -19.23945 -14.42851 -10.37486 -10.33720  -1.19010
 Alpha  occ. eigenvalues --   -1.03886  -0.85584  -0.71344  -0.65307  -0.59648
 Alpha  occ. eigenvalues --   -0.53597  -0.53302  -0.42218  -0.40171  -0.37972
 Alpha virt. eigenvalues --   -0.01978   0.15148   0.21012   0.24008   0.25218
 Alpha virt. eigenvalues --    0.32586   0.44460   0.47174   0.60607   0.62846
 Alpha virt. eigenvalues --    0.68931   0.70103   0.73482   0.77614   0.82108

 Mulliken charges:
               1
     1  C    0.208827
     2  C   -0.035515
     3  N   -0.470716
     4  H    0.161561
     5  O   -0.387391
     6  H    0.182015
     7  H    0.341218
 Sum of Mulliken charges =  -0.00000

 Dipole moment (field-independent basis, Debye):
    X=              0.5503    Y=              2.0300    Z=             -0.0052  Tot=              2.1033
 Quadrupole moment (field-independent basis, Debye-Ang):
   XX=            -28.9696   YY=            -19.4586   ZZ=            -22.6239
   XY=              2.2101   XZ=             -0.0277   YZ=              0.0347

 Normal termination of Gaussian 16 at Wed Jun  5 17:03:09 2019.
