 Gaussian 16, Revision A.03,
 Gaussian 16:  ES64L-G16RevA.03 25-Dec-2016

 ----------------
 # 6-31g(d) wb97x
 ----------------

 ------------------------
 tmpdir/M2_conf_0_152.gjf
 ------------------------
 Symbolic Z-matrix:
 Charge =  0 Multiplicity = 1

                         Standard orientation:
 ---------------------------------------------------------------------
 Center     Atomic      Atomic             Coordinates (Angstroms)
 Number     Number       Type             X           Y           Z
 ---------------------------------------------------------------------
      1          6           0       -1.395592   -0.358826   -0.000195
      2          7           0       -0.560376    0.676989   -0.000813
      3          6           0        0.764964    0.478670    0.002418
      4          1           0       -2.464376   -0.205763   -0.004725
      5          1           0       -1.125788   -1.383032    0.010153
      6          8           0        1.239895   -0.653873   -0.001697
      7          1           0        1.377397    1.361797    0.000502
 ---------------------------------------------------------------------

 SCF Done:  E(RwB97X) =  -207.877818775     A.U. after   16 cycles

 The electronic state is 1-A.
 Alpha  occ. eigenvalues --  -19.21531 -14.42876 -10.37865 -10.35745  -1.18161
 Alpha  occ. eigenvalues --   -1.04881  -0.83936  -0.70415  -0.63830  -0.57285
 Alpha  occ. eigenvalues --   -0.54864  -0.53675  -0.41631  -0.40284  -0.36226
 Alpha virt. eigenvalues --   -0.01030   0.15309   0.21701   0.24057   0.27460
 Alpha virt. eigenvalues --    0.33084   0.37086   0.46838   0.60080   0.63696
 Alpha virt. eigenvalues --    0.66721   0.67454   0.75090   0.77103   0.80429

 Mulliken charges:
               1
     1  C   -0.102229
     2  N   -0.358736
     3  C    0.291998
     4  H    0.196359
     5  H    0.205189
     6  O   -0.399006
     7  H    0.166424
 Sum of Mulliken charges =  -0.00000

 Dipole moment (field-independent basis, Debye):
    X=             -1.8865    Y=              0.0073    Z=              0.0146  Tot=              1.8866
 Quadrupole moment (field-independent basis, Debye-Ang):
   XX=            -21.0161   YY=            -23.7577   ZZ=            -22.5620
   XY=              5.7403   XZ=              0.0020   YZ=             -0.0011

 Normal termination of Gaussian 16 at Wed Jun  5 17:00:37 2019.
