 Gaussian 16, Revision A.03,
 Gaussian 16:  ES64L-G16RevA.03 25-Dec-2016

 ----------------
 # 6-31g(d) wb97x
 ----------------

 ------------------------
 tmpdir/M2_conf_2_164.gjf
 ------------------------
 Symbolic Z-matrix:
 Charge =  0 Multiplicity = 1

                         Standard orientation:
 ---------------------------------------------------------------------
 Center     Atomic      Atomic             Coordinates (Angstroms)
 Number     Number       Type             X           Y           Z
 ---------------------------------------------------------------------
      1          1           0       -1.305140    0.891161    0.017477
      2          6           0       -0.702468   -0.009029   -0.002945
      3          6           0        0.690424    0.008068   -0.000835
      4          1           0       -1.127503   -0.921267   -0.003124
      5          1           0        1.248049   -0.885502    0.014523
      6          1           0        1.256858    0.921371   -0.006199
 ---------------------------------------------------------------------

 SCF Done:  E(RwB97X) =  -78.5460303490     A.U. after   13 cycles

 The electronic state is 1-A.
 Alpha  occ. eigenvalues --  -10.26987 -10.26649  -0.87652  -0.70892  -0.58116
 Alpha  occ. eigenvalues --   -0.51171  -0.47078  -0.35651
 Alpha virt. eigenvalues --    0.09933   0.22576   0.25352   0.27038   0.34982
 Alpha virt. eigenvalues --    0.40914   0.59899   0.66073   0.66596   0.74563
 Alpha virt. eigenvalues --    0.75762   0.77607   0.99852   1.00659   1.07005

 Mulliken charges:
               1
     1  H    0.168569
     2  C   -0.329616
     3  C   -0.337919
     4  H    0.169034
     5  H    0.166751
     6  H    0.163181
 Sum of Mulliken charges =   0.00000

 Dipole moment (field-independent basis, Debye):
    X=              0.0106    Y=             -0.0388    Z=              0.0215  Tot=              0.0456
 Quadrupole moment (field-independent basis, Debye-Ang):
   XX=            -11.7959   YY=            -11.9749   ZZ=            -15.1473
   XY=             -0.1185   XZ=             -0.0095   YZ=              0.0006

 Normal termination of Gaussian 16 at Wed Jun  5 17:04:59 2019.
