 Gaussian 16, Revision A.03,
 Gaussian 16:  ES64L-G16RevA.03 25-Dec-2016

 ----------------
 # 6-31g(d) wb97x
 ----------------

 ------------------------
 tmpdir/M2_conf_0_163.gjf
 ------------------------
 Symbolic Z-matrix:
 Charge =  0 Multiplicity = 1

                         Standard orientation:
 ---------------------------------------------------------------------
 Center     Atomic      Atomic             Coordinates (Angstroms)
 Number     Number       Type             X           Y           Z
 ---------------------------------------------------------------------
      1          6           0       -0.759133    0.499981   -0.003711
      2          6           0        0.622027    0.658236   -0.000956
      3          6           0        1.399502   -0.497611   -0.002019
      4          8           0       -1.332885   -0.631213    0.002328
      5          1           0       -1.416967    1.368333   -0.005822
      6          1           0        1.074313    1.642507    0.023893
      7          1           0        0.957496   -1.453727    0.009189
      8          1           0        2.473871   -0.471045   -0.005769
 ---------------------------------------------------------------------

 SCF Done:  E(RwB97X) =  -191.838049166     A.U. after   16 cycles

 The electronic state is 1-A.
 Alpha  occ. eigenvalues --  -19.20283 -10.35337 -10.30753 -10.29340  -1.13502
 Alpha  occ. eigenvalues --   -0.92637  -0.79629  -0.66690  -0.63140  -0.55270
 Alpha  occ. eigenvalues --   -0.52008  -0.49432  -0.49149  -0.37053  -0.35443
 Alpha virt. eigenvalues --    0.00515   0.16754   0.20251   0.23600   0.26552
 Alpha virt. eigenvalues --    0.29509   0.34409   0.41293   0.45782   0.62064
 Alpha virt. eigenvalues --    0.62717   0.68752   0.68885   0.69878   0.74226

 Mulliken charges:
               1
     1  C    0.203319
     2  C   -0.190022
     3  C   -0.300848
     4  O   -0.436886
     5  H    0.141350
     6  H    0.180348
     7  H    0.219240
     8  H    0.183500
 Sum of Mulliken charges =  -0.00000

 Dipole moment (field-independent basis, Debye):
    X=              2.4565    Y=              1.7220    Z=              0.0115  Tot=              3.0000
 Quadrupole moment (field-independent basis, Debye-Ang):
   XX=            -23.5494   YY=            -21.5196   ZZ=            -24.4000
   XY=             -3.2869   XZ=              0.0322   YZ=              0.0261

 Normal termination of Gaussian 16 at Wed Jun  5 17:00:42 2019.
