 Gaussian 16, Revision A.03,
 Gaussian 16:  ES64L-G16RevA.03 25-Dec-2016

 ----------------
 # 6-31g(d) wb97x
 ----------------

 ------------------------
 tmpdir/M2_conf_1_105.gjf
 ------------------------
 Symbolic Z-matrix:
 Charge =  0 Multiplicity = 1

                         Standard orientation:
 ---------------------------------------------------------------------
 Center     Atomic      Atomic             Coordinates (Angstroms)
 Number     Number       Type             X           Y           Z
 ---------------------------------------------------------------------
      1          7           0       -1.176821   -0.198503   -0.021016
      2          6           0        0.066570    0.473644    0.031191
      3          6           0        1.281401   -0.209601   -0.016528
      4          1           0       -1.374014   -1.099913    0.240602
      5          1           0       -1.974196    0.398188   -0.183016
      6          1           0        0.046400    1.480896    0.072592
      7          1           0        1.303821   -1.285480   -0.071082
      8          1           0        2.147906    0.311570    0.000038
 ---------------------------------------------------------------------

 SCF Done:  E(RwB97X) =  -133.879024004     A.U. after   15 cycles

 The electronic state is 1-A.
 Alpha  occ. eigenvalues --  -14.40256 -10.29779 -10.22787  -1.01929  -0.84314
 Alpha  occ. eigenvalues --   -0.71076  -0.62382  -0.58645  -0.49902  -0.47908
 Alpha  occ. eigenvalues --   -0.42407  -0.28064
 Alpha virt. eigenvalues --    0.13463   0.19309   0.24123   0.25729   0.29876
 Alpha virt. eigenvalues --    0.31831   0.42403   0.43806   0.63467   0.66416
 Alpha virt. eigenvalues --    0.68415   0.74702   0.76482   0.78586   0.83502

 Mulliken charges:
               1
     1  N   -0.780501
     2  C    0.063758
     3  C   -0.421267
     4  H    0.347509
     5  H    0.332182
     6  H    0.166430
     7  H    0.139431
     8  H    0.152458
 Sum of Mulliken charges =  -0.00000

 Dipole moment (field-independent basis, Debye):
    X=             -1.6534    Y=              0.2443    Z=              0.2718  Tot=              1.6934
 Quadrupole moment (field-independent basis, Debye-Ang):
   XX=            -15.8852   YY=            -15.7408   ZZ=            -21.9878
   XY=              0.3018   XZ=             -0.1128   YZ=             -0.6502

 Normal termination of Gaussian 16 at Wed Jun  5 17:01:57 2019.
