 Gaussian 16, Revision A.03,
 Gaussian 16:  ES64L-G16RevA.03 25-Dec-2016

 ----------------
 # 6-31g(d) wb97x
 ----------------

 -----------------------
 tmpdir/M2_conf_2_47.gjf
 -----------------------
 Symbolic Z-matrix:
 Charge =  0 Multiplicity = 1

                         Standard orientation:
 ---------------------------------------------------------------------
 Center     Atomic      Atomic             Coordinates (Angstroms)
 Number     Number       Type             X           Y           Z
 ---------------------------------------------------------------------
      1          6           0       -1.227340   -0.245150   -0.034321
      2          6           0        0.050199    0.574899    0.062957
      3          7           0        1.189719   -0.316607   -0.115660
      4          1           0       -1.230884   -1.075138    0.751091
      5          1           0       -2.092961    0.405768    0.136930
      6          1           0       -1.313141   -0.658432   -1.059526
      7          1           0        0.054592    1.343072   -0.718081
      8          1           0        0.078174    1.086985    1.044220
      9          1           0        1.167816   -1.053569    0.588756
     10          1           0        2.071219    0.189071   -0.105582
 ---------------------------------------------------------------------

 SCF Done:  E(RwB97X) =  -135.127183751     A.U. after   13 cycles

 The electronic state is 1-A.
 Alpha  occ. eigenvalues --  -14.37875 -10.28472 -10.25850  -0.99988  -0.84865
 Alpha  occ. eigenvalues --   -0.71480  -0.60005  -0.56563  -0.52597  -0.46193
 Alpha  occ. eigenvalues --   -0.45877  -0.44471  -0.32278
 Alpha virt. eigenvalues --    0.18129   0.22319   0.23335   0.26185   0.27053
 Alpha virt. eigenvalues --    0.29024   0.29939   0.33669   0.35655   0.63474
 Alpha virt. eigenvalues --    0.66860   0.68145   0.69160   0.78621   0.79136

 Mulliken charges:
               1
     1  C   -0.461157
     2  C   -0.142937
     3  N   -0.742180
     4  H    0.136031
     5  H    0.153197
     6  H    0.170245
     7  H    0.153243
     8  H    0.121753
     9  H    0.302554
    10  H    0.309250
 Sum of Mulliken charges =  -0.00000

 Dipole moment (field-independent basis, Debye):
    X=              0.2547    Y=              0.5490    Z=              1.1108  Tot=              1.2650
 Quadrupole moment (field-independent basis, Debye-Ang):
   XX=            -19.0619   YY=            -20.2957   ZZ=            -21.1753
   XY=              0.5682   XZ=              1.5645   YZ=             -1.8272

 Normal termination of Gaussian 16 at Wed Jun  5 17:03:45 2019.
