 Gaussian 16, Revision A.03,
 Gaussian 16:  ES64L-G16RevA.03 25-Dec-2016

 ----------------
 # 6-31g(d) wb97x
 ----------------

 ------------------------
 tmpdir/M2_conf_1_144.gjf
 ------------------------
 Symbolic Z-matrix:
 Charge =  0 Multiplicity = 1

                         Standard orientation:
 ---------------------------------------------------------------------
 Center     Atomic      Atomic             Coordinates (Angstroms)
 Number     Number       Type             X           Y           Z
 ---------------------------------------------------------------------
      1          6           0       -1.015231   -0.431586    0.018798
      2          7           0       -0.033921    0.569842    0.011232
      3          6           0        1.335967    0.469489    0.000106
      4          1           0       -0.795044   -1.418063    0.052165
      5          8           0       -2.197935   -0.046528   -0.019536
      6          1           0       -0.367375    1.521929    0.008130
      7          8           0        1.905060   -0.670045   -0.011619
      8          1           0        1.818455    1.412409   -0.003104
 ---------------------------------------------------------------------

 SCF Done:  E(RwB97X) =  -283.129150968     A.U. after   16 cycles

 The electronic state is 1-A.
 Alpha  occ. eigenvalues --  -19.22322 -19.21968 -14.48540 -10.41070 -10.40569
 Alpha  occ. eigenvalues --   -1.19272  -1.15936  -1.06930  -0.83373  -0.75537
 Alpha  occ. eigenvalues --   -0.67316  -0.64141  -0.56816  -0.55043  -0.53834
 Alpha  occ. eigenvalues --   -0.49128  -0.40584  -0.39034  -0.37483
 Alpha virt. eigenvalues --    0.03104   0.12113   0.16340   0.22921   0.24937
 Alpha virt. eigenvalues --    0.30586   0.33670   0.37682   0.44105   0.58230
 Alpha virt. eigenvalues --    0.58518   0.65840   0.67848   0.72769   0.73745

 Mulliken charges:
               1
     1  C    0.373824
     2  N   -0.581469
     3  C    0.339869
     4  H    0.211829
     5  O   -0.436210
     6  H    0.368259
     7  O   -0.453357
     8  H    0.177254
 Sum of Mulliken charges =   0.00000

 Dipole moment (field-independent basis, Debye):
    X=              0.7330    Y=              2.4611    Z=              0.1088  Tot=              2.5702
 Quadrupole moment (field-independent basis, Debye-Ang):
   XX=            -39.5003   YY=            -23.2417   ZZ=            -27.7628
   XY=              5.1580   XZ=             -0.1079   YZ=             -0.0656

 Normal termination of Gaussian 16 at Wed Jun  5 17:02:47 2019.
