 Gaussian 16, Revision A.03,
 Gaussian 16:  ES64L-G16RevA.03 25-Dec-2016

 ----------------
 # 6-31g(d) wb97x
 ----------------

 ------------------------
 tmpdir/M2_conf_1_179.gjf
 ------------------------
 Symbolic Z-matrix:
 Charge =  0 Multiplicity = 1

                         Standard orientation:
 ---------------------------------------------------------------------
 Center     Atomic      Atomic             Coordinates (Angstroms)
 Number     Number       Type             X           Y           Z
 ---------------------------------------------------------------------
      1          6           0        0.548035    0.013662   -0.000684
      2          1           0        1.125682   -0.902657    0.001405
      3          1           0        1.011148    0.904357    0.001478
      4          8           0       -0.678130   -0.010459    0.000152
 ---------------------------------------------------------------------

 SCF Done:  E(RwB97X) =  -114.457734335     A.U. after   14 cycles

 The electronic state is 1-A.
 Alpha  occ. eigenvalues --  -19.22987 -10.35827  -1.17063  -0.77349  -0.62280
 Alpha  occ. eigenvalues --   -0.54972  -0.49508  -0.36873
 Alpha virt. eigenvalues --    0.05594   0.21948   0.29688   0.31771   0.62178
 Alpha virt. eigenvalues --    0.70752   0.74255   0.78559   0.96235   0.98286
 Alpha virt. eigenvalues --    1.06461   1.07920   1.17822   1.48377   1.60977

 Mulliken charges:
               1
     1  C    0.055619
     2  H    0.139796
     3  H    0.155688
     4  O   -0.351103
 Sum of Mulliken charges =  -0.00000

 Dipole moment (field-independent basis, Debye):
    X=              2.4520    Y=              0.1063    Z=              0.0003  Tot=              2.4543
 Quadrupole moment (field-independent basis, Debye-Ang):
   XX=            -11.7639   YY=            -11.2423   ZZ=            -11.3315
   XY=              0.0049   XZ=              0.0012   YZ=             -0.0000

 Normal termination of Gaussian 16 at Wed Jun  5 17:03:05 2019.
