 Gaussian 16, Revision A.03,
 Gaussian 16:  ES64L-G16RevA.03 25-Dec-2016

 ----------------
 # 6-31g(d) wb97x
 ----------------

 -----------------------
 tmpdir/M2_conf_1_90.gjf
 -----------------------
 Symbolic Z-matrix:
 Charge =  0 Multiplicity = 1

                         Standard orientation:
 ---------------------------------------------------------------------
 Center     Atomic      Atomic             Coordinates (Angstroms)
 Number     Number       Type             X           Y           Z
 ---------------------------------------------------------------------
      1          6           0        0.793568    0.484934   -0.003629
      2          6           0       -0.593377    0.652175   -0.008505
      3          6           0       -1.396453   -0.487551    0.004015
      4          8           0        1.282464   -0.638162   -0.000138
      5          1           0        1.454411    1.348594    0.038343
      6          1           0       -1.081708    1.624045    0.001232
      7          1           0       -0.979368   -1.402210   -0.004695
      8          1           0       -2.475474   -0.362479    0.014936
 ---------------------------------------------------------------------

 SCF Done:  E(RwB97X) =  -191.836867771     A.U. after   15 cycles

 The electronic state is 1-A.
 Alpha  occ. eigenvalues --  -19.20440 -10.35121 -10.29846 -10.28793  -1.16041
 Alpha  occ. eigenvalues --   -0.92182  -0.79308  -0.66646  -0.63526  -0.55523
 Alpha  occ. eigenvalues --   -0.52106  -0.50565  -0.49512  -0.37013  -0.35703
 Alpha virt. eigenvalues --    0.01175   0.17282   0.20408   0.24164   0.26763
 Alpha virt. eigenvalues --    0.30507   0.34950   0.41138   0.46126   0.62077
 Alpha virt. eigenvalues --    0.63044   0.68799   0.69079   0.70574   0.74511

 Mulliken charges:
               1
     1  C    0.214324
     2  C   -0.204272
     3  C   -0.295583
     4  O   -0.415279
     5  H    0.134883
     6  H    0.172257
     7  H    0.214653
     8  H    0.179018
 Sum of Mulliken charges =  -0.00000

 Dipole moment (field-independent basis, Debye):
    X=             -2.1111    Y=              1.7112    Z=              0.0176  Tot=              2.7176
 Quadrupole moment (field-independent basis, Debye-Ang):
   XX=            -23.1813   YY=            -21.8433   ZZ=            -24.2972
   XY=              3.0349   XZ=             -0.0213   YZ=              0.0209

 Normal termination of Gaussian 16 at Wed Jun  5 17:01:56 2019.
