 Gaussian 16, Revision A.03,
 Gaussian 16:  ES64L-G16RevA.03 25-Dec-2016

 ----------------
 # 6-31g(d) wb97x
 ----------------

 -----------------------
 tmpdir/M2_conf_0_69.gjf
 -----------------------
 Symbolic Z-matrix:
 Charge =  0 Multiplicity = 1

                         Standard orientation:
 ---------------------------------------------------------------------
 Center     Atomic      Atomic             Coordinates (Angstroms)
 Number     Number       Type             X           Y           Z
 ---------------------------------------------------------------------
      1          6           0       -0.545569   -0.012950   -0.000529
      2          1           0       -1.114909    0.909495    0.001068
      3          1           0       -1.045007   -0.891175    0.001144
      4          8           0        0.679167    0.007423    0.000120
 ---------------------------------------------------------------------

 SCF Done:  E(RwB97X) =  -114.459156723     A.U. after   13 cycles

 The electronic state is 1-A.
 Alpha  occ. eigenvalues --  -19.23087 -10.35936  -1.17174  -0.77394  -0.62034
 Alpha  occ. eigenvalues --   -0.55129  -0.49603  -0.36917
 Alpha virt. eigenvalues --    0.05595   0.21917   0.29734   0.31653   0.62135
 Alpha virt. eigenvalues --    0.71088   0.73800   0.78886   0.96228   0.97727
 Alpha virt. eigenvalues --    1.06005   1.07873   1.17727   1.48409   1.60957

 Mulliken charges:
               1
     1  C    0.056449
     2  H    0.137664
     3  H    0.154825
     4  O   -0.348938
 Sum of Mulliken charges =  -0.00000

 Dipole moment (field-independent basis, Debye):
    X=             -2.4457    Y=             -0.1002    Z=              0.0002  Tot=              2.4478
 Quadrupole moment (field-independent basis, Debye-Ang):
   XX=            -11.7456   YY=            -11.2895   ZZ=            -11.3337
   XY=              0.0448   XZ=             -0.0009   YZ=              0.0000

 Normal termination of Gaussian 16 at Wed Jun  5 17:00:08 2019.
