 Gaussian 16, Revision A.03,
 Gaussian 16:  ES64L-G16RevA.03 25-Dec-2016

 ----------------
 # 6-31g(d) wb97x
 ----------------

 -----------------------
 tmpdir/M2_conf_2_93.gjf
 -----------------------
 Symbolic Z-matrix:
 Charge =  0 Multiplicity = 1

                         Standard orientation:
 ---------------------------------------------------------------------
 Center     Atomic      Atomic             Coordinates (Angstroms)
 Number     Number       Type             X           Y           Z
 ---------------------------------------------------------------------
      1          6           0        0.538263   -0.003010   -0.001998
      2          8           0       -0.683734   -0.001699    0.000484
      3          1           0        1.100946    0.927819    0.003973
      4          1           0        1.139348   -0.896168    0.004146
 ---------------------------------------------------------------------

 SCF Done:  E(RwB97X) =  -114.465170071     A.U. after   14 cycles

 The electronic state is 1-A.
 Alpha  occ. eigenvalues --  -19.23483 -10.36787  -1.17523  -0.76707  -0.60989
 Alpha  occ. eigenvalues --   -0.55537  -0.49900  -0.37009
 Alpha virt. eigenvalues --    0.05555   0.20965   0.28870   0.31511   0.61910
 Alpha virt. eigenvalues --    0.72455   0.72978   0.79500   0.94887   0.95980
 Alpha virt. eigenvalues --    1.02231   1.07671   1.17409   1.48414   1.61094

 Mulliken charges:
               1
     1  C    0.058914
     2  O   -0.340569
     3  H    0.137988
     4  H    0.143666
 Sum of Mulliken charges =  -0.00000

 Dipole moment (field-independent basis, Debye):
    X=              2.4081    Y=             -0.0190    Z=              0.0004  Tot=              2.4082
 Quadrupole moment (field-independent basis, Debye-Ang):
   XX=            -11.7444   YY=            -11.4372   ZZ=            -11.4034
   XY=             -0.0556   XZ=              0.0037   YZ=              0.0002

 Normal termination of Gaussian 16 at Wed Jun  5 17:04:34 2019.
