 Gaussian 16, Revision A.03,
 Gaussian 16:  ES64L-G16RevA.03 25-Dec-2016

 ----------------
 # 6-31g(d) wb97x
 ----------------

 ------------------------
 tmpdir/M2_conf_0_124.gjf
 ------------------------
 Symbolic Z-matrix:
 Charge =  0 Multiplicity = 1

                         Standard orientation:
 ---------------------------------------------------------------------
 Center     Atomic      Atomic             Coordinates (Angstroms)
 Number     Number       Type             X           Y           Z
 ---------------------------------------------------------------------
      1          6           0        0.695373   -0.012098   -0.000177
      2          6           0       -0.700221   -0.008049   -0.000146
      3          1           0        1.166137   -0.900697    0.000949
      4          1           0        1.267941    0.917286    0.000078
      5          1           0       -1.218293   -0.876571    0.000070
      6          1           0       -1.186694    0.980868    0.000840
 ---------------------------------------------------------------------

 SCF Done:  E(RwB97X) =  -78.5417990567     A.U. after   12 cycles

 The electronic state is 1-A.
 Alpha  occ. eigenvalues --  -10.26823 -10.26607  -0.87705  -0.70747  -0.58655
 Alpha  occ. eigenvalues --   -0.50566  -0.47328  -0.35593
 Alpha virt. eigenvalues --    0.09936   0.21817   0.26217   0.27068   0.34909
 Alpha virt. eigenvalues --    0.40452   0.59651   0.66640   0.66889   0.74607
 Alpha virt. eigenvalues --    0.75507   0.77778   0.99228   1.00049   1.08005

 Mulliken charges:
               1
     1  C   -0.332916
     2  C   -0.332932
     3  H    0.168744
     4  H    0.164270
     5  H    0.173139
     6  H    0.159695
 Sum of Mulliken charges =   0.00000

 Dipole moment (field-independent basis, Debye):
    X=              0.0195    Y=             -0.0470    Z=              0.0019  Tot=              0.0509
 Quadrupole moment (field-independent basis, Debye-Ang):
   XX=            -12.0229   YY=            -11.8089   ZZ=            -15.1511
   XY=              0.1395   XZ=              0.0002   YZ=             -0.0000

 Normal termination of Gaussian 16 at Wed Jun  5 17:00:32 2019.
