 Gaussian 16, Revision A.03,
 Gaussian 16:  ES64L-G16RevA.03 25-Dec-2016

 ----------------
 # 6-31g(d) wb97x
 ----------------

 -----------------------
 tmpdir/M2_conf_1_72.gjf
 -----------------------
 Symbolic Z-matrix:
 Charge =  0 Multiplicity = 1

                         Standard orientation:
 ---------------------------------------------------------------------
 Center     Atomic      Atomic             Coordinates (Angstroms)
 Number     Number       Type             X           Y           Z
 ---------------------------------------------------------------------
      1          6           0        0.809204    0.482712   -0.004432
      2          6           0       -0.577928    0.637125   -0.003321
      3          6           0       -1.424869   -0.464164   -0.003605
      4          1           0        1.465868    1.360143    0.030618
      5          8           0        1.279084   -0.653986    0.001280
      6          1           0       -0.991032    1.642453   -0.006209
      7          1           0       -2.500532   -0.303176    0.034319
      8          1           0       -1.045417   -1.401572   -0.000819
 ---------------------------------------------------------------------

 SCF Done:  E(RwB97X) =  -191.837874839     A.U. after   15 cycles

 The electronic state is 1-A.
 Alpha  occ. eigenvalues --  -19.20534 -10.35233 -10.29933 -10.28717  -1.15821
 Alpha  occ. eigenvalues --   -0.92104  -0.79544  -0.66526  -0.63158  -0.55593
 Alpha  occ. eigenvalues --   -0.52504  -0.50477  -0.49195  -0.37023  -0.35714
 Alpha virt. eigenvalues --    0.01070   0.17313   0.20269   0.23854   0.26700
 Alpha virt. eigenvalues --    0.30427   0.34919   0.41051   0.46204   0.61997
 Alpha virt. eigenvalues --    0.63360   0.68198   0.68774   0.70788   0.74506

 Mulliken charges:
               1
     1  C    0.210249
     2  C   -0.192476
     3  C   -0.299837
     4  H    0.138401
     5  O   -0.414695
     6  H    0.164950
     7  H    0.180527
     8  H    0.212879
 Sum of Mulliken charges =  -0.00000

 Dipole moment (field-independent basis, Debye):
    X=             -2.0420    Y=              1.7566    Z=              0.0223  Tot=              2.6937
 Quadrupole moment (field-independent basis, Debye-Ang):
   XX=            -23.1295   YY=            -21.8713   ZZ=            -24.3144
   XY=              3.2567   XZ=             -0.0618   YZ=             -0.0027

 Normal termination of Gaussian 16 at Wed Jun  5 17:02:01 2019.
