 Gaussian 16, Revision A.03,
 Gaussian 16:  ES64L-G16RevA.03 25-Dec-2016

 ----------------
 # 6-31g(d) wb97x
 ----------------

 ------------------------
 tmpdir/M2_conf_2_193.gjf
 ------------------------
 Symbolic Z-matrix:
 Charge =  0 Multiplicity = 1

                         Standard orientation:
 ---------------------------------------------------------------------
 Center     Atomic      Atomic             Coordinates (Angstroms)
 Number     Number       Type             X           Y           Z
 ---------------------------------------------------------------------
      1          6           0        0.741882    0.502362   -0.006167
      2          6           0       -0.654934    0.516921   -0.001456
      3          1           0       -1.200122    1.460126    0.026690
      4          1           0        1.319764    1.408465   -0.001948
      5          8           0        1.301956   -0.592790    0.003975
      6          8           0       -1.382122   -0.530246   -0.001350
 ---------------------------------------------------------------------

 SCF Done:  E(RwB97X) =  -227.731989287     A.U. after   17 cycles

 The electronic state is 1-A.
 Alpha  occ. eigenvalues --  -19.25763 -19.25523 -10.38539 -10.38473  -1.20885
 Alpha  occ. eigenvalues --   -1.15997  -0.88091  -0.69929  -0.66791  -0.57931
 Alpha  occ. eigenvalues --   -0.55731  -0.54740  -0.47096  -0.41006  -0.38334
 Alpha virt. eigenvalues --   -0.04357   0.13470   0.20488   0.23620   0.26414
 Alpha virt. eigenvalues --    0.41671   0.47525   0.58977   0.60802   0.67638
 Alpha virt. eigenvalues --    0.67740   0.75951   0.77013   0.86396   0.93109

 Mulliken charges:
               1
     1  C    0.175036
     2  C    0.173686
     3  H    0.158254
     4  H    0.170996
     5  O   -0.327245
     6  O   -0.350727
 Sum of Mulliken charges =  -0.00000

 Dipole moment (field-independent basis, Debye):
    X=              0.4296    Y=              3.7349    Z=             -0.0050  Tot=              3.7596
 Quadrupole moment (field-independent basis, Debye-Ang):
   XX=            -25.5669   YY=            -21.1303   ZZ=            -20.9161
   XY=              0.3111   XZ=             -0.0284   YZ=              0.0076

 Normal termination of Gaussian 16 at Wed Jun  5 17:05:21 2019.
