 Gaussian 16, Revision A.03,
 Gaussian 16:  ES64L-G16RevA.03 25-Dec-2016

 ----------------
 # 6-31g(d) wb97x
 ----------------

 -----------------------
 tmpdir/M2_conf_0_94.gjf
 -----------------------
 Symbolic Z-matrix:
 Charge =  0 Multiplicity = 1

                         Standard orientation:
 ---------------------------------------------------------------------
 Center     Atomic      Atomic             Coordinates (Angstroms)
 Number     Number       Type             X           Y           Z
 ---------------------------------------------------------------------
      1          6           0       -0.149138    0.388144   -0.014547
      2          7           0        1.062813   -0.162264   -0.021781
      3          1           0       -0.158208    1.475784   -0.021177
      4          8           0       -1.189723   -0.251338    0.013724
      5          1           0        1.833555    0.465960    0.149605
      6          1           0        1.297575   -1.124055    0.001534
 ---------------------------------------------------------------------

 SCF Done:  E(RwB97X) =  -169.839193234     A.U. after   16 cycles

 The electronic state is 1-A.
 Alpha  occ. eigenvalues --  -19.17484 -14.44073 -10.36938  -1.15408  -1.04332
 Alpha  occ. eigenvalues --   -0.75776  -0.66618  -0.60271  -0.51810  -0.50674
 Alpha  occ. eigenvalues --   -0.37113  -0.35133
 Alpha virt. eigenvalues --    0.13007   0.17744   0.20664   0.27936   0.36851
 Alpha virt. eigenvalues --    0.46428   0.64084   0.65319   0.75836   0.79485
 Alpha virt. eigenvalues --    0.81353   0.83128   0.95605   0.98516   0.99458

 Mulliken charges:
               1
     1  C    0.337292
     2  N   -0.717339
     3  H    0.129453
     4  O   -0.460737
     5  H    0.343936
     6  H    0.367394
 Sum of Mulliken charges =  -0.00000

 Dipole moment (field-independent basis, Debye):
    X=              3.9863    Y=              0.8986    Z=              0.2693  Tot=              4.0952
 Quadrupole moment (field-independent basis, Debye-Ang):
   XX=            -17.3495   YY=            -14.7831   ZZ=            -18.3087
   XY=             -1.4038   XZ=              0.6857   YZ=              0.1390

 Normal termination of Gaussian 16 at Wed Jun  5 17:00:23 2019.
