 Gaussian 16, Revision A.03,
 Gaussian 16:  ES64L-G16RevA.03 25-Dec-2016

 ----------------
 # 6-31g(d) wb97x
 ----------------

 ------------------------
 tmpdir/M2_conf_0_123.gjf
 ------------------------
 Symbolic Z-matrix:
 Charge =  0 Multiplicity = 1

                         Standard orientation:
 ---------------------------------------------------------------------
 Center     Atomic      Atomic             Coordinates (Angstroms)
 Number     Number       Type             X           Y           Z
 ---------------------------------------------------------------------
      1          6           0       -0.230311    0.437773    0.000234
      2          6           0        1.168250   -0.139983   -0.000134
      3          1           0       -0.370331    1.433575   -0.000706
      4          8           0       -1.235973   -0.295141    0.000024
      5          1           0        1.913044    0.660494   -0.006314
      6          1           0        1.355977   -0.765058   -0.883104
      7          1           0        1.361457   -0.754625    0.889333
 ---------------------------------------------------------------------

 SCF Done:  E(RwB97X) =  -153.774262266     A.U. after   14 cycles

 The electronic state is 1-A.
 Alpha  occ. eigenvalues --  -19.21310 -10.35911 -10.28049  -1.15131  -0.87943
 Alpha  occ. eigenvalues --   -0.72396  -0.58854  -0.54984  -0.53947  -0.49868
 Alpha  occ. eigenvalues --   -0.45486  -0.35649
 Alpha virt. eigenvalues --    0.06188   0.20878   0.22512   0.27197   0.28222
 Alpha virt. eigenvalues --    0.34837   0.36534   0.63161   0.63529   0.67863
 Alpha virt. eigenvalues --    0.72163   0.75780   0.83040   0.87436   0.96243

 Mulliken charges:
               1
     1  C    0.225780
     2  C   -0.562004
     3  H    0.156069
     4  O   -0.395963
     5  H    0.165195
     6  H    0.205530
     7  H    0.205393
 Sum of Mulliken charges =   0.00000

 Dipole moment (field-independent basis, Debye):
    X=              2.4954    Y=              1.2451    Z=              0.0011  Tot=              2.7888
 Quadrupole moment (field-independent basis, Debye-Ang):
   XX=            -20.6698   YY=            -17.3332   ZZ=            -17.4674
   XY=             -1.4132   XZ=              0.0038   YZ=              0.0012

 Normal termination of Gaussian 16 at Wed Jun  5 17:00:27 2019.
