 Gaussian 16, Revision A.03,
 Gaussian 16:  ES64L-G16RevA.03 25-Dec-2016

 ----------------
 # 6-31g(d) wb97x
 ----------------

 ------------------------
 tmpdir/M2_conf_1_194.gjf
 ------------------------
 Symbolic Z-matrix:
 Charge =  0 Multiplicity = 1

                         Standard orientation:
 ---------------------------------------------------------------------
 Center     Atomic      Atomic             Coordinates (Angstroms)
 Number     Number       Type             X           Y           Z
 ---------------------------------------------------------------------
      1          7           0        0.692191   -0.136684   -0.001190
      2          6           0       -0.627646    0.041415   -0.002982
      3          1           0       -1.226212   -0.869164    0.012032
      4          1           0        1.225527    0.631076    0.010672
      5          1           0       -1.078777    0.946384    0.003513
 ---------------------------------------------------------------------

 SCF Done:  E(RwB97X) =  -94.5760715240     A.U. after   14 cycles

 The electronic state is 1-A.
 Alpha  occ. eigenvalues --  -14.40068 -10.31727  -1.01370  -0.76732  -0.62004
 Alpha  occ. eigenvalues --   -0.54269  -0.41666  -0.36515
 Alpha virt. eigenvalues --    0.07280   0.22085   0.24401   0.29611   0.39685
 Alpha virt. eigenvalues --    0.65556   0.68075   0.71762   0.77400   0.84270
 Alpha virt. eigenvalues --    0.87401   0.97090   1.07222   1.09201   1.18026

 Mulliken charges:
               1
     1  N   -0.505130
     2  C   -0.157171
     3  H    0.175706
     4  H    0.318312
     5  H    0.168283
 Sum of Mulliken charges =  -0.00000

 Dipole moment (field-independent basis, Debye):
    X=             -1.2318    Y=              1.6881    Z=              0.0265  Tot=              2.0899
 Quadrupole moment (field-independent basis, Debye-Ang):
   XX=            -11.3175   YY=            -12.1124   ZZ=            -13.2813
   XY=              2.0862   XZ=              0.0083   YZ=              0.0022

 Normal termination of Gaussian 16 at Wed Jun  5 17:03:21 2019.
