 Gaussian 16, Revision A.03,
 Gaussian 16:  ES64L-G16RevA.03 25-Dec-2016

 ----------------
 # 6-31g(d) wb97x
 ----------------

 ------------------------
 tmpdir/M2_conf_2_155.gjf
 ------------------------
 Symbolic Z-matrix:
 Charge =  0 Multiplicity = 1

                         Standard orientation:
 ---------------------------------------------------------------------
 Center     Atomic      Atomic             Coordinates (Angstroms)
 Number     Number       Type             X           Y           Z
 ---------------------------------------------------------------------
      1          6           0        0.569779   -0.014712   -0.000714
      2          1           0        1.054811    0.954047    0.001409
      3          8           0       -0.698543   -0.000632    0.000155
      4          1           0        1.114860   -0.860717    0.001634
 ---------------------------------------------------------------------

 SCF Done:  E(RwB97X) =  -114.453021992     A.U. after   13 cycles

 The electronic state is 1-A.
 Alpha  occ. eigenvalues --  -19.23241 -10.36465  -1.14956  -0.77990  -0.61799
 Alpha  occ. eigenvalues --   -0.54346  -0.48200  -0.37012
 Alpha virt. eigenvalues --    0.04420   0.21716   0.28989   0.31139   0.62422
 Alpha virt. eigenvalues --    0.68792   0.74077   0.75428   0.97456   0.97697
 Alpha virt. eigenvalues --    1.05979   1.07773   1.17587   1.47205   1.59226

 Mulliken charges:
               1
     1  C    0.048230
     2  H    0.149043
     3  O   -0.366487
     4  H    0.169214
 Sum of Mulliken charges =   0.00000

 Dipole moment (field-independent basis, Debye):
    X=              2.6014    Y=             -0.0821    Z=              0.0005  Tot=              2.6027
 Quadrupole moment (field-independent basis, Debye-Ang):
   XX=            -11.6682   YY=            -11.2272   ZZ=            -11.4358
   XY=             -0.1560   XZ=              0.0013   YZ=              0.0002

 Normal termination of Gaussian 16 at Wed Jun  5 17:04:33 2019.
