 Gaussian 16, Revision A.03,
 Gaussian 16:  ES64L-G16RevA.03 25-Dec-2016

 ----------------
 # 6-31g(d) wb97x
 ----------------

 -----------------------
 tmpdir/M2_conf_2_20.gjf
 -----------------------
 Symbolic Z-matrix:
 Charge =  0 Multiplicity = 1

                         Standard orientation:
 ---------------------------------------------------------------------
 Center     Atomic      Atomic             Coordinates (Angstroms)
 Number     Number       Type             X           Y           Z
 ---------------------------------------------------------------------
      1          7           0       -0.739906    0.002072   -0.113728
      2          6           0        0.701684    0.000736    0.011271
      3          1           0       -1.125585    0.844437    0.307695
      4          1           0       -1.148044   -0.834118    0.288773
      5          1           0        1.097130   -0.895771   -0.480886
      6          1           0        1.015182   -0.031486    1.074237
      7          1           0        1.130553    0.898015   -0.461351
 ---------------------------------------------------------------------

 SCF Done:  E(RwB97X) =  -95.8214816401     A.U. after   14 cycles

 The electronic state is 1-A.
 Alpha  occ. eigenvalues --  -14.37926 -10.27984  -0.99669  -0.77329  -0.60293
 Alpha  occ. eigenvalues --   -0.53677  -0.50606  -0.46961  -0.32153
 Alpha virt. eigenvalues --    0.18456   0.24307   0.25449   0.27570   0.29082
 Alpha virt. eigenvalues --    0.34478   0.66118   0.67852   0.69819   0.84886
 Alpha virt. eigenvalues --    0.87242   0.89608   0.97728   1.02660   1.04799

 Mulliken charges:
               1
     1  N   -0.740166
     2  C   -0.327834
     3  H    0.307528
     4  H    0.309871
     5  H    0.161921
     6  H    0.126470
     7  H    0.162210
 Sum of Mulliken charges =  -0.00000

 Dipole moment (field-independent basis, Debye):
    X=              0.1474    Y=             -0.0154    Z=              1.3555  Tot=              1.3636
 Quadrupole moment (field-independent basis, Debye-Ang):
   XX=            -13.6423   YY=            -12.1293   ZZ=            -15.2628
   XY=              0.0773   XZ=             -2.0553   YZ=              0.0232

 Normal termination of Gaussian 16 at Wed Jun  5 17:03:31 2019.
