 Gaussian 16, Revision A.03,
 Gaussian 16:  ES64L-G16RevA.03 25-Dec-2016

 ----------------
 # 6-31g(d) wb97x
 ----------------

 -----------------------
 tmpdir/M2_conf_0_56.gjf
 -----------------------
 Symbolic Z-matrix:
 Charge =  0 Multiplicity = 1

                         Standard orientation:
 ---------------------------------------------------------------------
 Center     Atomic      Atomic             Coordinates (Angstroms)
 Number     Number       Type             X           Y           Z
 ---------------------------------------------------------------------
      1          6           0        0.000951    0.006165   -0.008645
      2          1           0       -0.070089   -0.210695    1.066811
      3          1           0        1.108609    0.062488   -0.276189
      4          1           0       -0.507416   -0.829241   -0.529535
      5          1           0       -0.536811    0.940457   -0.209219
 ---------------------------------------------------------------------

 SCF Done:  E(RwB97X) =  -40.4973060630     A.U. after   11 cycles

 The electronic state is 1-A.
 Alpha  occ. eigenvalues --  -10.25669  -0.81279  -0.49714  -0.49221  -0.48555
 Alpha virt. eigenvalues --    0.21085   0.26475   0.27046   0.27439   0.63894
 Alpha virt. eigenvalues --    0.64216   0.65731   0.98773   1.00590   1.01503
 Alpha virt. eigenvalues --    1.05400   1.20348   1.76052   1.76227   2.29464

 Mulliken charges:
               1
     1  C   -0.659862
     2  H    0.165429
     3  H    0.159382
     4  H    0.165334
     5  H    0.169716
 Sum of Mulliken charges =   0.00000

 Dipole moment (field-independent basis, Debye):
    X=             -0.0409    Y=             -0.0165    Z=              0.0494  Tot=              0.0662
 Quadrupole moment (field-independent basis, Debye-Ang):
   XX=             -8.1484   YY=             -8.2981   ZZ=             -8.4511
   XY=             -0.0208   XZ=              0.0191   YZ=             -0.0073

 Normal termination of Gaussian 16 at Wed Jun  5 16:59:15 2019.
