 Gaussian 16, Revision A.03,
 Gaussian 16:  ES64L-G16RevA.03 25-Dec-2016

 ----------------
 # 6-31g(d) wb97x
 ----------------

 ------------------------
 tmpdir/M2_conf_1_114.gjf
 ------------------------
 Symbolic Z-matrix:
 Charge =  0 Multiplicity = 1

                         Standard orientation:
 ---------------------------------------------------------------------
 Center     Atomic      Atomic             Coordinates (Angstroms)
 Number     Number       Type             X           Y           Z
 ---------------------------------------------------------------------
      1          6           0       -0.698052   -0.010332   -0.001039
      2          6           0        0.695148   -0.009244   -0.000352
      3          1           0       -1.189735   -0.890624    0.000574
      4          1           0       -1.247218    0.928884    0.004748
      5          1           0        1.225526    0.940721   -0.000763
      6          1           0        1.228851   -0.861522    0.003790
 ---------------------------------------------------------------------

 SCF Done:  E(RwB97X) =  -78.5427617420     A.U. after   12 cycles

 The electronic state is 1-A.
 Alpha  occ. eigenvalues --  -10.26665 -10.26585  -0.87734  -0.71098  -0.58457
 Alpha  occ. eigenvalues --   -0.51002  -0.47317  -0.35633
 Alpha virt. eigenvalues --    0.09944   0.22266   0.26386   0.27053   0.35037
 Alpha virt. eigenvalues --    0.40888   0.59813   0.65975   0.66632   0.74620
 Alpha virt. eigenvalues --    0.75711   0.77638   0.99963   1.00311   1.08571

 Mulliken charges:
               1
     1  C   -0.333174
     2  C   -0.333270
     3  H    0.170314
     4  H    0.163998
     5  H    0.160199
     6  H    0.171933
 Sum of Mulliken charges =   0.00000

 Dipole moment (field-independent basis, Debye):
    X=              0.0056    Y=             -0.0423    Z=              0.0080  Tot=              0.0434
 Quadrupole moment (field-independent basis, Debye-Ang):
   XX=            -11.8629   YY=            -11.9089   ZZ=            -15.1154
   XY=             -0.0662   XZ=             -0.0028   YZ=             -0.0001

 Normal termination of Gaussian 16 at Wed Jun  5 17:02:22 2019.
