 Gaussian 16, Revision A.03,
 Gaussian 16:  ES64L-G16RevA.03 25-Dec-2016

 ----------------
 # 6-31g(d) wb97x
 ----------------

 -----------------------
 tmpdir/M2_conf_0_37.gjf
 -----------------------
 Symbolic Z-matrix:
 Charge =  0 Multiplicity = 1

                         Standard orientation:
 ---------------------------------------------------------------------
 Center     Atomic      Atomic             Coordinates (Angstroms)
 Number     Number       Type             X           Y           Z
 ---------------------------------------------------------------------
      1          7           0       -0.743364    0.002060   -0.113624
      2          6           0        0.705067    0.000748    0.011194
      3          1           0        1.019315   -0.031478    1.073937
      4          1           0       -1.128838    0.844409    0.308011
      5          1           0       -1.151270   -0.834137    0.289081
      6          1           0        1.100271   -0.895739   -0.481182
      7          1           0        1.133666    0.898042   -0.461642
 ---------------------------------------------------------------------

 SCF Done:  E(RwB97X) =  -95.8215665016     A.U. after   13 cycles

 The electronic state is 1-A.
 Alpha  occ. eigenvalues --  -14.37954 -10.28044  -0.99491  -0.77379  -0.60198
 Alpha  occ. eigenvalues --   -0.53572  -0.50537  -0.47030  -0.32180
 Alpha virt. eigenvalues --    0.18457   0.24248   0.25499   0.27557   0.29063
 Alpha virt. eigenvalues --    0.34236   0.66054   0.67758   0.69764   0.84863
 Alpha virt. eigenvalues --    0.87311   0.89566   0.97723   1.02621   1.04793

 Mulliken charges:
               1
     1  N   -0.741719
     2  C   -0.328285
     3  H    0.127382
     4  H    0.307630
     5  H    0.309954
     6  H    0.162383
     7  H    0.162656
 Sum of Mulliken charges =   0.00000

 Dipole moment (field-independent basis, Debye):
    X=              0.1616    Y=             -0.0155    Z=              1.3589  Tot=              1.3686
 Quadrupole moment (field-independent basis, Debye-Ang):
   XX=            -13.6212   YY=            -12.1330   ZZ=            -15.2649
   XY=              0.0769   XZ=             -2.0575   YZ=              0.0231

 Normal termination of Gaussian 16 at Wed Jun  5 16:59:24 2019.
