 Gaussian 16, Revision A.03,
 Gaussian 16:  ES64L-G16RevA.03 25-Dec-2016

 ----------------
 # 6-31g(d) wb97x
 ----------------

 ------------------------
 tmpdir/M2_conf_2_151.gjf
 ------------------------
 Symbolic Z-matrix:
 Charge =  0 Multiplicity = 1

                         Standard orientation:
 ---------------------------------------------------------------------
 Center     Atomic      Atomic             Coordinates (Angstroms)
 Number     Number       Type             X           Y           Z
 ---------------------------------------------------------------------
      1          7           0        0.700335    0.545981    0.001404
      2          6           0       -0.644853    0.502348   -0.001982
      3          8           0        1.262487   -0.468243   -0.000602
      4          8           0       -1.247784   -0.567560    0.000720
      5          1           0       -1.150855    1.450464    0.001120
 ---------------------------------------------------------------------

 SCF Done:  E(RwB97X) =  -243.699663781     A.U. after   24 cycles

 The electronic state is 1-A.
 Alpha  occ. eigenvalues --  -19.31759 -19.27111 -14.53830 -10.40587  -1.36520
 Alpha  occ. eigenvalues --   -1.20838  -0.96019  -0.72548  -0.67940  -0.63584
 Alpha  occ. eigenvalues --   -0.61939  -0.55538  -0.51305  -0.42984  -0.34778
 Alpha virt. eigenvalues --   -0.06484   0.11482   0.22009   0.30309   0.38135
 Alpha virt. eigenvalues --    0.49140   0.59390   0.64346   0.71343   0.77861
 Alpha virt. eigenvalues --    0.79738   0.80086   0.84798   0.90558   0.94170

 Mulliken charges:
               1
     1  N    0.034994
     2  C    0.284005
     3  O   -0.190973
     4  O   -0.316514
     5  H    0.188488
 Sum of Mulliken charges =  -0.00000

 Dipole moment (field-independent basis, Debye):
    X=             -0.7221    Y=              1.9258    Z=             -0.0091  Tot=              2.0567
 Quadrupole moment (field-independent basis, Debye-Ang):
   XX=            -24.4111   YY=            -21.8182   ZZ=            -19.5726
   XY=             -2.9254   XZ=             -0.0088   YZ=             -0.0140

 Normal termination of Gaussian 16 at Wed Jun  5 17:04:48 2019.
