 Gaussian 16, Revision A.03,
 Gaussian 16:  ES64L-G16RevA.03 25-Dec-2016

 ----------------
 # 6-31g(d) wb97x
 ----------------

 ------------------------
 tmpdir/M2_conf_0_193.gjf
 ------------------------
 Symbolic Z-matrix:
 Charge =  0 Multiplicity = 1

                         Standard orientation:
 ---------------------------------------------------------------------
 Center     Atomic      Atomic             Coordinates (Angstroms)
 Number     Number       Type             X           Y           Z
 ---------------------------------------------------------------------
      1          6           0        0.742918    0.504469   -0.006054
      2          6           0       -0.653917    0.517081   -0.001358
      3          1           0       -1.252514    1.427343    0.026183
      4          1           0        1.319537    1.411375   -0.001686
      5          8           0        1.304517   -0.589904    0.003923
      6          8           0       -1.379645   -0.531098   -0.001426
 ---------------------------------------------------------------------

 SCF Done:  E(RwB97X) =  -227.730619768     A.U. after   17 cycles

 The electronic state is 1-A.
 Alpha  occ. eigenvalues --  -19.25811 -19.25351 -10.38648 -10.38391  -1.20915
 Alpha  occ. eigenvalues --   -1.15970  -0.87923  -0.69948  -0.66947  -0.57947
 Alpha  occ. eigenvalues --   -0.55736  -0.54579  -0.47065  -0.40926  -0.38271
 Alpha virt. eigenvalues --   -0.04327   0.13474   0.20510   0.23457   0.26437
 Alpha virt. eigenvalues --    0.41960   0.47383   0.58985   0.60394   0.67595
 Alpha virt. eigenvalues --    0.67649   0.75975   0.77499   0.86761   0.93284

 Mulliken charges:
               1
     1  C    0.176928
     2  C    0.167489
     3  H    0.162301
     4  H    0.171031
     5  O   -0.327311
     6  O   -0.350437
 Sum of Mulliken charges =  -0.00000

 Dipole moment (field-independent basis, Debye):
    X=              0.4102    Y=              3.7372    Z=             -0.0042  Tot=              3.7596
 Quadrupole moment (field-independent basis, Debye-Ang):
   XX=            -25.4595   YY=            -21.1799   ZZ=            -20.9199
   XY=              0.2565   XZ=             -0.0300   YZ=              0.0075

 Normal termination of Gaussian 16 at Wed Jun  5 17:01:08 2019.
