 Gaussian 16, Revision A.03,
 Gaussian 16:  ES64L-G16RevA.03 25-Dec-2016

 ----------------
 # 6-31g(d) wb97x
 ----------------

 ------------------------
 tmpdir/M2_conf_1_153.gjf
 ------------------------
 Symbolic Z-matrix:
 Charge =  0 Multiplicity = 1

                         Standard orientation:
 ---------------------------------------------------------------------
 Center     Atomic      Atomic             Coordinates (Angstroms)
 Number     Number       Type             X           Y           Z
 ---------------------------------------------------------------------
      1          7           0        0.696027   -0.140636   -0.000648
      2          6           0       -0.630597    0.041731   -0.000693
      3          1           0        1.213304    0.648414    0.004601
      4          1           0       -1.236424   -0.863666    0.004044
      5          1           0       -1.065488    0.949314    0.000047
 ---------------------------------------------------------------------

 SCF Done:  E(RwB97X) =  -94.5764205536     A.U. after   14 cycles

 The electronic state is 1-A.
 Alpha  occ. eigenvalues --  -14.40283 -10.31747  -1.01199  -0.76637  -0.61882
 Alpha  occ. eigenvalues --   -0.54135  -0.41531  -0.36793
 Alpha virt. eigenvalues --    0.07112   0.21881   0.24327   0.29713   0.39450
 Alpha virt. eigenvalues --    0.65589   0.67585   0.72006   0.77189   0.84145
 Alpha virt. eigenvalues --    0.87368   0.97179   1.07183   1.08919   1.16798

 Mulliken charges:
               1
     1  N   -0.504248
     2  C   -0.159655
     3  H    0.316903
     4  H    0.177116
     5  H    0.169884
 Sum of Mulliken charges =  -0.00000

 Dipole moment (field-independent basis, Debye):
    X=             -1.2780    Y=              1.7036    Z=              0.0098  Tot=              2.1297
 Quadrupole moment (field-independent basis, Debye-Ang):
   XX=            -11.4065   YY=            -12.0687   ZZ=            -13.3072
   XY=              2.1088   XZ=              0.0056   YZ=              0.0008

 Normal termination of Gaussian 16 at Wed Jun  5 17:02:53 2019.
