 Gaussian 16, Revision A.03,
 Gaussian 16:  ES64L-G16RevA.03 25-Dec-2016

 ----------------
 # 6-31g(d) wb97x
 ----------------

 -----------------------
 tmpdir/M2_conf_0_74.gjf
 -----------------------
 Symbolic Z-matrix:
 Charge =  0 Multiplicity = 1

                         Standard orientation:
 ---------------------------------------------------------------------
 Center     Atomic      Atomic             Coordinates (Angstroms)
 Number     Number       Type             X           Y           Z
 ---------------------------------------------------------------------
      1          6           0       -0.547274   -0.013991   -0.005420
      2          1           0       -1.091278    0.928909    0.010918
      3          8           0        0.677440    0.006178    0.001211
      4          1           0       -1.044595   -0.894388    0.011915
 ---------------------------------------------------------------------

 SCF Done:  E(RwB97X) =  -114.459057929     A.U. after   13 cycles

 The electronic state is 1-A.
 Alpha  occ. eigenvalues --  -19.23001 -10.35949  -1.17150  -0.77169  -0.62183
 Alpha  occ. eigenvalues --   -0.54985  -0.49571  -0.36852
 Alpha virt. eigenvalues --    0.05625   0.21741   0.29643   0.31700   0.62137
 Alpha virt. eigenvalues --    0.70749   0.74550   0.78620   0.96430   0.97664
 Alpha virt. eigenvalues --    1.05716   1.07912   1.17861   1.48433   1.60963

 Mulliken charges:
               1
     1  C    0.055051
     2  H    0.137849
     3  O   -0.349091
     4  H    0.156190
 Sum of Mulliken charges =   0.00000

 Dipole moment (field-independent basis, Debye):
    X=             -2.4399    Y=             -0.1030    Z=              0.0023  Tot=              2.4421
 Quadrupole moment (field-independent basis, Debye-Ang):
   XX=            -11.7883   YY=            -11.2406   ZZ=            -11.3437
   XY=              0.0693   XZ=             -0.0094   YZ=              0.0007

 Normal termination of Gaussian 16 at Wed Jun  5 17:00:00 2019.
