 Gaussian 16, Revision A.03,
 Gaussian 16:  ES64L-G16RevA.03 25-Dec-2016

 ----------------
 # 6-31g(d) wb97x
 ----------------

 -----------------------
 tmpdir/M2_conf_0_39.gjf
 -----------------------
 Symbolic Z-matrix:
 Charge =  0 Multiplicity = 1

                         Standard orientation:
 ---------------------------------------------------------------------
 Center     Atomic      Atomic             Coordinates (Angstroms)
 Number     Number       Type             X           Y           Z
 ---------------------------------------------------------------------
      1          1           0       -0.106085   -0.438672    0.997872
      2          6           0       -0.000839    0.001727   -0.000769
      3          1           0       -0.594110   -0.604684   -0.714567
      4          1           0        1.105768    0.005295   -0.285666
      5          1           0       -0.400539    1.027696    0.006978
 ---------------------------------------------------------------------

 SCF Done:  E(RwB97X) =  -40.4977433205     A.U. after   11 cycles

 The electronic state is 1-A.
 Alpha  occ. eigenvalues --  -10.25714  -0.81229  -0.49494  -0.49169  -0.48803
 Alpha virt. eigenvalues --    0.21088   0.26408   0.27070   0.27414   0.64057
 Alpha virt. eigenvalues --    0.64238   0.65578   0.98787   1.00691   1.01406
 Alpha virt. eigenvalues --    1.04945   1.20198   1.76043   1.76242   2.29902

 Mulliken charges:
               1
     1  H    0.168009
     2  C   -0.658624
     3  H    0.165373
     4  H    0.157614
     5  H    0.167628
 Sum of Mulliken charges =  -0.00000

 Dipole moment (field-independent basis, Debye):
    X=             -0.0355    Y=             -0.0043    Z=              0.0242  Tot=              0.0432
 Quadrupole moment (field-independent basis, Debye-Ang):
   XX=             -8.2200   YY=             -8.3189   ZZ=             -8.3646
   XY=             -0.0069   XZ=              0.0175   YZ=             -0.0096

 Normal termination of Gaussian 16 at Wed Jun  5 16:59:35 2019.
