 Gaussian 16, Revision A.03,
 Gaussian 16:  ES64L-G16RevA.03 25-Dec-2016

 ----------------
 # 6-31g(d) wb97x
 ----------------

 ------------------------
 tmpdir/M2_conf_2_148.gjf
 ------------------------
 Symbolic Z-matrix:
 Charge =  0 Multiplicity = 1

                         Standard orientation:
 ---------------------------------------------------------------------
 Center     Atomic      Atomic             Coordinates (Angstroms)
 Number     Number       Type             X           Y           Z
 ---------------------------------------------------------------------
      1          7           0        1.130032   -0.183077   -0.000629
      2          6           0       -0.104668    0.418831   -0.001833
      3          7           0       -1.212044   -0.318882    0.001410
      4          1           0        1.415922   -1.122221   -0.002034
      5          1           0        1.865139    0.507731    0.008559
      6          1           0       -0.047780    1.476499    0.000341
      7          1           0       -2.031189    0.138712   -0.001336
 ---------------------------------------------------------------------

 SCF Done:  E(RwB97X) =  -149.936113926     A.U. after   15 cycles

 The electronic state is 1-A.
 Alpha  occ. eigenvalues --  -14.42233 -14.35070 -10.34214  -1.05777  -0.95620
 Alpha  occ. eigenvalues --   -0.74867  -0.65839  -0.58546  -0.54549  -0.46641
 Alpha  occ. eigenvalues --   -0.34342  -0.31811
 Alpha virt. eigenvalues --    0.12880   0.18332   0.21591   0.26689   0.29385
 Alpha virt. eigenvalues --    0.39810   0.46275   0.67090   0.67503   0.72429
 Alpha virt. eigenvalues --    0.74771   0.80187   0.84233   0.87605   0.90979

 Mulliken charges:
               1
     1  N   -0.725612
     2  C    0.189754
     3  N   -0.618708
     4  H    0.365035
     5  H    0.333415
     6  H    0.154222
     7  H    0.301895
 Sum of Mulliken charges =  -0.00000

 Dipole moment (field-independent basis, Debye):
    X=              2.2750    Y=              1.9500    Z=              0.0048  Tot=              2.9963
 Quadrupole moment (field-independent basis, Debye-Ang):
   XX=            -13.8818   YY=            -16.6705   ZZ=            -20.3616
   XY=             -2.7547   XZ=              0.0377   YZ=              0.0174

 Normal termination of Gaussian 16 at Wed Jun  5 17:04:49 2019.
