 Gaussian 16, Revision A.03,
 Gaussian 16:  ES64L-G16RevA.03 25-Dec-2016

 ----------------
 # 6-31g(d) wb97x
 ----------------

 -----------------------
 tmpdir/M2_conf_1_47.gjf
 -----------------------
 Symbolic Z-matrix:
 Charge =  0 Multiplicity = 1

                         Standard orientation:
 ---------------------------------------------------------------------
 Center     Atomic      Atomic             Coordinates (Angstroms)
 Number     Number       Type             X           Y           Z
 ---------------------------------------------------------------------
      1          6           0       -1.222714   -0.247001   -0.034252
      2          6           0        0.050575    0.579689    0.062552
      3          7           0        1.185223   -0.318188   -0.115119
      4          1           0       -1.222702   -1.075544    0.752692
      5          1           0       -2.091761    0.399838    0.135087
      6          1           0       -1.305573   -0.662606   -1.058759
      7          1           0        0.051722    1.346431   -0.719903
      8          1           0        0.075144    1.093722    1.042888
      9          1           0        1.160049   -1.053509    0.590899
     10          1           0        2.069393    0.182856   -0.106879
 ---------------------------------------------------------------------

 SCF Done:  E(RwB97X) =  -135.127073077     A.U. after   13 cycles

 The electronic state is 1-A.
 Alpha  occ. eigenvalues --  -14.37886 -10.28474 -10.25824  -1.00008  -0.84838
 Alpha  occ. eigenvalues --   -0.71488  -0.60015  -0.56586  -0.52589  -0.46176
 Alpha  occ. eigenvalues --   -0.45820  -0.44477  -0.32310
 Alpha virt. eigenvalues --    0.18142   0.22316   0.23304   0.26188   0.27060
 Alpha virt. eigenvalues --    0.29073   0.29965   0.33708   0.35572   0.63452
 Alpha virt. eigenvalues --    0.67017   0.68167   0.69132   0.78579   0.79108

 Mulliken charges:
               1
     1  C   -0.460913
     2  C   -0.143283
     3  N   -0.741934
     4  H    0.135755
     5  H    0.152627
     6  H    0.170435
     7  H    0.153479
     8  H    0.122026
     9  H    0.302760
    10  H    0.309047
 Sum of Mulliken charges =  -0.00000

 Dipole moment (field-independent basis, Debye):
    X=              0.2625    Y=              0.5493    Z=              1.1072  Tot=              1.2635
 Quadrupole moment (field-independent basis, Debye-Ang):
   XX=            -19.0768   YY=            -20.2952   ZZ=            -21.1656
   XY=              0.5554   XZ=              1.5503   YZ=             -1.8275

 Normal termination of Gaussian 16 at Wed Jun  5 17:01:39 2019.
