 Gaussian 16, Revision A.03,
 Gaussian 16:  ES64L-G16RevA.03 25-Dec-2016

 ----------------
 # 6-31g(d) wb97x
 ----------------

 -----------------------
 tmpdir/M2_conf_0_47.gjf
 -----------------------
 Symbolic Z-matrix:
 Charge =  0 Multiplicity = 1

                         Standard orientation:
 ---------------------------------------------------------------------
 Center     Atomic      Atomic             Coordinates (Angstroms)
 Number     Number       Type             X           Y           Z
 ---------------------------------------------------------------------
      1          6           0       -1.227569   -0.245056   -0.034325
      2          6           0        0.050183    0.574658    0.062978
      3          7           0        1.189937   -0.316527   -0.115688
      4          1           0       -1.231292   -1.075117    0.751009
      5          1           0       -2.093017    0.406066    0.137024
      6          1           0       -1.313518   -0.658219   -1.059565
      7          1           0        0.054739    1.342904   -0.717988
      8          1           0        0.078329    1.086644    1.044288
      9          1           0        1.168202   -1.053575    0.588646
     10          1           0        2.071319    0.189377   -0.105518
 ---------------------------------------------------------------------

 SCF Done:  E(RwB97X) =  -135.127188132     A.U. after   13 cycles

 The electronic state is 1-A.
 Alpha  occ. eigenvalues --  -14.37875 -10.28472 -10.25851  -0.99987  -0.84866
 Alpha  occ. eigenvalues --   -0.71479  -0.60004  -0.56562  -0.52597  -0.46194
 Alpha  occ. eigenvalues --   -0.45879  -0.44471  -0.32277
 Alpha virt. eigenvalues --    0.18128   0.22319   0.23337   0.26185   0.27053
 Alpha virt. eigenvalues --    0.29021   0.29938   0.33667   0.35660   0.63475
 Alpha virt. eigenvalues --    0.66853   0.68144   0.69162   0.78623   0.79138

 Mulliken charges:
               1
     1  C   -0.461169
     2  C   -0.142917
     3  N   -0.742192
     4  H    0.136044
     5  H    0.153226
     6  H    0.170236
     7  H    0.153231
     8  H    0.121739
     9  H    0.302544
    10  H    0.309258
 Sum of Mulliken charges =   0.00000

 Dipole moment (field-independent basis, Debye):
    X=              0.2544    Y=              0.5490    Z=              1.1110  Tot=              1.2650
 Quadrupole moment (field-independent basis, Debye-Ang):
   XX=            -19.0612   YY=            -20.2958   ZZ=            -21.1758
   XY=              0.5688   XZ=              1.5652   YZ=             -1.8272

 Normal termination of Gaussian 16 at Wed Jun  5 16:59:34 2019.
