 Gaussian 16, Revision A.03,
 Gaussian 16:  ES64L-G16RevA.03 25-Dec-2016

 ----------------
 # 6-31g(d) wb97x
 ----------------

 -----------------------
 tmpdir/M2_conf_1_10.gjf
 -----------------------
 Symbolic Z-matrix:
 Charge =  0 Multiplicity = 1

                         Standard orientation:
 ---------------------------------------------------------------------
 Center     Atomic      Atomic             Coordinates (Angstroms)
 Number     Number       Type             X           Y           Z
 ---------------------------------------------------------------------
      1          6           0        0.000323    0.002175   -0.001386
      2          1           0        0.135914   -0.402807    1.004939
      3          1           0        0.357168    1.044015   -0.028875
      4          1           0        0.613718   -0.605849   -0.696241
      5          1           0       -1.108738   -0.048411   -0.271504
 ---------------------------------------------------------------------

 SCF Done:  E(RwB97X) =  -40.4976958469     A.U. after   11 cycles

 The electronic state is 1-A.
 Alpha  occ. eigenvalues --  -10.25680  -0.81255  -0.49503  -0.49203  -0.48797
 Alpha virt. eigenvalues --    0.21101   0.26434   0.27073   0.27462   0.63930
 Alpha virt. eigenvalues --    0.64276   0.65608   0.98801   1.00699   1.01467
 Alpha virt. eigenvalues --    1.05163   1.20225   1.76007   1.76257   2.29835

 Mulliken charges:
               1
     1  C   -0.659032
     2  H    0.168529
     3  H    0.167500
     4  H    0.165283
     5  H    0.157720
 Sum of Mulliken charges =  -0.00000

 Dipole moment (field-independent basis, Debye):
    X=              0.0376    Y=             -0.0057    Z=              0.0292  Tot=              0.0479
 Quadrupole moment (field-independent basis, Debye-Ang):
   XX=             -8.2095   YY=             -8.3046   ZZ=             -8.3831
   XY=              0.0018   XZ=             -0.0149   YZ=             -0.0127

 Normal termination of Gaussian 16 at Wed Jun  5 17:01:22 2019.
