 Gaussian 16, Revision A.03,
 Gaussian 16:  ES64L-G16RevA.03 25-Dec-2016

 ----------------
 # 6-31g(d) wb97x
 ----------------

 -----------------------
 tmpdir/M2_conf_1_91.gjf
 -----------------------
 Symbolic Z-matrix:
 Charge =  0 Multiplicity = 1

                         Standard orientation:
 ---------------------------------------------------------------------
 Center     Atomic      Atomic             Coordinates (Angstroms)
 Number     Number       Type             X           Y           Z
 ---------------------------------------------------------------------
      1          6           0        1.234591   -0.631007   -0.030228
      2          6           0        0.034445    0.074980    0.083090
      3          6           0       -1.313497   -0.585296    0.153062
      4          8           0        2.301473   -0.033041   -0.097809
      5          1           0        1.232603   -1.717012   -0.100809
      6          8           0        0.062990    1.303698    0.102426
      7          8           0       -2.321521   -0.002268   -0.216413
      8          1           0       -1.309377   -1.582170    0.559633
 ---------------------------------------------------------------------

 SCF Done:  E(RwB97X) =  -341.017928075     A.U. after   18 cycles

 The electronic state is 1-A.
 Alpha  occ. eigenvalues --  -19.26944 -19.26807 -19.26694 -10.40162 -10.39573
 Alpha  occ. eigenvalues --  -10.39504  -1.23761  -1.20921  -1.18512  -0.91756
 Alpha  occ. eigenvalues --   -0.79341  -0.69738  -0.67994  -0.60255  -0.59595
 Alpha  occ. eigenvalues --   -0.57486  -0.57020  -0.52789  -0.48514  -0.43565
 Alpha  occ. eigenvalues --   -0.41877  -0.37817
 Alpha virt. eigenvalues --   -0.06567   0.02901   0.15593   0.18949   0.22574
 Alpha virt. eigenvalues --    0.25947   0.35755   0.36371   0.43988   0.49988
 Alpha virt. eigenvalues --    0.56774   0.58537   0.64239   0.69679   0.71463

 Mulliken charges:
               1
     1  C    0.158118
     2  C    0.331420
     3  C    0.181158
     4  O   -0.323980
     5  H    0.161987
     6  O   -0.341601
     7  O   -0.327509
     8  H    0.160408
 Sum of Mulliken charges =  -0.00000

 Dipole moment (field-independent basis, Debye):
    X=             -0.0801    Y=             -3.9291    Z=              0.7065  Tot=              3.9929
 Quadrupole moment (field-independent basis, Debye-Ang):
   XX=            -43.2543   YY=            -31.9634   ZZ=            -30.3318
   XY=             -0.0814   XZ=             -1.0123   YZ=             -0.3868

 Normal termination of Gaussian 16 at Wed Jun  5 17:02:14 2019.
