 Gaussian 16, Revision A.03,
 Gaussian 16:  ES64L-G16RevA.03 25-Dec-2016

 ----------------
 # 6-31g(d) wb97x
 ----------------

 -----------------------
 tmpdir/M2_conf_1_30.gjf
 -----------------------
 Symbolic Z-matrix:
 Charge =  0 Multiplicity = 1

                         Standard orientation:
 ---------------------------------------------------------------------
 Center     Atomic      Atomic             Coordinates (Angstroms)
 Number     Number       Type             X           Y           Z
 ---------------------------------------------------------------------
      1          1           0        0.667407   -0.345872   -0.813128
      2          6           0       -0.003468   -0.000942   -0.002533
      3          1           0        0.283720   -0.537303    0.908360
      4          1           0       -1.103185   -0.179940   -0.234120
      5          1           0        0.172867    1.068769    0.154089
 ---------------------------------------------------------------------

 SCF Done:  E(RwB97X) =  -40.4977641293     A.U. after   11 cycles

 The electronic state is 1-A.
 Alpha  occ. eigenvalues --  -10.25573  -0.81334  -0.49506  -0.49283  -0.48825
 Alpha virt. eigenvalues --    0.21156   0.26614   0.27098   0.27478   0.63919
 Alpha virt. eigenvalues --    0.64046   0.65669   0.99084   1.00752   1.01536
 Alpha virt. eigenvalues --    1.05650   1.20318   1.75951   1.76257   2.29790

 Mulliken charges:
               1
     1  H    0.165386
     2  C   -0.660504
     3  H    0.167580
     4  H    0.159789
     5  H    0.167749
 Sum of Mulliken charges =   0.00000

 Dipole moment (field-independent basis, Debye):
    X=              0.0468    Y=              0.0144    Z=              0.0283  Tot=              0.0565
 Quadrupole moment (field-independent basis, Debye-Ang):
   XX=             -8.1480   YY=             -8.3447   ZZ=             -8.3856
   XY=             -0.0086   XZ=             -0.0062   YZ=             -0.0079

 Normal termination of Gaussian 16 at Wed Jun  5 17:01:22 2019.
