 Gaussian 16, Revision A.03,
 Gaussian 16:  ES64L-G16RevA.03 25-Dec-2016

 ----------------
 # 6-31g(d) wb97x
 ----------------

 ------------------------
 tmpdir/M2_conf_0_188.gjf
 ------------------------
 Symbolic Z-matrix:
 Charge =  0 Multiplicity = 1

                         Standard orientation:
 ---------------------------------------------------------------------
 Center     Atomic      Atomic             Coordinates (Angstroms)
 Number     Number       Type             X           Y           Z
 ---------------------------------------------------------------------
      1          1           0        1.157183    1.449865    0.001460
      2          6           0        0.633739    0.494688    0.001436
      3          7           0       -0.700538    0.544146   -0.001634
      4          8           0        1.260180   -0.559648   -0.000664
      5          8           0       -1.267161   -0.468730    0.000835
 ---------------------------------------------------------------------

 SCF Done:  E(RwB97X) =  -243.698305974     A.U. after   24 cycles

 The electronic state is 1-A.
 Alpha  occ. eigenvalues --  -19.31940 -19.27118 -14.53962 -10.40639  -1.36692
 Alpha  occ. eigenvalues --   -1.20941  -0.96515  -0.72260  -0.68048  -0.63804
 Alpha  occ. eigenvalues --   -0.62092  -0.55428  -0.51346  -0.42873  -0.35031
 Alpha virt. eigenvalues --   -0.06719   0.11693   0.21733   0.30454   0.38370
 Alpha virt. eigenvalues --    0.49209   0.59292   0.64949   0.71331   0.77783
 Alpha virt. eigenvalues --    0.79483   0.80095   0.84799   0.90380   0.93865

 Mulliken charges:
               1
     1  H    0.184544
     2  C    0.281381
     3  N    0.038977
     4  O   -0.314222
     5  O   -0.190680
 Sum of Mulliken charges =  -0.00000

 Dipole moment (field-independent basis, Debye):
    X=              0.6543    Y=              1.8667    Z=              0.0084  Tot=              1.9780
 Quadrupole moment (field-independent basis, Debye-Ang):
   XX=            -24.4555   YY=            -21.8905   ZZ=            -19.5766
   XY=              2.8530   XZ=             -0.0066   YZ=              0.0145

 Normal termination of Gaussian 16 at Wed Jun  5 17:01:03 2019.
