 Gaussian 16, Revision A.03,
 Gaussian 16:  ES64L-G16RevA.03 25-Dec-2016

 ----------------
 # 6-31g(d) wb97x
 ----------------

 -----------------------
 tmpdir/M2_conf_1_76.gjf
 -----------------------
 Symbolic Z-matrix:
 Charge =  0 Multiplicity = 1

                         Standard orientation:
 ---------------------------------------------------------------------
 Center     Atomic      Atomic             Coordinates (Angstroms)
 Number     Number       Type             X           Y           Z
 ---------------------------------------------------------------------
      1          6           0        0.692823   -0.009394    0.001001
      2          6           0       -0.696461   -0.008505   -0.005480
      3          1           0       -1.224432    0.942782    0.021009
      4          1           0        1.206207   -0.879480    0.010772
      5          1           0        1.248870    0.924453   -0.008243
      6          1           0       -1.208816   -0.880362    0.003335
 ---------------------------------------------------------------------

 SCF Done:  E(RwB97X) =  -78.5442511943     A.U. after   12 cycles

 The electronic state is 1-A.
 Alpha  occ. eigenvalues --  -10.26646 -10.26569  -0.87783  -0.70996  -0.58443
 Alpha  occ. eigenvalues --   -0.51025  -0.47257  -0.35697
 Alpha virt. eigenvalues --    0.10024   0.22273   0.26267   0.27017   0.35053
 Alpha virt. eigenvalues --    0.40991   0.59719   0.66123   0.66583   0.74650
 Alpha virt. eigenvalues --    0.75694   0.77886   0.99858   1.00336   1.08394

 Mulliken charges:
               1
     1  C   -0.333069
     2  C   -0.332506
     3  H    0.162204
     4  H    0.170010
     5  H    0.162154
     6  H    0.171207
 Sum of Mulliken charges =  -0.00000

 Dipole moment (field-independent basis, Debye):
    X=              0.0099    Y=             -0.0419    Z=              0.0258  Tot=              0.0502
 Quadrupole moment (field-independent basis, Debye-Ang):
   XX=            -11.8771   YY=            -11.9082   ZZ=            -15.1120
   XY=              0.0247   XZ=             -0.0274   YZ=             -0.0002

 Normal termination of Gaussian 16 at Wed Jun  5 17:01:53 2019.
