 Gaussian 16, Revision A.03,
 Gaussian 16:  ES64L-G16RevA.03 25-Dec-2016

 ----------------
 # 6-31g(d) wb97x
 ----------------

 ------------------------
 tmpdir/M2_conf_2_106.gjf
 ------------------------
 Symbolic Z-matrix:
 Charge =  0 Multiplicity = 1

                         Standard orientation:
 ---------------------------------------------------------------------
 Center     Atomic      Atomic             Coordinates (Angstroms)
 Number     Number       Type             X           Y           Z
 ---------------------------------------------------------------------
      1          7           0        1.609670   -0.560302   -0.018082
      2          6           0        0.384179    0.145455    0.006527
      3          6           0       -0.772010   -0.631290    0.014188
      4          1           0        2.471831   -0.260016    0.275804
      5          1           0        1.525073   -1.549415   -0.198591
      6          8           0        0.334681    1.373723   -0.017488
      7          1           0       -0.707437   -1.717123    0.037579
      8          8           0       -1.863452   -0.078263    0.003425
 ---------------------------------------------------------------------

 SCF Done:  E(RwB97X) =  -283.104028916     A.U. after   18 cycles

 The electronic state is 1-A.
 Alpha  occ. eigenvalues --  -19.24799 -19.20767 -14.45022 -10.39439 -10.37919
 Alpha  occ. eigenvalues --   -1.20722  -1.16116  -1.05075  -0.86163  -0.69860
 Alpha  occ. eigenvalues --   -0.66889  -0.65978  -0.57076  -0.55938  -0.53784
 Alpha  occ. eigenvalues --   -0.47785  -0.39943  -0.38571  -0.37403
 Alpha virt. eigenvalues --   -0.00916   0.15815   0.17558   0.21321   0.25712
 Alpha virt. eigenvalues --    0.31014   0.36767   0.45039   0.52661   0.60162
 Alpha virt. eigenvalues --    0.64032   0.70525   0.71179   0.73597   0.77935

 Mulliken charges:
               1
     1  N   -0.801862
     2  C    0.548337
     3  C    0.162097
     4  H    0.372193
     5  H    0.345732
     6  O   -0.440378
     7  H    0.148584
     8  O   -0.334702
 Sum of Mulliken charges =  -0.00000

 Dipole moment (field-independent basis, Debye):
    X=              3.1277    Y=             -4.2879    Z=              0.3232  Tot=              5.3173
 Quadrupole moment (field-independent basis, Debye-Ang):
   XX=            -27.2922   YY=            -28.0685   ZZ=            -27.5384
   XY=             -1.5940   XZ=              1.0774   YZ=              0.4861

 Normal termination of Gaussian 16 at Wed Jun  5 17:04:18 2019.
