 Gaussian 16, Revision A.03,
 Gaussian 16:  ES64L-G16RevA.03 25-Dec-2016

 ----------------
 # 6-31g(d) wb97x
 ----------------

 ------------------------
 tmpdir/M2_conf_2_175.gjf
 ------------------------
 Symbolic Z-matrix:
 Charge =  0 Multiplicity = 1

                         Standard orientation:
 ---------------------------------------------------------------------
 Center     Atomic      Atomic             Coordinates (Angstroms)
 Number     Number       Type             X           Y           Z
 ---------------------------------------------------------------------
      1          6           0       -0.692188    0.493435   -0.000795
      2          6           0        0.697509    0.490503   -0.000486
      3          6           0       -1.367166   -0.727732    0.000721
      4          1           0       -1.241435    1.429258   -0.000230
      5          1           0        1.247455    1.427063    0.004579
      6          6           0        1.360841   -0.732260   -0.000165
 ---------------------------------------------------------------------

 SCF Done:  E(RwB97X) =  -153.245451475     A.U. after   16 cycles

 The electronic state is 1-A.
 Alpha  occ. eigenvalues --  -10.36185 -10.36135 -10.31149 -10.31087  -0.98275
 Alpha  occ. eigenvalues --   -0.84335  -0.72472  -0.60289  -0.59622  -0.46861
 Alpha  occ. eigenvalues --   -0.42606  -0.39949  -0.33131
 Alpha virt. eigenvalues --   -0.03617   0.00971   0.02582   0.16846   0.21045
 Alpha virt. eigenvalues --    0.25141   0.35122   0.45750   0.48170   0.58403
 Alpha virt. eigenvalues --    0.60930   0.64025   0.66174   0.66480   0.69233

 Mulliken charges:
               1
     1  C   -0.268755
     2  C   -0.266161
     3  C    0.032096
     4  H    0.235696
     5  H    0.235905
     6  C    0.031219
 Sum of Mulliken charges =  -0.00000

 Dipole moment (field-independent basis, Debye):
    X=              0.0164    Y=              3.5170    Z=              0.0046  Tot=              3.5171
 Quadrupole moment (field-independent basis, Debye-Ang):
   XX=            -23.8453   YY=            -23.5443   ZZ=            -25.4402
   XY=             -0.0018   XZ=              0.0149   YZ=              0.0108

 Normal termination of Gaussian 16 at Wed Jun  5 17:04:47 2019.
