 Gaussian 16, Revision A.03,
 Gaussian 16:  ES64L-G16RevA.03 25-Dec-2016

 ----------------
 # 6-31g(d) wb97x
 ----------------

 ------------------------
 tmpdir/M2_conf_2_138.gjf
 ------------------------
 Symbolic Z-matrix:
 Charge =  0 Multiplicity = 1

                         Standard orientation:
 ---------------------------------------------------------------------
 Center     Atomic      Atomic             Coordinates (Angstroms)
 Number     Number       Type             X           Y           Z
 ---------------------------------------------------------------------
      1          6           0       -0.810824    0.483696    0.001593
      2          6           0        0.576008    0.652741   -0.001407
      3          6           0        1.426257   -0.473932    0.000836
      4          8           0       -1.283533   -0.651300   -0.001649
      5          1           0       -1.456104    1.346595    0.006874
      6          1           0        1.059834    1.642958   -0.004414
      7          1           0        1.003190   -1.386198    0.005538
      8          1           0        2.512699   -0.367985   -0.000936
 ---------------------------------------------------------------------

 SCF Done:  E(RwB97X) =  -191.834307704     A.U. after   15 cycles

 The electronic state is 1-A.
 Alpha  occ. eigenvalues --  -19.20538 -10.35192 -10.30162 -10.29113  -1.15853
 Alpha  occ. eigenvalues --   -0.91754  -0.79518  -0.66790  -0.63154  -0.55271
 Alpha  occ. eigenvalues --   -0.52608  -0.50434  -0.49039  -0.36725  -0.35815
 Alpha virt. eigenvalues --    0.00870   0.17089   0.20288   0.24141   0.26561
 Alpha virt. eigenvalues --    0.30272   0.34448   0.41027   0.46510   0.62136
 Alpha virt. eigenvalues --    0.63000   0.68149   0.68836   0.70077   0.74389

 Mulliken charges:
               1
     1  C    0.215647
     2  C   -0.205484
     3  C   -0.297172
     4  O   -0.417158
     5  H    0.140235
     6  H    0.167809
     7  H    0.212841
     8  H    0.183281
 Sum of Mulliken charges =  -0.00000

 Dipole moment (field-independent basis, Debye):
    X=              2.0830    Y=              1.7395    Z=              0.0082  Tot=              2.7138
 Quadrupole moment (field-independent basis, Debye-Ang):
   XX=            -22.9519   YY=            -21.9473   ZZ=            -24.3645
   XY=             -3.2463   XZ=             -0.0093   YZ=             -0.0104

 Normal termination of Gaussian 16 at Wed Jun  5 17:04:41 2019.
