 Gaussian 16, Revision A.03,
 Gaussian 16:  ES64L-G16RevA.03 25-Dec-2016

 ----------------
 # 6-31g(d) wb97x
 ----------------

 ------------------------
 tmpdir/M2_conf_2_132.gjf
 ------------------------
 Symbolic Z-matrix:
 Charge =  0 Multiplicity = 1

                         Standard orientation:
 ---------------------------------------------------------------------
 Center     Atomic      Atomic             Coordinates (Angstroms)
 Number     Number       Type             X           Y           Z
 ---------------------------------------------------------------------
      1          6           0       -0.227977    0.437339    0.000214
      2          6           0        1.165005   -0.140297   -0.000143
      3          1           0        1.353160   -0.765852   -0.882685
      4          1           0       -0.366664    1.433327   -0.000709
      5          8           0       -1.234622   -0.294230   -0.000017
      6          1           0        1.910874    0.659187   -0.006296
      7          1           0        1.357435   -0.755070    0.889402
 ---------------------------------------------------------------------

 SCF Done:  E(RwB97X) =  -153.774293716     A.U. after   14 cycles

 The electronic state is 1-A.
 Alpha  occ. eigenvalues --  -19.21277 -10.35862 -10.28022  -1.15119  -0.88040
 Alpha  occ. eigenvalues --   -0.72381  -0.58902  -0.55035  -0.53978  -0.49838
 Alpha  occ. eigenvalues --   -0.45445  -0.35645
 Alpha virt. eigenvalues --    0.06192   0.20872   0.22504   0.27206   0.28283
 Alpha virt. eigenvalues --    0.34900   0.36657   0.63192   0.63519   0.67907
 Alpha virt. eigenvalues --    0.72166   0.75802   0.83094   0.87483   0.96233

 Mulliken charges:
               1
     1  C    0.226076
     2  C   -0.562036
     3  H    0.205867
     4  H    0.155801
     5  O   -0.396581
     6  H    0.165161
     7  H    0.205711
 Sum of Mulliken charges =   0.00000

 Dipole moment (field-independent basis, Debye):
    X=              2.5043    Y=              1.2392    Z=              0.0013  Tot=              2.7941
 Quadrupole moment (field-independent basis, Debye-Ang):
   XX=            -20.6712   YY=            -17.3313   ZZ=            -17.4606
   XY=             -1.4076   XZ=              0.0027   YZ=              0.0010

 Normal termination of Gaussian 16 at Wed Jun  5 17:04:35 2019.
