 Gaussian 16, Revision A.03,
 Gaussian 16:  ES64L-G16RevA.03 25-Dec-2016

 ----------------
 # 6-31g(d) wb97x
 ----------------

 ------------------------
 tmpdir/M2_conf_0_112.gjf
 ------------------------
 Symbolic Z-matrix:
 Charge =  0 Multiplicity = 1

                         Standard orientation:
 ---------------------------------------------------------------------
 Center     Atomic      Atomic             Coordinates (Angstroms)
 Number     Number       Type             X           Y           Z
 ---------------------------------------------------------------------
      1          1           0       -1.252569    1.439035    0.005828
      2          6           0       -0.710325    0.507930    0.001270
      3          6           0        0.686773    0.510987   -0.001515
      4          8           0       -1.309864   -0.565484   -0.001164
      5          8           0        1.323496   -0.558170    0.001253
      6          1           0        1.284822    1.436698   -0.005069
 ---------------------------------------------------------------------

 SCF Done:  E(RwB97X) =  -227.737019421     A.U. after   14 cycles

 The electronic state is 1-A.
 Alpha  occ. eigenvalues --  -19.25568 -19.25335 -10.38281 -10.38234  -1.21233
 Alpha  occ. eigenvalues --   -1.17007  -0.87694  -0.69441  -0.66998  -0.58014
 Alpha  occ. eigenvalues --   -0.56026  -0.54965  -0.47574  -0.40922  -0.38237
 Alpha virt. eigenvalues --   -0.03837   0.13943   0.20567   0.23455   0.26997
 Alpha virt. eigenvalues --    0.41735   0.48247   0.58963   0.61003   0.67425
 Alpha virt. eigenvalues --    0.69023   0.77038   0.77827   0.86143   0.92839

 Mulliken charges:
               1
     1  H    0.160306
     2  C    0.181236
     3  C    0.168009
     4  O   -0.331950
     5  O   -0.337558
     6  H    0.159955
 Sum of Mulliken charges =  -0.00000

 Dipole moment (field-independent basis, Debye):
    X=             -0.0970    Y=              3.7010    Z=             -0.0001  Tot=              3.7023
 Quadrupole moment (field-independent basis, Debye-Ang):
   XX=            -25.3954   YY=            -21.1792   ZZ=            -20.8614
   XY=             -0.0218   XZ=             -0.0109   YZ=              0.0005

 Normal termination of Gaussian 16 at Wed Jun  5 17:00:07 2019.
