 Gaussian 16, Revision A.03,
 Gaussian 16:  ES64L-G16RevA.03 25-Dec-2016

 ----------------
 # 6-31g(d) wb97x
 ----------------

 ----------------------
 tmpdir/M2_conf_1_0.gjf
 ----------------------
 Symbolic Z-matrix:
 Charge =  0 Multiplicity = 1

                         Standard orientation:
 ---------------------------------------------------------------------
 Center     Atomic      Atomic             Coordinates (Angstroms)
 Number     Number       Type             X           Y           Z
 ---------------------------------------------------------------------
      1          6           0        0.000979    0.001869   -0.001514
      2          1           0        0.618407   -0.529836   -0.750567
      3          1           0        0.154227   -0.484805    0.969043
      4          1           0        0.333135    1.050588    0.056718
      5          1           0       -1.111641   -0.047161   -0.266109
 ---------------------------------------------------------------------

 SCF Done:  E(RwB97X) =  -40.4976216001     A.U. after   11 cycles

 The electronic state is 1-A.
 Alpha  occ. eigenvalues --  -10.25720  -0.81228  -0.49474  -0.49244  -0.48738
 Alpha virt. eigenvalues --    0.21076   0.26368   0.27107   0.27407   0.64008
 Alpha virt. eigenvalues --    0.64251   0.65635   0.98655   1.00780   1.01375
 Alpha virt. eigenvalues --    1.04986   1.20191   1.76020   1.76278   2.29704

 Mulliken charges:
               1
     1  C   -0.658564
     2  H    0.165978
     3  H    0.167857
     4  H    0.167558
     5  H    0.157172
 Sum of Mulliken charges =   0.00000

 Dipole moment (field-independent basis, Debye):
    X=              0.0382    Y=             -0.0050    Z=              0.0256  Tot=              0.0463
 Quadrupole moment (field-independent basis, Debye-Ang):
   XX=             -8.2166   YY=             -8.3064   ZZ=             -8.3816
   XY=             -0.0005   XZ=             -0.0184   YZ=             -0.0078

 Normal termination of Gaussian 16 at Wed Jun  5 17:01:22 2019.
