 Gaussian 16, Revision A.03,
 Gaussian 16:  ES64L-G16RevA.03 25-Dec-2016

 ----------------
 # 6-31g(d) wb97x
 ----------------

 ------------------------
 tmpdir/M2_conf_1_102.gjf
 ------------------------
 Symbolic Z-matrix:
 Charge =  0 Multiplicity = 1

                         Standard orientation:
 ---------------------------------------------------------------------
 Center     Atomic      Atomic             Coordinates (Angstroms)
 Number     Number       Type             X           Y           Z
 ---------------------------------------------------------------------
      1          1           0       -1.842090    0.509953   -0.167193
      2          7           0       -1.107679   -0.166766   -0.023069
      3          6           0        0.182992    0.408699    0.036270
      4          1           0       -1.393030   -1.050441    0.216851
      5          8           0        1.206505   -0.269720   -0.025749
      6          1           0        0.238879    1.413418    0.100194
 ---------------------------------------------------------------------

 SCF Done:  E(RwB97X) =  -169.824525785     A.U. after   15 cycles

 The electronic state is 1-A.
 Alpha  occ. eigenvalues --  -19.18674 -14.43053 -10.37438  -1.15108  -1.02623
 Alpha  occ. eigenvalues --   -0.76231  -0.64770  -0.62092  -0.52082  -0.49855
 Alpha  occ. eigenvalues --   -0.36827  -0.35865
 Alpha virt. eigenvalues --    0.10866   0.18361   0.22490   0.28744   0.36102
 Alpha virt. eigenvalues --    0.41621   0.64447   0.66904   0.74629   0.78317
 Alpha virt. eigenvalues --    0.81030   0.83548   0.97330   0.99914   1.02556

 Mulliken charges:
               1
     1  H    0.336686
     2  N   -0.761542
     3  C    0.344941
     4  H    0.366014
     5  O   -0.440041
     6  H    0.153940
 Sum of Mulliken charges =  -0.00000

 Dipole moment (field-independent basis, Debye):
    X=             -3.5898    Y=              1.2950    Z=              0.3788  Tot=              3.8350
 Quadrupole moment (field-independent basis, Debye-Ang):
   XX=            -17.3251   YY=            -14.7562   ZZ=            -18.2304
   XY=              1.4048   XZ=             -0.0718   YZ=             -0.7164

 Normal termination of Gaussian 16 at Wed Jun  5 17:02:12 2019.
