 Gaussian 16, Revision A.03,
 Gaussian 16:  ES64L-G16RevA.03 25-Dec-2016

 ----------------
 # 6-31g(d) wb97x
 ----------------

 -----------------------
 tmpdir/M2_conf_0_98.gjf
 -----------------------
 Symbolic Z-matrix:
 Charge =  0 Multiplicity = 1

                         Standard orientation:
 ---------------------------------------------------------------------
 Center     Atomic      Atomic             Coordinates (Angstroms)
 Number     Number       Type             X           Y           Z
 ---------------------------------------------------------------------
      1          7           0       -0.002383   -0.016897   -0.018184
      2          1           0       -0.079492    0.989820    0.037490
      3          1           0       -0.825738   -0.504610    0.045837
      4          1           0        0.921908   -0.366928    0.043959
 ---------------------------------------------------------------------

 SCF Done:  E(RwB97X) =  -56.5167760335     A.U. after   13 cycles

 The electronic state is 1-A.
 Alpha  occ. eigenvalues --  -14.35908  -0.95445  -0.59931  -0.56377  -0.32434
 Alpha virt. eigenvalues --    0.19817   0.28499   0.29878   0.79142   0.83765
 Alpha virt. eigenvalues --    0.86674   0.93332   1.05872   1.10347   1.21633
 Alpha virt. eigenvalues --    1.80065   1.81867   2.29044   2.42950   2.53400

 Mulliken charges:
               1
     1  N   -0.987942
     2  H    0.318135
     3  H    0.336150
     4  H    0.333656
 Sum of Mulliken charges =  -0.00000

 Dipole moment (field-independent basis, Debye):
    X=              0.0213    Y=              0.1334    Z=              0.3611  Tot=              0.3856
 Quadrupole moment (field-independent basis, Debye-Ang):
   XX=             -5.2245   YY=             -5.7168   ZZ=             -9.2341
   XY=              0.0321   XZ=             -0.0040   YZ=             -0.0144

 Normal termination of Gaussian 16 at Wed Jun  5 17:00:05 2019.
