 Gaussian 16, Revision A.03,
 Gaussian 16:  ES64L-G16RevA.03 25-Dec-2016

 ----------------
 # 6-31g(d) wb97x
 ----------------

 ------------------------
 tmpdir/M2_conf_1_175.gjf
 ------------------------
 Symbolic Z-matrix:
 Charge =  0 Multiplicity = 1

                         Standard orientation:
 ---------------------------------------------------------------------
 Center     Atomic      Atomic             Coordinates (Angstroms)
 Number     Number       Type             X           Y           Z
 ---------------------------------------------------------------------
      1          6           0       -0.694845    0.493430   -0.000795
      2          6           0        0.700152    0.490508   -0.000486
      3          6           0       -1.369805   -0.727748    0.000721
      4          1           0       -1.244107    1.429244   -0.000230
      5          1           0        1.250083    1.427076    0.004578
      6          6           0        1.363502   -0.732244   -0.000165
 ---------------------------------------------------------------------

 SCF Done:  E(RwB97X) =  -153.246218038     A.U. after   16 cycles

 The electronic state is 1-A.
 Alpha  occ. eigenvalues --  -10.36197 -10.36146 -10.31198 -10.31137  -0.98167
 Alpha  occ. eigenvalues --   -0.84371  -0.72395  -0.60218  -0.59670  -0.46787
 Alpha  occ. eigenvalues --   -0.42590  -0.39977  -0.33179
 Alpha virt. eigenvalues --   -0.03590   0.00912   0.02621   0.16769   0.21072
 Alpha virt. eigenvalues --    0.25096   0.35120   0.45555   0.48122   0.58403
 Alpha virt. eigenvalues --    0.60945   0.63968   0.66062   0.66547   0.69219

 Mulliken charges:
               1
     1  C   -0.269181
     2  C   -0.266618
     3  C    0.032435
     4  H    0.235799
     5  H    0.236010
     6  C    0.031555
 Sum of Mulliken charges =  -0.00000

 Dipole moment (field-independent basis, Debye):
    X=              0.0162    Y=              3.5156    Z=              0.0047  Tot=              3.5157
 Quadrupole moment (field-independent basis, Debye-Ang):
   XX=            -23.8484   YY=            -23.5426   ZZ=            -25.4515
   XY=             -0.0016   XZ=              0.0149   YZ=              0.0108

 Normal termination of Gaussian 16 at Wed Jun  5 17:02:42 2019.
