 Gaussian 16, Revision A.03,
 Gaussian 16:  ES64L-G16RevA.03 25-Dec-2016

 ----------------
 # 6-31g(d) wb97x
 ----------------

 ------------------------
 tmpdir/M2_conf_0_103.gjf
 ------------------------
 Symbolic Z-matrix:
 Charge =  0 Multiplicity = 1

                         Standard orientation:
 ---------------------------------------------------------------------
 Center     Atomic      Atomic             Coordinates (Angstroms)
 Number     Number       Type             X           Y           Z
 ---------------------------------------------------------------------
      1          6           0       -0.700603   -0.012145   -0.004661
      2          6           0        0.707756   -0.002698    0.000380
      3          1           0       -1.299529    0.924238    0.014064
      4          1           0       -1.205948   -0.884587    0.007012
      5          1           0        1.250024    0.928398   -0.001703
      6          1           0        1.212537   -0.878990    0.006312
 ---------------------------------------------------------------------

 SCF Done:  E(RwB97X) =  -78.5409508745     A.U. after   13 cycles

 The electronic state is 1-A.
 Alpha  occ. eigenvalues --  -10.27130 -10.26857  -0.87381  -0.71224  -0.58022
 Alpha  occ. eigenvalues --   -0.51010  -0.47323  -0.35404
 Alpha virt. eigenvalues --    0.09586   0.22296   0.26038   0.26762   0.34913
 Alpha virt. eigenvalues --    0.40550   0.60255   0.65555   0.66770   0.74415
 Alpha virt. eigenvalues --    0.75841   0.76547   0.98812   1.00877   1.08297

 Mulliken charges:
               1
     1  C   -0.334944
     2  C   -0.334191
     3  H    0.160054
     4  H    0.171288
     5  H    0.165882
     6  H    0.171911
 Sum of Mulliken charges =   0.00000

 Dipole moment (field-independent basis, Debye):
    X=             -0.0009    Y=             -0.0535    Z=              0.0243  Tot=              0.0588
 Quadrupole moment (field-independent basis, Debye-Ang):
   XX=            -11.7541   YY=            -11.9777   ZZ=            -15.1767
   XY=             -0.0076   XZ=             -0.0216   YZ=             -0.0011

 Normal termination of Gaussian 16 at Wed Jun  5 17:00:08 2019.
