 Gaussian 16, Revision A.03,
 Gaussian 16:  ES64L-G16RevA.03 25-Dec-2016

 ----------------
 # 6-31g(d) wb97x
 ----------------

 -----------------------
 tmpdir/M2_conf_1_36.gjf
 -----------------------
 Symbolic Z-matrix:
 Charge =  0 Multiplicity = 1

                         Standard orientation:
 ---------------------------------------------------------------------
 Center     Atomic      Atomic             Coordinates (Angstroms)
 Number     Number       Type             X           Y           Z
 ---------------------------------------------------------------------
      1          7           0       -0.742816    0.002290   -0.113367
      2          6           0        0.705635    0.000535    0.011215
      3          1           0        1.090244   -0.900680   -0.480913
      4          1           0       -1.127728    0.846212    0.305617
      5          1           0       -1.151141   -0.832376    0.292089
      6          1           0        1.019856   -0.028458    1.074061
      7          1           0        1.134677    0.896062   -0.464577
 ---------------------------------------------------------------------

 SCF Done:  E(RwB97X) =  -95.8215018506     A.U. after   13 cycles

 The electronic state is 1-A.
 Alpha  occ. eigenvalues --  -14.37940 -10.28043  -0.99494  -0.77360  -0.60213
 Alpha  occ. eigenvalues --   -0.53584  -0.50497  -0.47045  -0.32176
 Alpha virt. eigenvalues --    0.18443   0.24270   0.25513   0.27540   0.29055
 Alpha virt. eigenvalues --    0.34213   0.66049   0.67798   0.69760   0.84877
 Alpha virt. eigenvalues --    0.87249   0.89581   0.97713   1.02594   1.04825

 Mulliken charges:
               1
     1  N   -0.741932
     2  C   -0.327955
     3  H    0.162422
     4  H    0.307342
     5  H    0.309876
     6  H    0.127514
     7  H    0.162732
 Sum of Mulliken charges =   0.00000

 Dipole moment (field-independent basis, Debye):
    X=              0.1606    Y=             -0.0112    Z=              1.3588  Tot=              1.3683
 Quadrupole moment (field-independent basis, Debye-Ang):
   XX=            -13.6402   YY=            -12.1260   ZZ=            -15.2589
   XY=              0.0823   XZ=             -2.0520   YZ=              0.0194

 Normal termination of Gaussian 16 at Wed Jun  5 17:01:29 2019.
