 Gaussian 16, Revision A.03,
 Gaussian 16:  ES64L-G16RevA.03 25-Dec-2016

 ----------------
 # 6-31g(d) wb97x
 ----------------

 -----------------------
 tmpdir/M2_conf_2_27.gjf
 -----------------------
 Symbolic Z-matrix:
 Charge =  0 Multiplicity = 1

                         Standard orientation:
 ---------------------------------------------------------------------
 Center     Atomic      Atomic             Coordinates (Angstroms)
 Number     Number       Type             X           Y           Z
 ---------------------------------------------------------------------
      1          7           0       -0.739919   -0.000019   -0.114459
      2          6           0        0.702277    0.000025    0.013942
      3          1           0        1.031602   -0.000236    1.071131
      4          1           0       -1.150460   -0.834070    0.299943
      5          1           0       -1.150904    0.833820    0.300181
      6          1           0        1.117542    0.887017   -0.476658
      7          1           0        1.117992   -0.886553   -0.477034
 ---------------------------------------------------------------------

 SCF Done:  E(RwB97X) =  -95.8221714262     A.U. after   14 cycles

 The electronic state is 1-A.
 Alpha  occ. eigenvalues --  -14.38012 -10.27920  -0.99569  -0.77504  -0.59974
 Alpha  occ. eigenvalues --   -0.53844  -0.50740  -0.46807  -0.32240
 Alpha virt. eigenvalues --    0.18538   0.24236   0.25431   0.27731   0.29073
 Alpha virt. eigenvalues --    0.34545   0.66190   0.67348   0.69916   0.85053
 Alpha virt. eigenvalues --    0.87165   0.90064   0.97781   1.03242   1.04444

 Mulliken charges:
               1
     1  N   -0.741120
     2  C   -0.327456
     3  H    0.127159
     4  H    0.307972
     5  H    0.307974
     6  H    0.162733
     7  H    0.162739
 Sum of Mulliken charges =   0.00000

 Dipole moment (field-independent basis, Debye):
    X=              0.1355    Y=             -0.0002    Z=              1.3543  Tot=              1.3611
 Quadrupole moment (field-independent basis, Debye-Ang):
   XX=            -13.5045   YY=            -12.2144   ZZ=            -15.2412
   XY=             -0.0006   XZ=             -2.0725   YZ=              0.0001

 Normal termination of Gaussian 16 at Wed Jun  5 17:03:36 2019.
