 Gaussian 16, Revision A.03,
 Gaussian 16:  ES64L-G16RevA.03 25-Dec-2016

 ----------------
 # 6-31g(d) wb97x
 ----------------

 -----------------------
 tmpdir/M2_conf_1_55.gjf
 -----------------------
 Symbolic Z-matrix:
 Charge =  0 Multiplicity = 1

                         Standard orientation:
 ---------------------------------------------------------------------
 Center     Atomic      Atomic             Coordinates (Angstroms)
 Number     Number       Type             X           Y           Z
 ---------------------------------------------------------------------
      1          6           0        0.000373    0.006305   -0.008416
      2          1           0       -0.454930   -0.784429   -0.618649
      3          1           0        1.108964    0.138863   -0.243178
      4          1           0       -0.080168   -0.324138    1.036111
      5          1           0       -0.576102    0.931874   -0.123790
 ---------------------------------------------------------------------

 SCF Done:  E(RwB97X) =  -40.4974421822     A.U. after   11 cycles

 The electronic state is 1-A.
 Alpha  occ. eigenvalues --  -10.25546  -0.81364  -0.49704  -0.49361  -0.48573
 Alpha virt. eigenvalues --    0.21154   0.26496   0.27279   0.27460   0.63819
 Alpha virt. eigenvalues --    0.64074   0.65699   0.98796   1.01069   1.01593
 Alpha virt. eigenvalues --    1.05837   1.20434   1.75998   1.76176   2.29614

 Mulliken charges:
               1
     1  C   -0.661118
     2  H    0.167613
     3  H    0.158987
     4  H    0.165228
     5  H    0.169290
 Sum of Mulliken charges =  -0.00000

 Dipole moment (field-independent basis, Debye):
    X=             -0.0438    Y=             -0.0285    Z=              0.0429  Tot=              0.0676
 Quadrupole moment (field-independent basis, Debye-Ang):
   XX=             -8.1393   YY=             -8.2934   ZZ=             -8.4424
   XY=             -0.0181   XZ=              0.0220   YZ=              0.0067

 Normal termination of Gaussian 16 at Wed Jun  5 17:01:22 2019.
