 Gaussian 16, Revision A.03,
 Gaussian 16:  ES64L-G16RevA.03 25-Dec-2016

 ----------------
 # 6-31g(d) wb97x
 ----------------

 ------------------------
 tmpdir/M2_conf_0_167.gjf
 ------------------------
 Symbolic Z-matrix:
 Charge =  0 Multiplicity = 1

                         Standard orientation:
 ---------------------------------------------------------------------
 Center     Atomic      Atomic             Coordinates (Angstroms)
 Number     Number       Type             X           Y           Z
 ---------------------------------------------------------------------
      1          7           0        0.768857   -0.768367    0.079632
      2          6           0        0.075412    0.377337    0.031012
      3          6           0       -1.403576    0.302233    0.137238
      4          8           0        1.922787   -0.692298   -0.005971
      5          8           0        0.640560    1.458988   -0.106369
      6          8           0       -1.995242   -0.740034   -0.139818
      7          1           0       -1.957853    1.087896    0.450347
 ---------------------------------------------------------------------

 SCF Done:  E(RwB97X) =  -356.907486116     A.U. after   32 cycles

 The electronic state is 1-A.
 Alpha  occ. eigenvalues --  -19.37166 -19.26561 -19.23487 -14.58669 -10.42785
 Alpha  occ. eigenvalues --  -10.40041  -1.40456  -1.21549  -1.19277  -0.98342
 Alpha  occ. eigenvalues --   -0.83268  -0.73431  -0.69506  -0.66970  -0.63220
 Alpha  occ. eigenvalues --   -0.59786  -0.56393  -0.55002  -0.49423  -0.43673
 Alpha  occ. eigenvalues --   -0.39141  -0.33587
 Alpha virt. eigenvalues --   -0.12483  -0.00566   0.14146   0.23101   0.29071
 Alpha virt. eigenvalues --    0.33928   0.38859   0.46154   0.47929   0.59039
 Alpha virt. eigenvalues --    0.62838   0.67169   0.69744   0.70639   0.74946

 Mulliken charges:
               1
     1  N    0.018139
     2  C    0.470301
     3  C    0.200199
     4  O   -0.088890
     5  O   -0.449583
     6  O   -0.356110
     7  H    0.205945
 Sum of Mulliken charges =  -0.00000

 Dipole moment (field-independent basis, Debye):
    X=             -0.5308    Y=             -0.3065    Z=              0.8724  Tot=              1.0662
 Quadrupole moment (field-independent basis, Debye-Ang):
   XX=            -34.2111   YY=            -34.3879   ZZ=            -31.0000
   XY=             -6.1075   XZ=             -0.9946   YZ=              0.1426

 Normal termination of Gaussian 16 at Wed Jun  5 17:01:06 2019.
