 Gaussian 16, Revision A.03,
 Gaussian 16:  ES64L-G16RevA.03 25-Dec-2016

 ----------------
 # 6-31g(d) wb97x
 ----------------

 ----------------------
 tmpdir/M2_conf_2_2.gjf
 ----------------------
 Symbolic Z-matrix:
 Charge =  0 Multiplicity = 1

                         Standard orientation:
 ---------------------------------------------------------------------
 Center     Atomic      Atomic             Coordinates (Angstroms)
 Number     Number       Type             X           Y           Z
 ---------------------------------------------------------------------
      1          6           0       -0.769851    0.000962   -0.005171
      2          6           0        0.769519    0.001599    0.004456
      3          1           0       -1.122953   -0.083028   -1.050978
      4          1           0       -1.138788   -0.871719    0.546756
      5          1           0       -1.169397    0.949302    0.496180
      6          1           0        1.138439   -0.894346   -0.509082
      7          1           0        1.121856   -0.041201    1.054595
      8          1           0        1.172836    0.925626   -0.533181
 ---------------------------------------------------------------------

 SCF Done:  E(RwB97X) =  -79.7972640649     A.U. after   12 cycles

 The electronic state is 1-A.
 Alpha  occ. eigenvalues --  -10.26218 -10.26200  -0.87523  -0.72565  -0.54249
 Alpha  occ. eigenvalues --   -0.53855  -0.45722  -0.44148  -0.43859
 Alpha virt. eigenvalues --    0.19250   0.25144   0.25317   0.25932   0.28094
 Alpha virt. eigenvalues --    0.28352   0.33023   0.61867   0.65864   0.65902
 Alpha virt. eigenvalues --    0.74006   0.74820   0.77883   0.97626   0.99135

 Mulliken charges:
               1
     1  C   -0.459254
     2  C   -0.459511
     3  H    0.155345
     4  H    0.157315
     5  H    0.146728
     6  H    0.157113
     7  H    0.154839
     8  H    0.147425
 Sum of Mulliken charges =  -0.00000

 Dipole moment (field-independent basis, Debye):
    X=              0.0007    Y=             -0.0853    Z=              0.0008  Tot=              0.0853
 Quadrupole moment (field-independent basis, Debye-Ang):
   XX=            -15.6867   YY=            -14.6931   ZZ=            -14.6613
   XY=              0.0051   XZ=             -0.0508   YZ=             -0.0018

 Normal termination of Gaussian 16 at Wed Jun  5 17:03:36 2019.
