 Gaussian 16, Revision A.03,
 Gaussian 16:  ES64L-G16RevA.03 25-Dec-2016

 ----------------
 # 6-31g(d) wb97x
 ----------------

 -----------------------
 tmpdir/M2_conf_0_80.gjf
 -----------------------
 Symbolic Z-matrix:
 Charge =  0 Multiplicity = 1

                         Standard orientation:
 ---------------------------------------------------------------------
 Center     Atomic      Atomic             Coordinates (Angstroms)
 Number     Number       Type             X           Y           Z
 ---------------------------------------------------------------------
      1          6           0        0.695596    0.482732    0.003842
      2          6           0       -0.699175    0.481748   -0.005137
      3          6           0        1.410226   -0.715410   -0.003976
      4          1           0        1.233952    1.428583    0.015943
      5          1           0       -1.261401    1.411221   -0.011623
      6          6           0       -1.402073   -0.722370    0.004550
 ---------------------------------------------------------------------

 SCF Done:  E(RwB97X) =  -153.247647893     A.U. after   18 cycles

 The electronic state is 1-A.
 Alpha  occ. eigenvalues --  -10.36263 -10.36232 -10.31247 -10.31183  -0.97911
 Alpha  occ. eigenvalues --   -0.84629  -0.72241  -0.60420  -0.59493  -0.46698
 Alpha  occ. eigenvalues --   -0.42469  -0.40088  -0.33283
 Alpha virt. eigenvalues --   -0.03277   0.00403   0.02586   0.16818   0.20915
 Alpha virt. eigenvalues --    0.25058   0.35183   0.45996   0.47943   0.58277
 Alpha virt. eigenvalues --    0.60889   0.62972   0.66133   0.66642   0.69153

 Mulliken charges:
               1
     1  C   -0.270929
     2  C   -0.269942
     3  C    0.035162
     4  H    0.235235
     5  H    0.235277
     6  C    0.035197
 Sum of Mulliken charges =  -0.00000

 Dipole moment (field-independent basis, Debye):
    X=             -0.0309    Y=              3.4391    Z=              0.0044  Tot=              3.4392
 Quadrupole moment (field-independent basis, Debye-Ang):
   XX=            -24.3373   YY=            -23.3646   ZZ=            -25.4769
   XY=             -0.0142   XZ=              0.0911   YZ=              0.0118

 Normal termination of Gaussian 16 at Wed Jun  5 16:59:44 2019.
