 Gaussian 16, Revision A.03,
 Gaussian 16:  ES64L-G16RevA.03 25-Dec-2016

 ----------------
 # 6-31g(d) wb97x
 ----------------

 -----------------------
 tmpdir/M2_conf_0_52.gjf
 -----------------------
 Symbolic Z-matrix:
 Charge =  0 Multiplicity = 1

                         Standard orientation:
 ---------------------------------------------------------------------
 Center     Atomic      Atomic             Coordinates (Angstroms)
 Number     Number       Type             X           Y           Z
 ---------------------------------------------------------------------
      1          6           0        1.277882   -0.198368    0.023172
      2          7           0        0.001656    0.479200   -0.158373
      3          6           0       -1.272305   -0.206542    0.020358
      4          1           0        1.405474   -0.547591    1.065863
      5          1           0        2.086806    0.508243   -0.197396
      6          1           0        1.350138   -1.063176   -0.655363
      7          1           0       -0.070832    1.309627    0.423000
      8          1           0       -1.339074   -1.072249   -0.656772
      9          1           0       -2.086101    0.493951   -0.196835
     10          1           0       -1.391468   -0.553739    1.064939
 ---------------------------------------------------------------------

 SCF Done:  E(RwB97X) =  -135.116562640     A.U. after   13 cycles

 The electronic state is 1-A.
 Alpha  occ. eigenvalues --  -14.38322 -10.28272 -10.28108  -1.01440  -0.82718
 Alpha  occ. eigenvalues --   -0.73653  -0.59163  -0.54369  -0.53623  -0.49274
 Alpha  occ. eigenvalues --   -0.47140  -0.45630  -0.30163
 Alpha virt. eigenvalues --    0.18126   0.23869   0.24805   0.25126   0.27119
 Alpha virt. eigenvalues --    0.28306   0.28727   0.31069   0.37003   0.59991
 Alpha virt. eigenvalues --    0.65471   0.67799   0.70373   0.71048   0.84740

 Mulliken charges:
               1
     1  C   -0.315613
     2  N   -0.562020
     3  C   -0.321628
     4  H    0.125310
     5  H    0.166067
     6  H    0.160688
     7  H    0.300272
     8  H    0.158185
     9  H    0.164381
    10  H    0.124359
 Sum of Mulliken charges =  -0.00000

 Dipole moment (field-independent basis, Debye):
    X=             -0.0228    Y=             -0.0352    Z=              0.9585  Tot=              0.9594
 Quadrupole moment (field-independent basis, Debye-Ang):
   XX=            -19.2991   YY=            -19.7566   ZZ=            -21.7574
   XY=             -0.1722   XZ=             -0.0601   YZ=              1.8800

 Normal termination of Gaussian 16 at Wed Jun  5 16:59:28 2019.
