 Gaussian 16, Revision A.03,
 Gaussian 16:  ES64L-G16RevA.03 25-Dec-2016

 ----------------
 # 6-31g(d) wb97x
 ----------------

 -----------------------
 tmpdir/M2_conf_1_78.gjf
 -----------------------
 Symbolic Z-matrix:
 Charge =  0 Multiplicity = 1

                         Standard orientation:
 ---------------------------------------------------------------------
 Center     Atomic      Atomic             Coordinates (Angstroms)
 Number     Number       Type             X           Y           Z
 ---------------------------------------------------------------------
      1          1           0        1.245551    1.441833    0.036342
      2          6           0        0.694490    0.504243   -0.004319
      3          6           0       -0.702503    0.507589   -0.007638
      4          8           0        1.316095   -0.551206   -0.000636
      5          8           0       -1.303093   -0.564828    0.004809
      6          1           0       -1.301490    1.415448    0.002017
 ---------------------------------------------------------------------

 SCF Done:  E(RwB97X) =  -227.738218261     A.U. after   16 cycles

 The electronic state is 1-A.
 Alpha  occ. eigenvalues --  -19.25374 -19.25286 -10.38092 -10.38014  -1.21661
 Alpha  occ. eigenvalues --   -1.17523  -0.87481  -0.69360  -0.67221  -0.58074
 Alpha  occ. eigenvalues --   -0.56290  -0.55120  -0.47872  -0.40924  -0.38113
 Alpha virt. eigenvalues --   -0.03521   0.14239   0.20782   0.23554   0.27291
 Alpha virt. eigenvalues --    0.42004   0.48439   0.58932   0.60976   0.67318
 Alpha virt. eigenvalues --    0.69896   0.77903   0.78346   0.86278   0.92974

 Mulliken charges:
               1
     1  H    0.152908
     2  C    0.180071
     3  C    0.168507
     4  O   -0.331933
     5  O   -0.331336
     6  H    0.161784
 Sum of Mulliken charges =  -0.00000

 Dipole moment (field-independent basis, Debye):
    X=             -0.0689    Y=              3.6559    Z=             -0.0090  Tot=              3.6566
 Quadrupole moment (field-independent basis, Debye-Ang):
   XX=            -25.3125   YY=            -21.2414   ZZ=            -20.8099
   XY=             -0.1224   XZ=              0.0271   YZ=              0.0125

 Normal termination of Gaussian 16 at Wed Jun  5 17:02:10 2019.
