 Gaussian 16, Revision A.03,
 Gaussian 16:  ES64L-G16RevA.03 25-Dec-2016

 ----------------
 # 6-31g(d) wb97x
 ----------------

 ------------------------
 tmpdir/M2_conf_2_180.gjf
 ------------------------
 Symbolic Z-matrix:
 Charge =  0 Multiplicity = 1

                         Standard orientation:
 ---------------------------------------------------------------------
 Center     Atomic      Atomic             Coordinates (Angstroms)
 Number     Number       Type             X           Y           Z
 ---------------------------------------------------------------------
      1          6           0       -0.701952   -0.013218   -0.000659
      2          6           0        0.690394   -0.000964   -0.000497
      3          1           0       -1.174736   -0.898821   -0.002790
      4          1           0       -1.271126    0.911774    0.006496
      5          1           0        1.235908    0.941773   -0.003135
      6          1           0        1.279301   -0.869633    0.006363
 ---------------------------------------------------------------------

 SCF Done:  E(RwB97X) =  -78.5461928976     A.U. after   13 cycles

 The electronic state is 1-A.
 Alpha  occ. eigenvalues --  -10.27116 -10.26672  -0.87585  -0.70933  -0.57998
 Alpha  occ. eigenvalues --   -0.51297  -0.46924  -0.35673
 Alpha virt. eigenvalues --    0.09931   0.22379   0.25484   0.26899   0.34875
 Alpha virt. eigenvalues --    0.41056   0.60052   0.65714   0.66572   0.74541
 Alpha virt. eigenvalues --    0.75820   0.77599   0.99215   1.00481   1.06986

 Mulliken charges:
               1
     1  C   -0.329964
     2  C   -0.335958
     3  H    0.170939
     4  H    0.166020
     5  H    0.159728
     6  H    0.169234
 Sum of Mulliken charges =  -0.00000

 Dipole moment (field-independent basis, Debye):
    X=              0.0076    Y=             -0.0345    Z=              0.0066  Tot=              0.0359
 Quadrupole moment (field-independent basis, Debye-Ang):
   XX=            -11.7667   YY=            -12.0009   ZZ=            -15.1571
   XY=             -0.1007   XZ=             -0.0005   YZ=              0.0004

 Normal termination of Gaussian 16 at Wed Jun  5 17:04:48 2019.
