 Gaussian 16, Revision A.03,
 Gaussian 16:  ES64L-G16RevA.03 25-Dec-2016

 ----------------
 # 6-31g(d) wb97x
 ----------------

 -----------------------
 tmpdir/M2_conf_0_35.gjf
 -----------------------
 Symbolic Z-matrix:
 Charge =  0 Multiplicity = 1

                         Standard orientation:
 ---------------------------------------------------------------------
 Center     Atomic      Atomic             Coordinates (Angstroms)
 Number     Number       Type             X           Y           Z
 ---------------------------------------------------------------------
      1          6           0        0.765629    0.001096   -0.004520
      2          6           0       -0.765346    0.000638    0.004223
      3          1           0        1.167766    0.995552    0.389327
      4          1           0        1.134664   -0.807415    0.637691
      5          1           0        1.120215   -0.198281   -1.035895
      6          1           0       -1.135275   -0.944404   -0.408307
      7          1           0       -1.121706    0.078392    1.049619
      8          1           0       -1.167358    0.865753   -0.630650
 ---------------------------------------------------------------------

 SCF Done:  E(RwB97X) =  -79.7973115443     A.U. after   11 cycles

 The electronic state is 1-A.
 Alpha  occ. eigenvalues --  -10.26163 -10.26147  -0.87683  -0.72513  -0.54304
 Alpha  occ. eigenvalues --   -0.53948  -0.45879  -0.44059  -0.43792
 Alpha virt. eigenvalues --    0.19247   0.25180   0.25271   0.25882   0.28119
 Alpha virt. eigenvalues --    0.28367   0.33312   0.61624   0.65957   0.66028
 Alpha virt. eigenvalues --    0.73954   0.74796   0.78332   0.97539   0.98982

 Mulliken charges:
               1
     1  C   -0.458708
     2  C   -0.458578
     3  H    0.147221
     4  H    0.156980
     5  H    0.154670
     6  H    0.157476
     7  H    0.154914
     8  H    0.146024
 Sum of Mulliken charges =   0.00000

 Dipole moment (field-independent basis, Debye):
    X=              0.0005    Y=             -0.0845    Z=              0.0141  Tot=              0.0857
 Quadrupole moment (field-independent basis, Debye-Ang):
   XX=            -15.6966   YY=            -14.6813   ZZ=            -14.6712
   XY=              0.0104   XZ=              0.0433   YZ=              0.0132

 Normal termination of Gaussian 16 at Wed Jun  5 16:59:14 2019.
