 Gaussian 16, Revision A.03,
 Gaussian 16:  ES64L-G16RevA.03 25-Dec-2016

 ----------------
 # 6-31g(d) wb97x
 ----------------

 -----------------------
 tmpdir/M2_conf_1_71.gjf
 -----------------------
 Symbolic Z-matrix:
 Charge =  0 Multiplicity = 1

                         Standard orientation:
 ---------------------------------------------------------------------
 Center     Atomic      Atomic             Coordinates (Angstroms)
 Number     Number       Type             X           Y           Z
 ---------------------------------------------------------------------
      1          6           0        0.703480    0.507546   -0.005778
      2          6           0       -0.692206    0.503353   -0.001108
      3          1           0       -1.222343    1.452191   -0.004331
      4          1           0        1.256279    1.453962    0.026166
      5          8           0        1.299489   -0.568390    0.000344
      6          8           0       -1.312187   -0.553053    0.002091
 ---------------------------------------------------------------------

 SCF Done:  E(RwB97X) =  -227.738806217     A.U. after   16 cycles

 The electronic state is 1-A.
 Alpha  occ. eigenvalues --  -19.25455 -19.25382 -10.38144 -10.37968  -1.21674
 Alpha  occ. eigenvalues --   -1.17494  -0.87722  -0.69173  -0.67016  -0.58138
 Alpha  occ. eigenvalues --   -0.56312  -0.55216  -0.47873  -0.41038  -0.38140
 Alpha virt. eigenvalues --   -0.03578   0.14243   0.20544   0.23725   0.27260
 Alpha virt. eigenvalues --    0.41480   0.48795   0.58906   0.61524   0.67342
 Alpha virt. eigenvalues --    0.69903   0.77588   0.77916   0.85905   0.92585

 Mulliken charges:
               1
     1  C    0.173374
     2  C    0.182169
     3  H    0.151299
     4  H    0.158322
     5  O   -0.332327
     6  O   -0.332837
 Sum of Mulliken charges =  -0.00000

 Dipole moment (field-independent basis, Debye):
    X=              0.0653    Y=              3.6554    Z=             -0.0048  Tot=              3.6560
 Quadrupole moment (field-independent basis, Debye-Ang):
   XX=            -25.4414   YY=            -21.1761   ZZ=            -20.8137
   XY=              0.1029   XZ=              0.0178   YZ=              0.0083

 Normal termination of Gaussian 16 at Wed Jun  5 17:01:51 2019.
