 Gaussian 16, Revision A.03,
 Gaussian 16:  ES64L-G16RevA.03 25-Dec-2016

 ----------------
 # 6-31g(d) wb97x
 ----------------

 ------------------------
 tmpdir/M2_conf_0_140.gjf
 ------------------------
 Symbolic Z-matrix:
 Charge =  0 Multiplicity = 1

                         Standard orientation:
 ---------------------------------------------------------------------
 Center     Atomic      Atomic             Coordinates (Angstroms)
 Number     Number       Type             X           Y           Z
 ---------------------------------------------------------------------
      1          6           0       -1.233501   -0.236494    0.002332
      2          6           0       -0.057189    0.543630   -0.002997
      3          7           0        1.146819   -0.174875    0.000048
      4          1           0       -2.118346    0.241295    0.002386
      5          1           0       -1.193829   -1.327358    0.007762
      6          1           0       -0.108403    1.553622   -0.007554
      7          1           0        1.067115   -1.180154   -0.027085
      8          1           0        2.069873    0.093907    0.028141
 ---------------------------------------------------------------------

 SCF Done:  E(RwB97X) =  -133.873025808     A.U. after   15 cycles

 The electronic state is 1-A.
 Alpha  occ. eigenvalues --  -14.40375 -10.30310 -10.22742  -1.02301  -0.84123
 Alpha  occ. eigenvalues --   -0.70809  -0.64237  -0.56836  -0.49391  -0.48352
 Alpha  occ. eigenvalues --   -0.43325  -0.27406
 Alpha virt. eigenvalues --    0.13316   0.19602   0.23386   0.25497   0.29142
 Alpha virt. eigenvalues --    0.32423   0.42084   0.43970   0.61969   0.68374
 Alpha virt. eigenvalues --    0.68966   0.73751   0.76184   0.77702   0.85548

 Mulliken charges:
               1
     1  C   -0.445873
     2  C    0.090035
     3  N   -0.783286
     4  H    0.151023
     5  H    0.133298
     6  H    0.177048
     7  H    0.337106
     8  H    0.340648
 Sum of Mulliken charges =  -0.00000

 Dipole moment (field-independent basis, Debye):
    X=              1.6503    Y=              0.0311    Z=              0.0051  Tot=              1.6506
 Quadrupole moment (field-independent basis, Debye-Ang):
   XX=            -16.0055   YY=            -15.5654   ZZ=            -22.2633
   XY=             -0.7623   XZ=              0.0702   YZ=              0.0591

 Normal termination of Gaussian 16 at Wed Jun  5 17:00:16 2019.
