 Gaussian 16, Revision A.03,
 Gaussian 16:  ES64L-G16RevA.03 25-Dec-2016

 ----------------
 # 6-31g(d) wb97x
 ----------------

 ------------------------
 tmpdir/M2_conf_1_176.gjf
 ------------------------
 Symbolic Z-matrix:
 Charge =  0 Multiplicity = 1

                         Standard orientation:
 ---------------------------------------------------------------------
 Center     Atomic      Atomic             Coordinates (Angstroms)
 Number     Number       Type             X           Y           Z
 ---------------------------------------------------------------------
      1          6           0       -0.698887   -0.003641   -0.002109
      2          6           0        0.696406   -0.007323   -0.000120
      3          1           0        1.248131    0.927043    0.002308
      4          1           0       -1.240119    0.924800    0.004245
      5          1           0       -1.171001   -0.897825    0.005958
      6          1           0        1.177873   -0.888238    0.000864
 ---------------------------------------------------------------------

 SCF Done:  E(RwB97X) =  -78.5421306250     A.U. after   11 cycles

 The electronic state is 1-A.
 Alpha  occ. eigenvalues --  -10.26538 -10.26482  -0.87807  -0.70973  -0.58752
 Alpha  occ. eigenvalues --   -0.50625  -0.47658  -0.35578
 Alpha virt. eigenvalues --    0.09939   0.22352   0.26381   0.27281   0.35149
 Alpha virt. eigenvalues --    0.40548   0.59587   0.66657   0.66683   0.74655
 Alpha virt. eigenvalues --    0.75513   0.77677   1.00400   1.00989   1.08203

 Mulliken charges:
               1
     1  C   -0.334242
     2  C   -0.334072
     3  H    0.163113
     4  H    0.165870
     5  H    0.169369
     6  H    0.169962
 Sum of Mulliken charges =   0.00000

 Dipole moment (field-independent basis, Debye):
    X=              0.0027    Y=             -0.0426    Z=              0.0130  Tot=              0.0446
 Quadrupole moment (field-independent basis, Debye-Ang):
   XX=            -11.9678   YY=            -11.8240   ZZ=            -15.1075
   XY=             -0.0196   XZ=             -0.0087   YZ=             -0.0003

 Normal termination of Gaussian 16 at Wed Jun  5 17:02:45 2019.
