 Gaussian 16, Revision A.03,
 Gaussian 16:  ES64L-G16RevA.03 25-Dec-2016

 ----------------
 # 6-31g(d) wb97x
 ----------------

 ------------------------
 tmpdir/M2_conf_1_180.gjf
 ------------------------
 Symbolic Z-matrix:
 Charge =  0 Multiplicity = 1

                         Standard orientation:
 ---------------------------------------------------------------------
 Center     Atomic      Atomic             Coordinates (Angstroms)
 Number     Number       Type             X           Y           Z
 ---------------------------------------------------------------------
      1          6           0       -0.702402   -0.013213   -0.000659
      2          6           0        0.690844   -0.000969   -0.000497
      3          1           0       -1.175198   -0.898810   -0.002790
      4          1           0       -1.271564    0.911786    0.006496
      5          1           0        1.236371    0.941761   -0.003135
      6          1           0        1.279740   -0.869645    0.006363
 ---------------------------------------------------------------------

 SCF Done:  E(RwB97X) =  -78.5460761016     A.U. after   13 cycles

 The electronic state is 1-A.
 Alpha  occ. eigenvalues --  -10.27129 -10.26685  -0.87567  -0.70942  -0.57989
 Alpha  occ. eigenvalues --   -0.51287  -0.46935  -0.35658
 Alpha virt. eigenvalues --    0.09911   0.22379   0.25485   0.26894   0.34868
 Alpha virt. eigenvalues --    0.41028   0.60077   0.65693   0.66582   0.74532
 Alpha virt. eigenvalues --    0.75822   0.77540   0.99227   1.00479   1.06976

 Mulliken charges:
               1
     1  C   -0.330074
     2  C   -0.336054
     3  H    0.170996
     4  H    0.166067
     5  H    0.159781
     6  H    0.169284
 Sum of Mulliken charges =  -0.00000

 Dipole moment (field-independent basis, Debye):
    X=              0.0076    Y=             -0.0344    Z=              0.0066  Tot=              0.0359
 Quadrupole moment (field-independent basis, Debye-Ang):
   XX=            -11.7642   YY=            -12.0015   ZZ=            -15.1596
   XY=             -0.1006   XZ=             -0.0005   YZ=              0.0004

 Normal termination of Gaussian 16 at Wed Jun  5 17:02:42 2019.
