 Gaussian 16, Revision A.03,
 Gaussian 16:  ES64L-G16RevA.03 25-Dec-2016

 ----------------
 # 6-31g(d) wb97x
 ----------------

 ------------------------
 tmpdir/M2_conf_2_183.gjf
 ------------------------
 Symbolic Z-matrix:
 Charge =  0 Multiplicity = 1

                         Standard orientation:
 ---------------------------------------------------------------------
 Center     Atomic      Atomic             Coordinates (Angstroms)
 Number     Number       Type             X           Y           Z
 ---------------------------------------------------------------------
      1          1           0       -1.270490    0.911755    0.006581
      2          6           0       -0.701302   -0.013224   -0.000669
      3          6           0        0.689741   -0.000958   -0.000496
      4          1           0       -1.174055   -0.898844   -0.002828
      5          1           0        1.235244    0.941795   -0.003193
      6          1           0        1.278669   -0.869610    0.006429
 ---------------------------------------------------------------------

 SCF Done:  E(RwB97X) =  -78.5463588762     A.U. after   13 cycles

 The electronic state is 1-A.
 Alpha  occ. eigenvalues --  -10.27096 -10.26652  -0.87610  -0.70920  -0.58011
 Alpha  occ. eigenvalues --   -0.51312  -0.46907  -0.35695
 Alpha virt. eigenvalues --    0.09960   0.22378   0.25481   0.26906   0.34885
 Alpha virt. eigenvalues --    0.41095   0.60015   0.65745   0.66557   0.74554
 Alpha virt. eigenvalues --    0.75817   0.77684   0.99196   1.00483   1.07001

 Mulliken charges:
               1
     1  H    0.165955
     2  C   -0.329805
     3  C   -0.335819
     4  H    0.170858
     5  H    0.159649
     6  H    0.169162
 Sum of Mulliken charges =  -0.00000

 Dipole moment (field-independent basis, Debye):
    X=              0.0076    Y=             -0.0346    Z=              0.0066  Tot=              0.0360
 Quadrupole moment (field-independent basis, Debye-Ang):
   XX=            -11.7702   YY=            -11.9999   ZZ=            -15.1535
   XY=             -0.1007   XZ=             -0.0005   YZ=              0.0004

 Normal termination of Gaussian 16 at Wed Jun  5 17:05:09 2019.
