 Gaussian 16, Revision A.03,
 Gaussian 16:  ES64L-G16RevA.03 25-Dec-2016

 ----------------
 # 6-31g(d) wb97x
 ----------------

 -----------------------
 tmpdir/M2_conf_2_83.gjf
 -----------------------
 Symbolic Z-matrix:
 Charge =  0 Multiplicity = 1

                         Standard orientation:
 ---------------------------------------------------------------------
 Center     Atomic      Atomic             Coordinates (Angstroms)
 Number     Number       Type             X           Y           Z
 ---------------------------------------------------------------------
      1          1           0        1.226486    1.449338    0.015747
      2          6           0        0.691646    0.501490    0.003747
      3          6           0       -0.697129    0.501411   -0.005073
      4          8           0        1.325625   -0.552511   -0.003105
      5          1           0       -1.258748    1.431236   -0.011559
      6          8           0       -1.317479   -0.559736    0.003577
 ---------------------------------------------------------------------

 SCF Done:  E(RwB97X) =  -227.737601850     A.U. after   14 cycles

 The electronic state is 1-A.
 Alpha  occ. eigenvalues --  -19.25509 -19.25444 -10.38099 -10.38010  -1.21563
 Alpha  occ. eigenvalues --   -1.17504  -0.88012  -0.69279  -0.67191  -0.58174
 Alpha  occ. eigenvalues --   -0.56328  -0.55169  -0.47850  -0.41096  -0.38190
 Alpha virt. eigenvalues --   -0.03784   0.14331   0.20574   0.23863   0.27211
 Alpha virt. eigenvalues --    0.41908   0.48889   0.58831   0.61236   0.67446
 Alpha virt. eigenvalues --    0.69466   0.77569   0.77933   0.86103   0.92805

 Mulliken charges:
               1
     1  H    0.153914
     2  C    0.180262
     3  C    0.174927
     4  O   -0.334359
     5  H    0.157896
     6  O   -0.332641
 Sum of Mulliken charges =  -0.00000

 Dipole moment (field-independent basis, Debye):
    X=             -0.0425    Y=              3.6307    Z=             -0.0012  Tot=              3.6310
 Quadrupole moment (field-independent basis, Debye-Ang):
   XX=            -25.5106   YY=            -21.2111   ZZ=            -20.8076
   XY=             -0.0609   XZ=              0.0278   YZ=              0.0012

 Normal termination of Gaussian 16 at Wed Jun  5 17:04:16 2019.
