 Gaussian 16, Revision A.03,
 Gaussian 16:  ES64L-G16RevA.03 25-Dec-2016

 ----------------
 # 6-31g(d) wb97x
 ----------------

 -----------------------
 tmpdir/M2_conf_2_70.gjf
 -----------------------
 Symbolic Z-matrix:
 Charge =  0 Multiplicity = 1

                         Standard orientation:
 ---------------------------------------------------------------------
 Center     Atomic      Atomic             Coordinates (Angstroms)
 Number     Number       Type             X           Y           Z
 ---------------------------------------------------------------------
      1          6           0        0.691702   -0.009415    0.001023
      2          6           0       -0.695382   -0.008506   -0.005484
      3          1           0        1.205073   -0.879510    0.010771
      4          1           0        1.247764    0.924424   -0.008333
      5          1           0       -1.223009    0.942968    0.021046
      6          1           0       -1.207750   -0.880358    0.003284
 ---------------------------------------------------------------------

 SCF Done:  E(RwB97X) =  -78.5445087207     A.U. after   12 cycles

 The electronic state is 1-A.
 Alpha  occ. eigenvalues --  -10.26613 -10.26535  -0.87826  -0.70973  -0.58467
 Alpha  occ. eigenvalues --   -0.51048  -0.47229  -0.35733
 Alpha virt. eigenvalues --    0.10073   0.22270   0.26256   0.27037   0.35070
 Alpha virt. eigenvalues --    0.41055   0.59659   0.66180   0.66557   0.74673
 Alpha virt. eigenvalues --    0.75688   0.78037   0.99810   1.00357   1.08422

 Mulliken charges:
               1
     1  C   -0.332814
     2  C   -0.332243
     3  H    0.169869
     4  H    0.162030
     5  H    0.162077
     6  H    0.171082
 Sum of Mulliken charges =   0.00000

 Dipole moment (field-independent basis, Debye):
    X=              0.0100    Y=             -0.0420    Z=              0.0257  Tot=              0.0503
 Quadrupole moment (field-independent basis, Debye-Ang):
   XX=            -11.8837   YY=            -11.9061   ZZ=            -15.1058
   XY=              0.0250   XZ=             -0.0275   YZ=             -0.0002

 Normal termination of Gaussian 16 at Wed Jun  5 17:03:51 2019.
