 Gaussian 16, Revision A.03,
 Gaussian 16:  ES64L-G16RevA.03 25-Dec-2016

 ----------------
 # 6-31g(d) wb97x
 ----------------

 ------------------------
 tmpdir/M2_conf_1_172.gjf
 ------------------------
 Symbolic Z-matrix:
 Charge =  0 Multiplicity = 1

                         Standard orientation:
 ---------------------------------------------------------------------
 Center     Atomic      Atomic             Coordinates (Angstroms)
 Number     Number       Type             X           Y           Z
 ---------------------------------------------------------------------
      1          6           0       -1.446732    0.237002    0.138480
      2          6           0        0.021010    0.428158    0.022184
      3          6           0        0.856325   -0.690491    0.069009
      4          1           0       -1.999299    1.068327    0.474976
      5          8           0       -1.999108   -0.822014   -0.147178
      6          8           0        0.494165    1.557634   -0.094239
      7          8           0        2.127343   -0.639366   -0.016345
      8          1           0        0.436482   -1.686373    0.209081
 ---------------------------------------------------------------------

 SCF Done:  E(RwB97X) =  -341.020283105     A.U. after   20 cycles

 The electronic state is 1-A.
 Alpha  occ. eigenvalues --  -19.28046 -19.27719 -19.26413 -10.40577 -10.40520
 Alpha  occ. eigenvalues --  -10.39154  -1.23561  -1.21289  -1.17171  -0.91429
 Alpha  occ. eigenvalues --   -0.81622  -0.68636  -0.67070  -0.61751  -0.59818
 Alpha  occ. eigenvalues --   -0.57752  -0.56025  -0.52453  -0.48224  -0.45491
 Alpha  occ. eigenvalues --   -0.41797  -0.37908
 Alpha virt. eigenvalues --   -0.07278   0.01993   0.15629   0.21451   0.22935
 Alpha virt. eigenvalues --    0.26160   0.35758   0.37096   0.40280   0.47646
 Alpha virt. eigenvalues --    0.56667   0.61632   0.64148   0.68019   0.71202

 Mulliken charges:
               1
     1  C    0.171273
     2  C    0.350122
     3  C    0.155482
     4  H    0.190240
     5  O   -0.348670
     6  O   -0.362255
     7  O   -0.348297
     8  H    0.192105
 Sum of Mulliken charges =  -0.00000

 Dipole moment (field-independent basis, Debye):
    X=             -2.1124    Y=             -0.0402    Z=              0.9046  Tot=              2.2983
 Quadrupole moment (field-independent basis, Debye-Ang):
   XX=            -40.5549   YY=            -35.0854   ZZ=            -30.3299
   XY=             -3.9580   XZ=             -0.7764   YZ=              0.0427

 Normal termination of Gaussian 16 at Wed Jun  5 17:03:08 2019.
