 Gaussian 16, Revision A.03,
 Gaussian 16:  ES64L-G16RevA.03 25-Dec-2016

 ----------------
 # 6-31g(d) wb97x
 ----------------

 ------------------------
 tmpdir/M2_conf_0_175.gjf
 ------------------------
 Symbolic Z-matrix:
 Charge =  0 Multiplicity = 1

                         Standard orientation:
 ---------------------------------------------------------------------
 Center     Atomic      Atomic             Coordinates (Angstroms)
 Number     Number       Type             X           Y           Z
 ---------------------------------------------------------------------
      1          6           0       -0.699458    0.493421   -0.000795
      2          6           0        0.704739    0.490517   -0.000486
      3          6           0       -1.374386   -0.727774    0.000722
      4          1           0       -1.248744    1.429221   -0.000229
      5          1           0        1.254646    1.427100    0.004578
      6          6           0        1.368121   -0.732218   -0.000166
 ---------------------------------------------------------------------

 SCF Done:  E(RwB97X) =  -153.247424399     A.U. after   16 cycles

 The electronic state is 1-A.
 Alpha  occ. eigenvalues --  -10.36216 -10.36164 -10.31282 -10.31223  -0.97980
 Alpha  occ. eigenvalues --   -0.84433  -0.72262  -0.60095  -0.59753  -0.46660
 Alpha  occ. eigenvalues --   -0.42562  -0.40024  -0.33263
 Alpha virt. eigenvalues --   -0.03541   0.00810   0.02687   0.16637   0.21118
 Alpha virt. eigenvalues --    0.25018   0.35118   0.45203   0.48044   0.58399
 Alpha virt. eigenvalues --    0.60969   0.63870   0.65871   0.66661   0.69196

 Mulliken charges:
               1
     1  C   -0.269905
     2  C   -0.267394
     3  C    0.033013
     4  H    0.235971
     5  H    0.236185
     6  C    0.032130
 Sum of Mulliken charges =  -0.00000

 Dipole moment (field-independent basis, Debye):
    X=              0.0159    Y=              3.5132    Z=              0.0047  Tot=              3.5132
 Quadrupole moment (field-independent basis, Debye-Ang):
   XX=            -23.8538   YY=            -23.5397   ZZ=            -25.4709
   XY=             -0.0013   XZ=              0.0148   YZ=              0.0108

 Normal termination of Gaussian 16 at Wed Jun  5 17:00:33 2019.
