 Gaussian 16, Revision A.03,
 Gaussian 16:  ES64L-G16RevA.03 25-Dec-2016

 ----------------
 # 6-31g(d) wb97x
 ----------------

 -----------------------
 tmpdir/M2_conf_2_94.gjf
 -----------------------
 Symbolic Z-matrix:
 Charge =  0 Multiplicity = 1

                         Standard orientation:
 ---------------------------------------------------------------------
 Center     Atomic      Atomic             Coordinates (Angstroms)
 Number     Number       Type             X           Y           Z
 ---------------------------------------------------------------------
      1          6           0       -0.166963    0.392182   -0.014513
      2          7           0        1.086741   -0.159409   -0.021801
      3          1           0       -0.188886    1.479639   -0.021225
      4          8           0       -1.199920   -0.259551    0.013711
      5          1           0        1.849988    0.477893    0.149608
      6          1           0        1.332851   -1.118356    0.001607
 ---------------------------------------------------------------------

 SCF Done:  E(RwB97X) =  -169.839764463     A.U. after   16 cycles

 The electronic state is 1-A.
 Alpha  occ. eigenvalues --  -19.18145 -14.43862 -10.37536  -1.15388  -1.03502
 Alpha  occ. eigenvalues --   -0.75330  -0.65805  -0.60328  -0.51710  -0.50809
 Alpha  occ. eigenvalues --   -0.37157  -0.35534
 Alpha virt. eigenvalues --    0.12320   0.17901   0.20843   0.27678   0.36514
 Alpha virt. eigenvalues --    0.44320   0.64268   0.65717   0.75291   0.79434
 Alpha virt. eigenvalues --    0.81089   0.83179   0.95745   0.98113   0.99610

 Mulliken charges:
               1
     1  C    0.344150
     2  N   -0.738724
     3  H    0.135340
     4  O   -0.449635
     5  H    0.342519
     6  H    0.366351
 Sum of Mulliken charges =  -0.00000

 Dipole moment (field-independent basis, Debye):
    X=              3.8062    Y=              0.9802    Z=              0.2730  Tot=              3.9398
 Quadrupole moment (field-independent basis, Debye-Ang):
   XX=            -17.3431   YY=            -14.7537   ZZ=            -18.3906
   XY=             -1.4432   XZ=              0.6969   YZ=              0.1442

 Normal termination of Gaussian 16 at Wed Jun  5 17:04:40 2019.
