 Gaussian 16, Revision A.03,
 Gaussian 16:  ES64L-G16RevA.03 25-Dec-2016

 ----------------
 # 6-31g(d) wb97x
 ----------------

 ------------------------
 tmpdir/M2_conf_2_153.gjf
 ------------------------
 Symbolic Z-matrix:
 Charge =  0 Multiplicity = 1

                         Standard orientation:
 ---------------------------------------------------------------------
 Center     Atomic      Atomic             Coordinates (Angstroms)
 Number     Number       Type             X           Y           Z
 ---------------------------------------------------------------------
      1          7           0        0.694839   -0.140721   -0.000648
      2          6           0       -0.629443    0.041794   -0.000693
      3          1           0        1.212390    0.648148    0.004601
      4          1           0       -1.235585   -0.863393    0.004044
      5          1           0       -1.064019    0.949528    0.000047
 ---------------------------------------------------------------------

 SCF Done:  E(RwB97X) =  -94.5768003541     A.U. after   14 cycles

 The electronic state is 1-A.
 Alpha  occ. eigenvalues --  -14.40255 -10.31713  -1.01267  -0.76613  -0.61916
 Alpha  occ. eigenvalues --   -0.54142  -0.41581  -0.36778
 Alpha virt. eigenvalues --    0.07170   0.21880   0.24338   0.29733   0.39507
 Alpha virt. eigenvalues --    0.65575   0.67679   0.72056   0.77196   0.84173
 Alpha virt. eigenvalues --    0.87378   0.97173   1.07172   1.08937   1.16838

 Mulliken charges:
               1
     1  N   -0.503781
     2  C   -0.159360
     3  H    0.316789
     4  H    0.176794
     5  H    0.169558
 Sum of Mulliken charges =  -0.00000

 Dipole moment (field-independent basis, Debye):
    X=             -1.2735    Y=              1.7040    Z=              0.0098  Tot=              2.1273
 Quadrupole moment (field-independent basis, Debye-Ang):
   XX=            -11.4119   YY=            -12.0682   ZZ=            -13.3012
   XY=              2.1066   XZ=              0.0056   YZ=              0.0008

 Normal termination of Gaussian 16 at Wed Jun  5 17:05:00 2019.
