 Gaussian 16, Revision A.03,
 Gaussian 16:  ES64L-G16RevA.03 25-Dec-2016

 ----------------
 # 6-31g(d) wb97x
 ----------------

 -----------------------
 tmpdir/M2_conf_0_91.gjf
 -----------------------
 Symbolic Z-matrix:
 Charge =  0 Multiplicity = 1

                         Standard orientation:
 ---------------------------------------------------------------------
 Center     Atomic      Atomic             Coordinates (Angstroms)
 Number     Number       Type             X           Y           Z
 ---------------------------------------------------------------------
      1          6           0        1.219396   -0.633993   -0.028480
      2          6           0        0.031780    0.093041    0.083777
      3          6           0       -1.308552   -0.582456    0.154633
      4          8           0        2.296391   -0.054816   -0.099225
      5          1           0        1.198528   -1.720030   -0.095419
      6          8           0        0.081612    1.321138    0.098964
      7          8           0       -2.323152   -0.011425   -0.215571
      8          1           0       -1.293077   -1.578695    0.562491
 ---------------------------------------------------------------------

 SCF Done:  E(RwB97X) =  -341.018458217     A.U. after   18 cycles

 The electronic state is 1-A.
 Alpha  occ. eigenvalues --  -19.27019 -19.26887 -19.26663 -10.40208 -10.39602
 Alpha  occ. eigenvalues --  -10.39433  -1.23735  -1.20953  -1.18557  -0.91954
 Alpha  occ. eigenvalues --   -0.79172  -0.69801  -0.67992  -0.60292  -0.59624
 Alpha  occ. eigenvalues --   -0.57553  -0.57012  -0.52807  -0.48552  -0.43743
 Alpha  occ. eigenvalues --   -0.41899  -0.37775
 Alpha virt. eigenvalues --   -0.06639   0.02937   0.15527   0.18817   0.22754
 Alpha virt. eigenvalues --    0.25940   0.35973   0.36419   0.43651   0.49919
 Alpha virt. eigenvalues --    0.56801   0.58872   0.64302   0.69590   0.71360

 Mulliken charges:
               1
     1  C    0.157459
     2  C    0.334665
     3  C    0.179234
     4  O   -0.324684
     5  H    0.161793
     6  O   -0.343114
     7  O   -0.327399
     8  H    0.162046
 Sum of Mulliken charges =   0.00000

 Dipole moment (field-independent basis, Debye):
    X=             -0.1337    Y=             -3.8861    Z=              0.7217  Tot=              3.9548
 Quadrupole moment (field-independent basis, Debye-Ang):
   XX=            -43.3270   YY=            -32.0116   ZZ=            -30.3269
   XY=             -0.0376   XZ=             -1.0090   YZ=             -0.3970

 Normal termination of Gaussian 16 at Wed Jun  5 17:00:03 2019.
