 Gaussian 16, Revision A.03,
 Gaussian 16:  ES64L-G16RevA.03 25-Dec-2016

 ----------------
 # 6-31g(d) wb97x
 ----------------

 -----------------------
 tmpdir/M2_conf_2_85.gjf
 -----------------------
 Symbolic Z-matrix:
 Charge =  0 Multiplicity = 1

                         Standard orientation:
 ---------------------------------------------------------------------
 Center     Atomic      Atomic             Coordinates (Angstroms)
 Number     Number       Type             X           Y           Z
 ---------------------------------------------------------------------
      1          6           0       -0.695819   -0.011366    0.001197
      2          6           0        0.700274   -0.009774   -0.002956
      3          1           0       -1.202197   -0.879796   -0.004282
      4          1           0       -1.216246    0.942156    0.002264
      5          1           0        1.193311   -0.892655    0.009747
      6          1           0        1.198401    0.957137    0.002830
 ---------------------------------------------------------------------

 SCF Done:  E(RwB97X) =  -78.5419585277     A.U. after   12 cycles

 The electronic state is 1-A.
 Alpha  occ. eigenvalues --  -10.26650 -10.26521  -0.87751  -0.70807  -0.58873
 Alpha  occ. eigenvalues --   -0.50344  -0.47635  -0.35568
 Alpha virt. eigenvalues --    0.09937   0.21921   0.26491   0.27262   0.34981
 Alpha virt. eigenvalues --    0.40356   0.59609   0.66674   0.66961   0.74644
 Alpha virt. eigenvalues --    0.75523   0.77729   1.00053   1.00367   1.07904

 Mulliken charges:
               1
     1  C   -0.333579
     2  C   -0.333500
     3  H    0.170778
     4  H    0.161683
     5  H    0.171286
     6  H    0.163332
 Sum of Mulliken charges =  -0.00000

 Dipole moment (field-independent basis, Debye):
    X=             -0.0121    Y=             -0.0360    Z=              0.0104  Tot=              0.0394
 Quadrupole moment (field-independent basis, Debye-Ang):
   XX=            -12.0584   YY=            -11.7730   ZZ=            -15.1305
   XY=             -0.0015   XZ=              0.0184   YZ=             -0.0003

 Normal termination of Gaussian 16 at Wed Jun  5 17:03:51 2019.
