 Gaussian 16, Revision A.03,
 Gaussian 16:  ES64L-G16RevA.03 25-Dec-2016

 ----------------
 # 6-31g(d) wb97x
 ----------------

 ------------------------
 tmpdir/M2_conf_0_119.gjf
 ------------------------
 Symbolic Z-matrix:
 Charge =  0 Multiplicity = 1

                         Standard orientation:
 ---------------------------------------------------------------------
 Center     Atomic      Atomic             Coordinates (Angstroms)
 Number     Number       Type             X           Y           Z
 ---------------------------------------------------------------------
      1          6           0       -0.688151    0.477626   -0.001474
      2          6           0        0.706739    0.494909    0.001092
      3          6           0       -1.409249   -0.708352    0.001109
      4          1           0       -1.223408    1.424854   -0.001966
      5          1           0        1.248245    1.442729    0.003073
      6          6           0        1.386522   -0.742112   -0.000912
 ---------------------------------------------------------------------

 SCF Done:  E(RwB97X) =  -153.245250828     A.U. after   19 cycles

 The electronic state is 1-A.
 Alpha  occ. eigenvalues --  -10.36656 -10.36016 -10.31503 -10.31052  -0.97865
 Alpha  occ. eigenvalues --   -0.84344  -0.72350  -0.60198  -0.59445  -0.46632
 Alpha  occ. eigenvalues --   -0.42524  -0.40080  -0.33155
 Alpha virt. eigenvalues --   -0.03421   0.00486   0.02454   0.16700   0.20845
 Alpha virt. eigenvalues --    0.25095   0.34962   0.45756   0.47738   0.58470
 Alpha virt. eigenvalues --    0.60944   0.63228   0.66036   0.66619   0.69220

 Mulliken charges:
               1
     1  C   -0.274978
     2  C   -0.265201
     3  C    0.033007
     4  H    0.236174
     5  H    0.233199
     6  C    0.037799
 Sum of Mulliken charges =   0.00000

 Dipole moment (field-independent basis, Debye):
    X=              0.1498    Y=              3.4572    Z=              0.0012  Tot=              3.4605
 Quadrupole moment (field-independent basis, Debye-Ang):
   XX=            -24.2368   YY=            -23.3815   ZZ=            -25.5049
   XY=             -0.1165   XZ=              0.0182   YZ=              0.0026

 Normal termination of Gaussian 16 at Wed Jun  5 17:00:24 2019.
