 Gaussian 16, Revision A.03,
 Gaussian 16:  ES64L-G16RevA.03 25-Dec-2016

 ----------------
 # 6-31g(d) wb97x
 ----------------

 ------------------------
 tmpdir/M2_conf_1_187.gjf
 ------------------------
 Symbolic Z-matrix:
 Charge =  0 Multiplicity = 1

                         Standard orientation:
 ---------------------------------------------------------------------
 Center     Atomic      Atomic             Coordinates (Angstroms)
 Number     Number       Type             X           Y           Z
 ---------------------------------------------------------------------
      1          6           0       -1.376578   -0.471171   -0.000426
      2          6           0       -0.519267    0.624353   -0.002154
      3          7           0        0.811598    0.516935    0.001943
      4          1           0       -0.978626   -1.392815   -0.004786
      5          1           0       -2.454659   -0.339864    0.010700
      6          1           0       -0.916602    1.638496   -0.002479
      7          8           0        1.255471   -0.555432   -0.000195
 ---------------------------------------------------------------------

 SCF Done:  E(RwB97X) =  -207.792692926     A.U. after   18 cycles

 The electronic state is 1-A.
 Alpha  occ. eigenvalues --  -19.26100 -14.50585 -10.31282 -10.31061  -1.31806
 Alpha  occ. eigenvalues --   -0.96788  -0.84624  -0.68305  -0.64409  -0.60108
 Alpha  occ. eigenvalues --   -0.58802  -0.54037  -0.49597  -0.38914  -0.31162
 Alpha virt. eigenvalues --   -0.01752   0.15170   0.20825   0.24527   0.28499
 Alpha virt. eigenvalues --    0.37784   0.38544   0.48205   0.62852   0.64982
 Alpha virt. eigenvalues --    0.69951   0.71412   0.72834   0.76346   0.80711

 Mulliken charges:
               1
     1  C   -0.301758
     2  C   -0.046187
     3  N    0.045756
     4  H    0.209398
     5  H    0.196754
     6  H    0.184541
     7  O   -0.288504
 Sum of Mulliken charges =  -0.00000

 Dipole moment (field-independent basis, Debye):
    X=             -3.0448    Y=              0.0347    Z=             -0.0017  Tot=              3.0450
 Quadrupole moment (field-independent basis, Debye-Ang):
   XX=            -22.8421   YY=            -22.0861   ZZ=            -22.9850
   XY=              0.2111   XZ=             -0.0303   YZ=             -0.0114

 Normal termination of Gaussian 16 at Wed Jun  5 17:03:01 2019.
