 Gaussian 16, Revision A.03,
 Gaussian 16:  ES64L-G16RevA.03 25-Dec-2016

 ----------------
 # 6-31g(d) wb97x
 ----------------

 -----------------------
 tmpdir/M2_conf_0_75.gjf
 -----------------------
 Symbolic Z-matrix:
 Charge =  0 Multiplicity = 1

                         Standard orientation:
 ---------------------------------------------------------------------
 Center     Atomic      Atomic             Coordinates (Angstroms)
 Number     Number       Type             X           Y           Z
 ---------------------------------------------------------------------
      1          6           0        0.695336    0.485710   -0.004225
      2          6           0       -0.701559    0.487782   -0.007459
      3          6           0        1.396581   -0.713620   -0.000856
      4          1           0        1.249470    1.421468    0.036915
      5          6           0       -1.381708   -0.729300    0.005920
      6          1           0       -1.301369    1.395091    0.002802
 ---------------------------------------------------------------------

 SCF Done:  E(RwB97X) =  -153.248116278     A.U. after   18 cycles

 The electronic state is 1-A.
 Alpha  occ. eigenvalues --  -10.36195 -10.36119 -10.31259 -10.31195  -0.97999
 Alpha  occ. eigenvalues --   -0.84709  -0.72010  -0.60639  -0.59468  -0.46742
 Alpha  occ. eigenvalues --   -0.42482  -0.40009  -0.33311
 Alpha virt. eigenvalues --   -0.03357   0.00669   0.02686   0.16798   0.20998
 Alpha virt. eigenvalues --    0.24798   0.35035   0.45873   0.48161   0.58286
 Alpha virt. eigenvalues --    0.60894   0.63304   0.66166   0.66591   0.69145

 Mulliken charges:
               1
     1  C   -0.270932
     2  C   -0.268950
     3  C    0.032930
     4  H    0.236688
     5  C    0.034093
     6  H    0.236170
 Sum of Mulliken charges =  -0.00000

 Dipole moment (field-independent basis, Debye):
    X=             -0.0706    Y=              3.4535    Z=              0.0413  Tot=              3.4545
 Quadrupole moment (field-independent basis, Debye-Ang):
   XX=            -24.0675   YY=            -23.5005   ZZ=            -25.4615
   XY=             -0.0061   XZ=              0.1034   YZ=              0.1017

 Normal termination of Gaussian 16 at Wed Jun  5 16:59:40 2019.
