 Gaussian 16, Revision A.03,
 Gaussian 16:  ES64L-G16RevA.03 25-Dec-2016

 ----------------
 # 6-31g(d) wb97x
 ----------------

 ------------------------
 tmpdir/M2_conf_2_108.gjf
 ------------------------
 Symbolic Z-matrix:
 Charge =  0 Multiplicity = 1

                         Standard orientation:
 ---------------------------------------------------------------------
 Center     Atomic      Atomic             Coordinates (Angstroms)
 Number     Number       Type             X           Y           Z
 ---------------------------------------------------------------------
      1          6           0        0.549111   -0.011843   -0.000044
      2          1           0        1.113270    0.908273    0.000090
      3          8           0       -0.680232    0.007767    0.000010
      4          1           0        1.033925   -0.899357    0.000095
 ---------------------------------------------------------------------

 SCF Done:  E(RwB97X) =  -114.458752477     A.U. after   13 cycles

 The electronic state is 1-A.
 Alpha  occ. eigenvalues --  -19.23038 -10.35926  -1.16908  -0.77378  -0.62159
 Alpha  occ. eigenvalues --   -0.54967  -0.49419  -0.36905
 Alpha virt. eigenvalues --    0.05494   0.21930   0.29675   0.31631   0.62186
 Alpha virt. eigenvalues --    0.70784   0.74069   0.78314   0.96444   0.98141
 Alpha virt. eigenvalues --    1.05880   1.07897   1.17786   1.48275   1.60892

 Mulliken charges:
               1
     1  C    0.055016
     2  H    0.141073
     3  O   -0.351728
     4  H    0.155639
 Sum of Mulliken charges =  -0.00000

 Dipole moment (field-independent basis, Debye):
    X=              2.4642    Y=             -0.0906    Z=              0.0000  Tot=              2.4658
 Quadrupole moment (field-independent basis, Debye-Ang):
   XX=            -11.7511   YY=            -11.2544   ZZ=            -11.3427
   XY=             -0.0229   XZ=              0.0001   YZ=              0.0000

 Normal termination of Gaussian 16 at Wed Jun  5 17:04:30 2019.
