 Gaussian 16, Revision A.03,
 Gaussian 16:  ES64L-G16RevA.03 25-Dec-2016

 ----------------
 # 6-31g(d) wb97x
 ----------------

 ------------------------
 tmpdir/M2_conf_1_104.gjf
 ------------------------
 Symbolic Z-matrix:
 Charge =  0 Multiplicity = 1

                         Standard orientation:
 ---------------------------------------------------------------------
 Center     Atomic      Atomic             Coordinates (Angstroms)
 Number     Number       Type             X           Y           Z
 ---------------------------------------------------------------------
      1          6           0        0.689375    0.484744   -0.004796
      2          6           0       -0.702213    0.481009   -0.000210
      3          1           0        1.196697    1.473552    0.022900
      4          6           0        1.399589   -0.715452    0.000129
      5          1           0       -1.256791    1.417040   -0.006504
      6          6           0       -1.376735   -0.732065    0.002144
 ---------------------------------------------------------------------

 SCF Done:  E(RwB97X) =  -153.246532499     A.U. after   18 cycles

 The electronic state is 1-A.
 Alpha  occ. eigenvalues --  -10.36240 -10.36113 -10.31414 -10.31087  -0.98118
 Alpha  occ. eigenvalues --   -0.84410  -0.72501  -0.60221  -0.59065  -0.46830
 Alpha  occ. eigenvalues --   -0.42527  -0.40057  -0.33246
 Alpha virt. eigenvalues --   -0.03468   0.00565   0.02635   0.16927   0.20546
 Alpha virt. eigenvalues --    0.24945   0.35484   0.45838   0.48029   0.58262
 Alpha virt. eigenvalues --    0.60869   0.63513   0.65995   0.66589   0.69179

 Mulliken charges:
               1
     1  C   -0.270853
     2  C   -0.265185
     3  H    0.234754
     4  C    0.032982
     5  H    0.235389
     6  C    0.032914
 Sum of Mulliken charges =   0.00000

 Dipole moment (field-independent basis, Debye):
    X=             -0.0828    Y=              3.5123    Z=              0.0170  Tot=              3.5134
 Quadrupole moment (field-independent basis, Debye-Ang):
   XX=            -24.2187   YY=            -23.3562   ZZ=            -25.4736
   XY=             -0.0195   XZ=              0.0767   YZ=              0.0435

 Normal termination of Gaussian 16 at Wed Jun  5 17:02:26 2019.
