 Gaussian 16, Revision A.03,
 Gaussian 16:  ES64L-G16RevA.03 25-Dec-2016

 ----------------
 # 6-31g(d) wb97x
 ----------------

 -----------------------
 tmpdir/M2_conf_0_50.gjf
 -----------------------
 Symbolic Z-matrix:
 Charge =  0 Multiplicity = 1

                         Standard orientation:
 ---------------------------------------------------------------------
 Center     Atomic      Atomic             Coordinates (Angstroms)
 Number     Number       Type             X           Y           Z
 ---------------------------------------------------------------------
      1          1           0        1.018818   -0.016196    1.073811
      2          6           0        0.707865   -0.000079    0.011295
      3          7           0       -0.744649    0.001832   -0.112687
      4          1           0        1.132179    0.892165   -0.474801
      5          1           0        1.101774   -0.902593   -0.468734
      6          1           0       -1.127650    0.849865    0.304374
      7          1           0       -1.159770   -0.835596    0.286393
 ---------------------------------------------------------------------

 SCF Done:  E(RwB97X) =  -95.8213871555     A.U. after   13 cycles

 The electronic state is 1-A.
 Alpha  occ. eigenvalues --  -14.37973 -10.28049  -0.99302  -0.77375  -0.60121
 Alpha  occ. eigenvalues --   -0.53478  -0.50507  -0.47081  -0.32118
 Alpha virt. eigenvalues --    0.18426   0.24218   0.25502   0.27593   0.29056
 Alpha virt. eigenvalues --    0.34066   0.66034   0.67692   0.69720   0.84794
 Alpha virt. eigenvalues --    0.87498   0.89489   0.97767   1.02488   1.04682

 Mulliken charges:
               1
     1  H    0.128452
     2  C   -0.327512
     3  N   -0.743849
     4  H    0.162796
     5  H    0.162684
     6  H    0.307496
     7  H    0.309933
 Sum of Mulliken charges =  -0.00000

 Dipole moment (field-independent basis, Debye):
    X=              0.1649    Y=             -0.0155    Z=              1.3494  Tot=              1.3596
 Quadrupole moment (field-independent basis, Debye-Ang):
   XX=            -13.6047   YY=            -12.1140   ZZ=            -15.2725
   XY=              0.0769   XZ=             -2.0435   YZ=              0.0221

 Normal termination of Gaussian 16 at Wed Jun  5 16:59:14 2019.
