 Gaussian 16, Revision A.03,
 Gaussian 16:  ES64L-G16RevA.03 25-Dec-2016

 ----------------
 # 6-31g(d) wb97x
 ----------------

 -----------------------
 tmpdir/M2_conf_1_52.gjf
 -----------------------
 Symbolic Z-matrix:
 Charge =  0 Multiplicity = 1

                         Standard orientation:
 ---------------------------------------------------------------------
 Center     Atomic      Atomic             Coordinates (Angstroms)
 Number     Number       Type             X           Y           Z
 ---------------------------------------------------------------------
      1          6           0        1.218417   -0.224776    0.019938
      2          7           0        0.000612    0.554222   -0.155913
      3          6           0       -1.217487   -0.227394    0.018700
      4          1           0        1.299699   -0.620865    1.050446
      5          1           0        2.082369    0.425835   -0.160614
      6          1           0        1.237900   -1.066995   -0.689857
      7          1           0       -0.019875    1.365780    0.455488
      8          1           0       -1.235990   -1.070283   -0.689547
      9          1           0       -2.083248    0.420284   -0.157611
     10          1           0       -1.290719   -0.620289    1.051256
 ---------------------------------------------------------------------

 SCF Done:  E(RwB97X) =  -135.120256414     A.U. after   13 cycles

 The electronic state is 1-A.
 Alpha  occ. eigenvalues --  -14.38588 -10.28061 -10.28015  -1.01832  -0.82098
 Alpha  occ. eigenvalues --   -0.74238  -0.59436  -0.54705  -0.53348  -0.48897
 Alpha  occ. eigenvalues --   -0.46844  -0.45987  -0.30730
 Alpha virt. eigenvalues --    0.18112   0.23085   0.25142   0.25452   0.26574
 Alpha virt. eigenvalues --    0.29003   0.29344   0.31365   0.36579   0.62851
 Alpha virt. eigenvalues --    0.64482   0.68224   0.69823   0.70534   0.84504

 Mulliken charges:
               1
     1  C   -0.320600
     2  N   -0.556850
     3  C   -0.322219
     4  H    0.124372
     5  H    0.162916
     6  H    0.160163
     7  H    0.305718
     8  H    0.159709
     9  H    0.162648
    10  H    0.124144
 Sum of Mulliken charges =  -0.00000

 Dipole moment (field-independent basis, Debye):
    X=             -0.0116    Y=             -0.1205    Z=              1.0117  Tot=              1.0189
 Quadrupole moment (field-independent basis, Debye-Ang):
   XX=            -19.5429   YY=            -19.8300   ZZ=            -21.6880
   XY=             -0.0510   XZ=             -0.0152   YZ=              2.0925

 Normal termination of Gaussian 16 at Wed Jun  5 17:01:39 2019.
