 Gaussian 16, Revision A.03,
 Gaussian 16:  ES64L-G16RevA.03 25-Dec-2016

 ----------------
 # 6-31g(d) wb97x
 ----------------

 -----------------------
 tmpdir/M2_conf_0_92.gjf
 -----------------------
 Symbolic Z-matrix:
 Charge =  0 Multiplicity = 1

                         Standard orientation:
 ---------------------------------------------------------------------
 Center     Atomic      Atomic             Coordinates (Angstroms)
 Number     Number       Type             X           Y           Z
 ---------------------------------------------------------------------
      1          6           0       -1.470821   -0.477963    0.053575
      2          6           0       -0.651708    0.642701   -0.077721
      3          6           0        0.830676    0.470646    0.097620
      4          1           0       -2.466448   -0.394511   -0.057705
      5          1           0       -1.009848   -1.433876    0.285477
      6          1           0       -1.070643    1.534196   -0.306753
      7          8           0        1.367833   -0.609228   -0.097042
      8          1           0        1.355395    1.355712    0.414474
 ---------------------------------------------------------------------

 SCF Done:  E(RwB97X) =  -191.835509198     A.U. after   16 cycles

 The electronic state is 1-A.
 Alpha  occ. eigenvalues --  -19.21672 -10.36417 -10.29145 -10.28583  -1.16573
 Alpha  occ. eigenvalues --   -0.91284  -0.78400  -0.67777  -0.62918  -0.55173
 Alpha  occ. eigenvalues --   -0.53491  -0.50225  -0.49309  -0.37349  -0.35866
 Alpha virt. eigenvalues --    0.02508   0.14336   0.22624   0.23461   0.26672
 Alpha virt. eigenvalues --    0.30125   0.35656   0.40119   0.42730   0.62365
 Alpha virt. eigenvalues --    0.63065   0.67980   0.68897   0.70071   0.74940

 Mulliken charges:
               1
     1  C   -0.316002
     2  C   -0.203692
     3  C    0.211324
     4  H    0.183944
     5  H    0.200762
     6  H    0.173891
     7  O   -0.392032
     8  H    0.141805
 Sum of Mulliken charges =  -0.00000

 Dipole moment (field-independent basis, Debye):
    X=             -1.9254    Y=              1.7793    Z=              0.3697  Tot=              2.6476
 Quadrupole moment (field-independent basis, Debye-Ang):
   XX=            -23.5108   YY=            -21.7130   ZZ=            -24.2468
   XY=              2.9471   XZ=              0.7028   YZ=             -0.6197

 Normal termination of Gaussian 16 at Wed Jun  5 17:00:13 2019.
