 Gaussian 16, Revision A.03,
 Gaussian 16:  ES64L-G16RevA.03 25-Dec-2016

 ----------------
 # 6-31g(d) wb97x
 ----------------

 ------------------------
 tmpdir/M2_conf_1_158.gjf
 ------------------------
 Symbolic Z-matrix:
 Charge =  0 Multiplicity = 1

                         Standard orientation:
 ---------------------------------------------------------------------
 Center     Atomic      Atomic             Coordinates (Angstroms)
 Number     Number       Type             X           Y           Z
 ---------------------------------------------------------------------
      1          7           0       -1.419184   -0.469078    0.001763
      2          6           0       -0.628671    0.594383   -0.003769
      3          6           0        0.758848    0.508210   -0.000693
      4          1           0       -0.976909   -1.302424    0.012479
      5          1           0       -1.130265    1.561435   -0.005368
      6          1           0        1.376584    1.397993    0.025001
      7          8           0        1.235477   -0.623628   -0.002210
 ---------------------------------------------------------------------

 SCF Done:  E(RwB97X) =  -207.866405435     A.U. after   14 cycles

 The electronic state is 1-A.
 Alpha  occ. eigenvalues --  -19.23987 -14.42717 -10.37551 -10.33390  -1.19309
 Alpha  occ. eigenvalues --   -1.03972  -0.85498  -0.71003  -0.65346  -0.59659
 Alpha  occ. eigenvalues --   -0.53824  -0.53302  -0.42222  -0.40034  -0.38209
 Alpha virt. eigenvalues --   -0.01868   0.15307   0.20794   0.24345   0.25143
 Alpha virt. eigenvalues --    0.32680   0.44130   0.47908   0.60498   0.62788
 Alpha virt. eigenvalues --    0.69140   0.70000   0.73907   0.77807   0.82507

 Mulliken charges:
               1
     1  N   -0.468052
     2  C   -0.037648
     3  C    0.211862
     4  H    0.341242
     5  H    0.181152
     6  H    0.161530
     7  O   -0.390086
 Sum of Mulliken charges =  -0.00000

 Dipole moment (field-independent basis, Debye):
    X=              0.6317    Y=              2.1068    Z=              0.0210  Tot=              2.1996
 Quadrupole moment (field-independent basis, Debye-Ang):
   XX=            -28.8975   YY=            -19.5036   ZZ=            -22.6080
   XY=              1.9788   XZ=              0.0063   YZ=             -0.0196

 Normal termination of Gaussian 16 at Wed Jun  5 17:02:46 2019.
