 Gaussian 16, Revision A.03,
 Gaussian 16:  ES64L-G16RevA.03 25-Dec-2016

 ----------------
 # 6-31g(d) wb97x
 ----------------

 ------------------------
 tmpdir/M2_conf_0_176.gjf
 ------------------------
 Symbolic Z-matrix:
 Charge =  0 Multiplicity = 1

                         Standard orientation:
 ---------------------------------------------------------------------
 Center     Atomic      Atomic             Coordinates (Angstroms)
 Number     Number       Type             X           Y           Z
 ---------------------------------------------------------------------
      1          6           0       -0.699750   -0.002928   -0.002107
      2          6           0        0.695542   -0.006998   -0.000123
      3          1           0        1.261322    0.918924    0.002312
      4          1           0       -1.240724    0.925662    0.004253
      5          1           0       -1.172112   -0.896981    0.005957
      6          1           0        1.176764   -0.888047    0.000856
 ---------------------------------------------------------------------

 SCF Done:  E(RwB97X) =  -78.5421933279     A.U. after   11 cycles

 The electronic state is 1-A.
 Alpha  occ. eigenvalues --  -10.26551 -10.26496  -0.87798  -0.71020  -0.58681
 Alpha  occ. eigenvalues --   -0.50714  -0.47620  -0.35581
 Alpha virt. eigenvalues --    0.09930   0.22418   0.26341   0.27245   0.35163
 Alpha virt. eigenvalues --    0.40613   0.59623   0.66518   0.66681   0.74646
 Alpha virt. eigenvalues --    0.75557   0.77624   1.00397   1.00992   1.08224

 Mulliken charges:
               1
     1  C   -0.334138
     2  C   -0.334286
     3  H    0.163223
     4  H    0.165981
     5  H    0.169638
     6  H    0.169581
 Sum of Mulliken charges =  -0.00000

 Dipole moment (field-independent basis, Debye):
    X=              0.0069    Y=             -0.0445    Z=              0.0130  Tot=              0.0469
 Quadrupole moment (field-independent basis, Debye-Ang):
   XX=            -11.9353   YY=            -11.8463   ZZ=            -15.1065
   XY=             -0.0067   XZ=             -0.0088   YZ=             -0.0003

 Normal termination of Gaussian 16 at Wed Jun  5 17:00:36 2019.
