 Gaussian 16, Revision A.03,
 Gaussian 16:  ES64L-G16RevA.03 25-Dec-2016

 ----------------
 # 6-31g(d) wb97x
 ----------------

 -----------------------
 tmpdir/M2_conf_1_54.gjf
 -----------------------
 Symbolic Z-matrix:
 Charge =  0 Multiplicity = 1

                         Standard orientation:
 ---------------------------------------------------------------------
 Center     Atomic      Atomic             Coordinates (Angstroms)
 Number     Number       Type             X           Y           Z
 ---------------------------------------------------------------------
      1          6           0        1.268806   -0.203551    0.021466
      2          7           0        0.001085    0.493436   -0.158181
      3          6           0       -1.256659   -0.209687    0.016618
      4          1           0        2.110759    0.470715   -0.199670
      5          1           0        1.299643   -1.064466   -0.655289
      6          1           0        1.369314   -0.580967    1.057491
      7          1           0       -0.032600    1.314189    0.445983
      8          1           0       -1.311425   -0.719137    0.999022
      9          1           0       -2.059269    0.540299    0.011949
     10          1           0       -1.456894   -0.935262   -0.780724
 ---------------------------------------------------------------------

 SCF Done:  E(RwB97X) =  -135.117847213     A.U. after   13 cycles

 The electronic state is 1-A.
 Alpha  occ. eigenvalues --  -14.38503 -10.28175 -10.28095  -1.01627  -0.82661
 Alpha  occ. eigenvalues --   -0.73769  -0.59196  -0.54533  -0.53733  -0.49253
 Alpha  occ. eigenvalues --   -0.46887  -0.45673  -0.30431
 Alpha virt. eigenvalues --    0.18014   0.23683   0.24774   0.25326   0.27012
 Alpha virt. eigenvalues --    0.28182   0.28974   0.31419   0.37101   0.60594
 Alpha virt. eigenvalues --    0.65434   0.68552   0.69794   0.70711   0.84631

 Mulliken charges:
               1
     1  C   -0.318890
     2  N   -0.557934
     3  C   -0.321289
     4  H    0.165238
     5  H    0.161481
     6  H    0.125236
     7  H    0.301128
     8  H    0.122939
     9  H    0.160232
    10  H    0.161859
 Sum of Mulliken charges =   0.00000

 Dipole moment (field-independent basis, Debye):
    X=             -0.0170    Y=             -0.0435    Z=              0.9896  Tot=              0.9907
 Quadrupole moment (field-independent basis, Debye-Ang):
   XX=            -19.2742   YY=            -19.8922   ZZ=            -21.6910
   XY=             -0.0474   XZ=             -0.0727   YZ=              1.9610

 Normal termination of Gaussian 16 at Wed Jun  5 17:01:58 2019.
