 Gaussian 16, Revision A.03,
 Gaussian 16:  ES64L-G16RevA.03 25-Dec-2016

 ----------------
 # 6-31g(d) wb97x
 ----------------

 -----------------------
 tmpdir/M2_conf_1_63.gjf
 -----------------------
 Symbolic Z-matrix:
 Charge =  0 Multiplicity = 1

                         Standard orientation:
 ---------------------------------------------------------------------
 Center     Atomic      Atomic             Coordinates (Angstroms)
 Number     Number       Type             X           Y           Z
 ---------------------------------------------------------------------
      1          1           0        1.517853   -0.185085    1.032878
      2          6           0        1.163898   -0.143290   -0.006194
      3          6           0       -0.233434    0.441319   -0.005510
      4          1           0        1.911202    0.481949   -0.599708
      5          1           0        1.125457   -1.190883   -0.364985
      6          1           0       -0.369735    1.441683    0.031957
      7          8           0       -1.220945   -0.291979   -0.003740
 ---------------------------------------------------------------------

 SCF Done:  E(RwB97X) =  -153.775827540     A.U. after   15 cycles

 The electronic state is 1-A.
 Alpha  occ. eigenvalues --  -19.21321 -10.35795 -10.28504  -1.15954  -0.87520
 Alpha  occ. eigenvalues --   -0.72121  -0.58805  -0.54827  -0.53634  -0.50061
 Alpha  occ. eigenvalues --   -0.45757  -0.35622
 Alpha virt. eigenvalues --    0.07007   0.20329   0.23397   0.25397   0.26193
 Alpha virt. eigenvalues --    0.34932   0.37676   0.63303   0.64052   0.70090
 Alpha virt. eigenvalues --    0.70905   0.76792   0.82567   0.85566   0.95037

 Mulliken charges:
               1
     1  H    0.195118
     2  C   -0.562274
     3  C    0.240509
     4  H    0.167455
     5  H    0.201488
     6  H    0.149458
     7  O   -0.391754
 Sum of Mulliken charges =  -0.00000

 Dipole moment (field-independent basis, Debye):
    X=              2.3931    Y=              1.3069    Z=              0.1247  Tot=              2.7296
 Quadrupole moment (field-independent basis, Debye-Ang):
   XX=            -20.7070   YY=            -17.3085   ZZ=            -17.6184
   XY=             -1.1393   XZ=              0.1188   YZ=             -0.0442

 Normal termination of Gaussian 16 at Wed Jun  5 17:02:01 2019.
