 Gaussian 16, Revision A.03,
 Gaussian 16:  ES64L-G16RevA.03 25-Dec-2016

 ----------------
 # 6-31g(d) wb97x
 ----------------

 ------------------------
 tmpdir/M2_conf_1_120.gjf
 ------------------------
 Symbolic Z-matrix:
 Charge =  0 Multiplicity = 1

                         Standard orientation:
 ---------------------------------------------------------------------
 Center     Atomic      Atomic             Coordinates (Angstroms)
 Number     Number       Type             X           Y           Z
 ---------------------------------------------------------------------
      1          6           0       -0.695118   -0.010642   -0.001038
      2          6           0        0.692881   -0.009303   -0.000351
      3          1           0        1.217772    0.943713   -0.000765
      4          1           0       -1.186639   -0.891026    0.000571
      5          1           0       -1.244457    0.928472    0.004745
      6          1           0        1.226742   -0.861486    0.003786
 ---------------------------------------------------------------------

 SCF Done:  E(RwB97X) =  -78.5433666411     A.U. after   12 cycles

 The electronic state is 1-A.
 Alpha  occ. eigenvalues --  -10.26581 -10.26504  -0.87839  -0.71028  -0.58537
 Alpha  occ. eigenvalues --   -0.51031  -0.47260  -0.35718
 Alpha virt. eigenvalues --    0.10062   0.22237   0.26367   0.27117   0.35071
 Alpha virt. eigenvalues --    0.41018   0.59661   0.66153   0.66573   0.74678
 Alpha virt. eigenvalues --    0.75683   0.78009   0.99848   1.00363   1.08629

 Mulliken charges:
               1
     1  C   -0.332624
     2  C   -0.332545
     3  H    0.159861
     4  H    0.169879
     5  H    0.163671
     6  H    0.171759
 Sum of Mulliken charges =  -0.00000

 Dipole moment (field-independent basis, Debye):
    X=              0.0042    Y=             -0.0421    Z=              0.0080  Tot=              0.0431
 Quadrupole moment (field-independent basis, Debye-Ang):
   XX=            -11.8886   YY=            -11.8972   ZZ=            -15.1011
   XY=             -0.0718   XZ=             -0.0028   YZ=             -0.0001

 Normal termination of Gaussian 16 at Wed Jun  5 17:02:12 2019.
