 Gaussian 16, Revision A.03,
 Gaussian 16:  ES64L-G16RevA.03 25-Dec-2016

 ----------------
 # 6-31g(d) wb97x
 ----------------

 -----------------------
 tmpdir/M2_conf_2_12.gjf
 -----------------------
 Symbolic Z-matrix:
 Charge =  0 Multiplicity = 1

                         Standard orientation:
 ---------------------------------------------------------------------
 Center     Atomic      Atomic             Coordinates (Angstroms)
 Number     Number       Type             X           Y           Z
 ---------------------------------------------------------------------
      1          6           0       -0.700471    0.000544    0.011298
      2          7           0        0.738806    0.002008   -0.113750
      3          1           0       -1.130104    0.896653   -0.464019
      4          1           0       -1.096053   -0.897675   -0.477836
      5          1           0       -1.013909   -0.027261    1.074198
      6          1           0        1.146812   -0.833974    0.289304
      7          1           0        1.124442    0.844936    0.306816
 ---------------------------------------------------------------------

 SCF Done:  E(RwB97X) =  -95.8214373538     A.U. after   14 cycles

 The electronic state is 1-A.
 Alpha  occ. eigenvalues --  -14.37919 -10.27967  -0.99729  -0.77309  -0.60328
 Alpha  occ. eigenvalues --   -0.53714  -0.50624  -0.46934  -0.32144
 Alpha virt. eigenvalues --    0.18454   0.24321   0.25427   0.27578   0.29083
 Alpha virt. eigenvalues --    0.34561   0.66141   0.67896   0.69832   0.84890
 Alpha virt. eigenvalues --    0.87220   0.89618   0.97738   1.02648   1.04792

 Mulliken charges:
               1
     1  C   -0.327684
     2  N   -0.739578
     3  H    0.161912
     4  H    0.161745
     5  H    0.126217
     6  H    0.309868
     7  H    0.307520
 Sum of Mulliken charges =   0.00000

 Dipole moment (field-independent basis, Debye):
    X=             -0.1425    Y=             -0.0147    Z=              1.3547  Tot=              1.3622
 Quadrupole moment (field-independent basis, Debye-Ang):
   XX=            -13.6498   YY=            -12.1274   ZZ=            -15.2634
   XY=             -0.0743   XZ=              2.0536   YZ=              0.0220

 Normal termination of Gaussian 16 at Wed Jun  5 17:03:36 2019.
