 Gaussian 16, Revision A.03,
 Gaussian 16:  ES64L-G16RevA.03 25-Dec-2016

 ----------------
 # 6-31g(d) wb97x
 ----------------

 ------------------------
 tmpdir/M2_conf_2_121.gjf
 ------------------------
 Symbolic Z-matrix:
 Charge =  0 Multiplicity = 1

                         Standard orientation:
 ---------------------------------------------------------------------
 Center     Atomic      Atomic             Coordinates (Angstroms)
 Number     Number       Type             X           Y           Z
 ---------------------------------------------------------------------
      1          6           0       -1.422972   -0.463176   -0.000440
      2          6           0       -0.574443    0.635251   -0.001922
      3          6           0        0.807380    0.492310    0.001446
      4          1           0       -1.027634   -1.390742    0.001029
      5          1           0       -2.501840   -0.322756    0.007345
      6          1           0       -1.001207    1.636060   -0.002177
      7          1           0        1.454464    1.371439    0.004301
      8          8           0        1.277054   -0.660039   -0.000625
 ---------------------------------------------------------------------

 SCF Done:  E(RwB97X) =  -191.835791272     A.U. after   15 cycles

 The electronic state is 1-A.
 Alpha  occ. eigenvalues --  -19.20527 -10.35325 -10.29910 -10.28684  -1.15098
 Alpha  occ. eigenvalues --   -0.92189  -0.79769  -0.66636  -0.63173  -0.55420
 Alpha  occ. eigenvalues --   -0.52690  -0.50159  -0.48915  -0.36934  -0.35752
 Alpha virt. eigenvalues --    0.00839   0.17233   0.20238   0.23899   0.26785
 Alpha virt. eigenvalues --    0.30423   0.34585   0.41192   0.46535   0.62002
 Alpha virt. eigenvalues --    0.63127   0.68117   0.68790   0.70612   0.74472

 Mulliken charges:
               1
     1  C   -0.297673
     2  C   -0.190967
     3  C    0.209331
     4  H    0.212631
     5  H    0.182128
     6  H    0.163587
     7  H    0.144306
     8  O   -0.423342
 Sum of Mulliken charges =  -0.00000

 Dipole moment (field-independent basis, Debye):
    X=             -2.0673    Y=              1.8039    Z=              0.0100  Tot=              2.7437
 Quadrupole moment (field-independent basis, Debye-Ang):
   XX=            -23.0724   YY=            -21.8740   ZZ=            -24.3193
   XY=              3.3590   XZ=             -0.0117   YZ=             -0.0031

 Normal termination of Gaussian 16 at Wed Jun  5 17:04:29 2019.
