 Gaussian 16, Revision A.03,
 Gaussian 16:  ES64L-G16RevA.03 25-Dec-2016

 ----------------
 # 6-31g(d) wb97x
 ----------------

 ------------------------
 tmpdir/M2_conf_0_178.gjf
 ------------------------
 Symbolic Z-matrix:
 Charge =  0 Multiplicity = 1

                         Standard orientation:
 ---------------------------------------------------------------------
 Center     Atomic      Atomic             Coordinates (Angstroms)
 Number     Number       Type             X           Y           Z
 ---------------------------------------------------------------------
      1          1           0       -1.230880    1.451661   -0.000464
      2          6           0       -0.688940    0.511585   -0.000842
      3          6           0        0.697859    0.509714   -0.000461
      4          8           0       -1.292189   -0.560436    0.000611
      5          1           0        1.247088    1.446695    0.004635
      6          8           0        1.283473   -0.567833   -0.000155
 ---------------------------------------------------------------------

 SCF Done:  E(RwB97X) =  -227.736411324     A.U. after   14 cycles

 The electronic state is 1-A.
 Alpha  occ. eigenvalues --  -19.25322 -19.25297 -10.37889 -10.37832  -1.21721
 Alpha  occ. eigenvalues --   -1.17282  -0.87870  -0.69271  -0.67202  -0.58081
 Alpha  occ. eigenvalues --   -0.56351  -0.55121  -0.47686  -0.40784  -0.38246
 Alpha virt. eigenvalues --   -0.03595   0.14354   0.20747   0.23895   0.27275
 Alpha virt. eigenvalues --    0.41407   0.49466   0.58875   0.61243   0.67384
 Alpha virt. eigenvalues --    0.69795   0.77740   0.78200   0.86360   0.92801

 Mulliken charges:
               1
     1  H    0.155552
     2  C    0.177150
     3  C    0.176292
     4  O   -0.334263
     5  H    0.157036
     6  O   -0.331767
 Sum of Mulliken charges =  -0.00000

 Dipole moment (field-independent basis, Debye):
    X=              0.0448    Y=              3.6957    Z=             -0.0009  Tot=              3.6959
 Quadrupole moment (field-independent basis, Debye-Ang):
   XX=            -25.3206   YY=            -21.1240   ZZ=            -20.7914
   XY=              0.0347   XZ=              0.0040   YZ=              0.0015

 Normal termination of Gaussian 16 at Wed Jun  5 17:00:52 2019.
