 Gaussian 16, Revision A.03,
 Gaussian 16:  ES64L-G16RevA.03 25-Dec-2016

 ----------------
 # 6-31g(d) wb97x
 ----------------

 ------------------------
 tmpdir/M2_conf_0_153.gjf
 ------------------------
 Symbolic Z-matrix:
 Charge =  0 Multiplicity = 1

                         Standard orientation:
 ---------------------------------------------------------------------
 Center     Atomic      Atomic             Coordinates (Angstroms)
 Number     Number       Type             X           Y           Z
 ---------------------------------------------------------------------
      1          7           0        0.713876   -0.139401   -0.000648
      2          6           0       -0.647949    0.040827   -0.000693
      3          1           0        1.227176    0.652241    0.004601
      4          1           0       -1.249213   -0.867608    0.004044
      5          1           0       -1.087402    0.946210    0.000048
 ---------------------------------------------------------------------

 SCF Done:  E(RwB97X) =  -94.5695970204     A.U. after   13 cycles

 The electronic state is 1-A.
 Alpha  occ. eigenvalues --  -14.40693 -10.32256  -1.00209  -0.76994  -0.61391
 Alpha  occ. eigenvalues --   -0.54022  -0.40801  -0.37007
 Alpha virt. eigenvalues --    0.06263   0.21890   0.24139   0.29408   0.38509
 Alpha virt. eigenvalues --    0.65786   0.66207   0.71224   0.77133   0.83910
 Alpha virt. eigenvalues --    0.87232   0.97276   1.07355   1.08669   1.16203

 Mulliken charges:
               1
     1  N   -0.510514
     2  C   -0.164343
     3  H    0.318570
     4  H    0.181713
     5  H    0.174575
 Sum of Mulliken charges =   0.00000

 Dipole moment (field-independent basis, Debye):
    X=             -1.3436    Y=              1.6985    Z=              0.0100  Tot=              2.1657
 Quadrupole moment (field-independent basis, Debye-Ang):
   XX=            -11.3242   YY=            -12.0772   ZZ=            -13.3944
   XY=              2.1415   XZ=              0.0056   YZ=              0.0007

 Normal termination of Gaussian 16 at Wed Jun  5 17:00:41 2019.
