 Gaussian 16, Revision A.03,
 Gaussian 16:  ES64L-G16RevA.03 25-Dec-2016

 ----------------
 # 6-31g(d) wb97x
 ----------------

 -----------------------
 tmpdir/M2_conf_1_67.gjf
 -----------------------
 Symbolic Z-matrix:
 Charge =  0 Multiplicity = 1

                         Standard orientation:
 ---------------------------------------------------------------------
 Center     Atomic      Atomic             Coordinates (Angstroms)
 Number     Number       Type             X           Y           Z
 ---------------------------------------------------------------------
      1          6           0        1.235004   -0.177261   -0.002590
      2          6           0       -0.115753    0.508083   -0.011357
      3          6           0       -1.302263   -0.225692   -0.002166
      4          1           0        2.024902    0.385427   -0.603494
      5          1           0        1.118738   -1.222648   -0.350877
      6          1           0        1.587469   -0.234838    1.036238
      7          1           0       -0.178445    1.516105    0.014344
      8          1           0       -1.261150   -1.312825   -0.034839
      9          1           0       -2.193444    0.237999    0.035307
 ---------------------------------------------------------------------

 SCF Done:  E(RwB97X) =  -117.849504359     A.U. after   14 cycles

 The electronic state is 1-A.
 Alpha  occ. eigenvalues --  -10.27189 -10.26963 -10.25459  -0.90493  -0.80099
 Alpha  occ. eigenvalues --   -0.68264  -0.57834  -0.51597  -0.51092  -0.46609
 Alpha  occ. eigenvalues --   -0.45891  -0.33687
 Alpha virt. eigenvalues --    0.10524   0.20882   0.23908   0.25154   0.27690
 Alpha virt. eigenvalues --    0.28458   0.30494   0.38381   0.44710   0.61147
 Alpha virt. eigenvalues --    0.63616   0.65264   0.70967   0.73056   0.76151

 Mulliken charges:
               1
     1  C   -0.508649
     2  C   -0.099733
     3  C   -0.364925
     4  H    0.156712
     5  H    0.167092
     6  H    0.175331
     7  H    0.159961
     8  H    0.149483
     9  H    0.164729
 Sum of Mulliken charges =   0.00000

 Dipole moment (field-independent basis, Debye):
    X=              0.2864    Y=              0.1116    Z=              0.1117  Tot=              0.3270
 Quadrupole moment (field-independent basis, Debye-Ang):
   XX=            -18.9140   YY=            -18.4222   ZZ=            -21.4318
   XY=              0.1154   XZ=             -0.0085   YZ=              0.0201

 Normal termination of Gaussian 16 at Wed Jun  5 17:02:06 2019.
