 Gaussian 16, Revision A.03,
 Gaussian 16:  ES64L-G16RevA.03 25-Dec-2016

 ----------------
 # 6-31g(d) wb97x
 ----------------

 ------------------------
 tmpdir/M2_conf_1_139.gjf
 ------------------------
 Symbolic Z-matrix:
 Charge =  0 Multiplicity = 1

                         Standard orientation:
 ---------------------------------------------------------------------
 Center     Atomic      Atomic             Coordinates (Angstroms)
 Number     Number       Type             X           Y           Z
 ---------------------------------------------------------------------
      1          6           0       -0.837242   -0.633429   -0.000835
      2          6           0        0.371642    0.066919   -0.000648
      3          7           0        1.629308   -0.552875    0.001909
      4          8           0       -1.898194   -0.012105    0.003186
      5          1           0       -0.832636   -1.710906   -0.004811
      6          8           0        0.383919    1.311253   -0.004125
      7          1           0        2.429515    0.060589    0.033500
      8          1           0        1.905763   -1.473682   -0.025644
 ---------------------------------------------------------------------

 SCF Done:  E(RwB97X) =  -283.103117574     A.U. after   18 cycles

 The electronic state is 1-A.
 Alpha  occ. eigenvalues --  -19.24803 -19.20096 -14.44927 -10.39540 -10.38056
 Alpha  occ. eigenvalues --   -1.20232  -1.15689  -1.04171  -0.86230  -0.71288
 Alpha  occ. eigenvalues --   -0.67488  -0.63639  -0.56447  -0.56150  -0.53157
 Alpha  occ. eigenvalues --   -0.47767  -0.39384  -0.38031  -0.37322
 Alpha virt. eigenvalues --   -0.00993   0.17086   0.17917   0.22081   0.23801
 Alpha virt. eigenvalues --    0.30160   0.36320   0.44962   0.52083   0.60074
 Alpha virt. eigenvalues --    0.60330   0.71284   0.71721   0.75107   0.78248

 Mulliken charges:
               1
     1  C    0.175731
     2  C    0.547419
     3  N   -0.805018
     4  O   -0.334807
     5  H    0.154509
     6  O   -0.458215
     7  H    0.369694
     8  H    0.350688
 Sum of Mulliken charges =  -0.00000

 Dipole moment (field-independent basis, Debye):
    X=              3.2793    Y=             -4.2503    Z=             -0.0010  Tot=              5.3683
 Quadrupole moment (field-independent basis, Debye-Ang):
   XX=            -26.2410   YY=            -27.8960   ZZ=            -27.8217
   XY=             -1.2394   XZ=              0.0665   YZ=              0.1123

 Normal termination of Gaussian 16 at Wed Jun  5 17:02:48 2019.
