 Gaussian 16, Revision A.03,
 Gaussian 16:  ES64L-G16RevA.03 25-Dec-2016

 ----------------
 # 6-31g(d) wb97x
 ----------------

 ------------------------
 tmpdir/M2_conf_1_143.gjf
 ------------------------
 Symbolic Z-matrix:
 Charge =  0 Multiplicity = 1

                         Standard orientation:
 ---------------------------------------------------------------------
 Center     Atomic      Atomic             Coordinates (Angstroms)
 Number     Number       Type             X           Y           Z
 ---------------------------------------------------------------------
      1          6           0       -0.181828    0.467644   -0.003525
      2          7           0        1.084972   -0.133262    0.000084
      3          1           0        1.104951   -1.141561   -0.024603
      4          1           0       -0.315800    1.470008   -0.010412
      5          8           0       -1.158916   -0.302938    0.003607
      6          1           0        1.978341    0.222028    0.026720
 ---------------------------------------------------------------------

 SCF Done:  E(RwB97X) =  -169.825168372     A.U. after   15 cycles

 The electronic state is 1-A.
 Alpha  occ. eigenvalues --  -19.18145 -14.43082 -10.37616  -1.14619  -1.02089
 Alpha  occ. eigenvalues --   -0.76056  -0.67165  -0.59570  -0.51394  -0.50236
 Alpha  occ. eigenvalues --   -0.36333  -0.35675
 Alpha virt. eigenvalues --    0.10982   0.19016   0.23470   0.26789   0.35393
 Alpha virt. eigenvalues --    0.41992   0.64561   0.64616   0.74825   0.77907
 Alpha virt. eigenvalues --    0.82878   0.84474   0.98747   1.00396   1.02540

 Mulliken charges:
               1
     1  C    0.357281
     2  N   -0.763218
     3  H    0.358016
     4  H    0.167007
     5  O   -0.465598
     6  H    0.346513
 Sum of Mulliken charges =  -0.00000

 Dipole moment (field-independent basis, Debye):
    X=              3.5222    Y=              1.1930    Z=             -0.0087  Tot=              3.7188
 Quadrupole moment (field-independent basis, Debye-Ang):
   XX=            -17.0161   YY=            -14.6039   ZZ=            -18.4153
   XY=             -1.8862   XZ=              0.0714   YZ=              0.0737

 Normal termination of Gaussian 16 at Wed Jun  5 17:02:35 2019.
