 Gaussian 16, Revision A.03,
 Gaussian 16:  ES64L-G16RevA.03 25-Dec-2016

 ----------------
 # 6-31g(d) wb97x
 ----------------

 -----------------------
 tmpdir/M2_conf_0_77.gjf
 -----------------------
 Symbolic Z-matrix:
 Charge =  0 Multiplicity = 1

                         Standard orientation:
 ---------------------------------------------------------------------
 Center     Atomic      Atomic             Coordinates (Angstroms)
 Number     Number       Type             X           Y           Z
 ---------------------------------------------------------------------
      1          6           0        1.410306   -0.467149   -0.000513
      2          6           0        0.583544    0.649365   -0.004648
      3          6           0       -0.803828    0.485658   -0.007640
      4          1           0        1.017178   -1.397820   -0.003449
      5          1           0        2.491657   -0.357510    0.002014
      6          1           0        1.033183    1.639616    0.035687
      7          8           0       -1.271887   -0.650867    0.005064
      8          1           0       -1.507057    1.315399    0.002045
 ---------------------------------------------------------------------

 SCF Done:  E(RwB97X) =  -191.837317235     A.U. after   15 cycles

 The electronic state is 1-A.
 Alpha  occ. eigenvalues --  -19.20332 -10.35122 -10.29861 -10.28861  -1.15811
 Alpha  occ. eigenvalues --   -0.92095  -0.79310  -0.66787  -0.63318  -0.55443
 Alpha  occ. eigenvalues --   -0.52525  -0.50454  -0.49107  -0.37013  -0.35606
 Alpha virt. eigenvalues --    0.01167   0.17266   0.20425   0.24261   0.26471
 Alpha virt. eigenvalues --    0.30377   0.34990   0.41417   0.46148   0.62049
 Alpha virt. eigenvalues --    0.62825   0.68713   0.68816   0.70715   0.74729

 Mulliken charges:
               1
     1  C   -0.298688
     2  C   -0.198172
     3  C    0.207941
     4  H    0.213407
     5  H    0.180145
     6  H    0.168918
     7  O   -0.414348
     8  H    0.140799
 Sum of Mulliken charges =  -0.00000

 Dipole moment (field-independent basis, Debye):
    X=              2.0343    Y=              1.7422    Z=              0.0092  Tot=              2.6784
 Quadrupole moment (field-independent basis, Debye-Ang):
   XX=            -22.9710   YY=            -21.9143   ZZ=            -24.3023
   XY=             -3.2769   XZ=              0.0574   YZ=              0.0623

 Normal termination of Gaussian 16 at Wed Jun  5 16:59:54 2019.
