 Gaussian 16, Revision A.03,
 Gaussian 16:  ES64L-G16RevA.03 25-Dec-2016

 ----------------
 # 6-31g(d) wb97x
 ----------------

 ------------------------
 tmpdir/M2_conf_1_188.gjf
 ------------------------
 Symbolic Z-matrix:
 Charge =  0 Multiplicity = 1

                         Standard orientation:
 ---------------------------------------------------------------------
 Center     Atomic      Atomic             Coordinates (Angstroms)
 Number     Number       Type             X           Y           Z
 ---------------------------------------------------------------------
      1          1           0        1.142353    1.453548    0.001443
      2          6           0        0.630790    0.491956    0.001439
      3          7           0       -0.703467    0.542110   -0.001627
      4          8           0        1.270254   -0.554534   -0.000661
      5          8           0       -1.270607   -0.470474    0.000825
 ---------------------------------------------------------------------

 SCF Done:  E(RwB97X) =  -243.698557737     A.U. after   19 cycles

 The electronic state is 1-A.
 Alpha  occ. eigenvalues --  -19.31998 -19.27165 -14.54020 -10.40648  -1.36735
 Alpha  occ. eigenvalues --   -1.20959  -0.96602  -0.72232  -0.68058  -0.63837
 Alpha  occ. eigenvalues --   -0.62130  -0.55445  -0.51381  -0.42905  -0.35092
 Alpha virt. eigenvalues --   -0.06766   0.11697   0.21813   0.30460   0.38345
 Alpha virt. eigenvalues --    0.49196   0.59301   0.64945   0.71293   0.77906
 Alpha virt. eigenvalues --    0.79348   0.80091   0.84622   0.90362   0.93875

 Mulliken charges:
               1
     1  H    0.182867
     2  C    0.282511
     3  N    0.039565
     4  O   -0.314340
     5  O   -0.190603
 Sum of Mulliken charges =  -0.00000

 Dipole moment (field-independent basis, Debye):
    X=              0.6172    Y=              1.8461    Z=              0.0083  Tot=              1.9466
 Quadrupole moment (field-independent basis, Debye-Ang):
   XX=            -24.5186   YY=            -21.8973   ZZ=            -19.5769
   XY=              2.8098   XZ=             -0.0066   YZ=              0.0143

 Normal termination of Gaussian 16 at Wed Jun  5 17:03:09 2019.
