 Gaussian 16, Revision A.03,
 Gaussian 16:  ES64L-G16RevA.03 25-Dec-2016

 ----------------
 # 6-31g(d) wb97x
 ----------------

 ------------------------
 tmpdir/M2_conf_1_137.gjf
 ------------------------
 Symbolic Z-matrix:
 Charge =  0 Multiplicity = 1

                         Standard orientation:
 ---------------------------------------------------------------------
 Center     Atomic      Atomic             Coordinates (Angstroms)
 Number     Number       Type             X           Y           Z
 ---------------------------------------------------------------------
      1          6           0       -0.182945    0.467967   -0.003528
      2          7           0        1.086808   -0.133247    0.000087
      3          1           0       -0.317622    1.470235   -0.010427
      4          8           0       -1.159489   -0.303298    0.003615
      5          1           0        1.103626   -1.141597   -0.024651
      6          1           0        1.979927    0.222673    0.026714
 ---------------------------------------------------------------------

 SCF Done:  E(RwB97X) =  -169.825049891     A.U. after   15 cycles

 The electronic state is 1-A.
 Alpha  occ. eigenvalues --  -19.18198 -14.43066 -10.37656  -1.14626  -1.02037
 Alpha  occ. eigenvalues --   -0.76025  -0.67135  -0.59545  -0.51436  -0.50213
 Alpha  occ. eigenvalues --   -0.36334  -0.35710
 Alpha virt. eigenvalues --    0.10936   0.19026   0.23502   0.26753   0.35364
 Alpha virt. eigenvalues --    0.41835   0.64584   0.64648   0.74825   0.77899
 Alpha virt. eigenvalues --    0.82898   0.84361   0.98748   1.00395   1.02534

 Mulliken charges:
               1
     1  C    0.357415
     2  N   -0.764315
     3  H    0.167257
     4  O   -0.464834
     5  H    0.357890
     6  H    0.346587
 Sum of Mulliken charges =  -0.00000

 Dipole moment (field-independent basis, Debye):
    X=              3.5061    Y=              1.1976    Z=             -0.0088  Tot=              3.7050
 Quadrupole moment (field-independent basis, Debye-Ang):
   XX=            -17.0218   YY=            -14.6025   ZZ=            -18.4208
   XY=             -1.8799   XZ=              0.0716   YZ=              0.0739

 Normal termination of Gaussian 16 at Wed Jun  5 17:02:24 2019.
