 Gaussian 16, Revision A.03,
 Gaussian 16:  ES64L-G16RevA.03 25-Dec-2016

 ----------------
 # 6-31g(d) wb97x
 ----------------

 -----------------------
 tmpdir/M2_conf_1_41.gjf
 -----------------------
 Symbolic Z-matrix:
 Charge =  0 Multiplicity = 1

                         Standard orientation:
 ---------------------------------------------------------------------
 Center     Atomic      Atomic             Coordinates (Angstroms)
 Number     Number       Type             X           Y           Z
 ---------------------------------------------------------------------
      1          1           0       -1.079458   -0.155872    1.053460
      2          6           0       -0.760751    0.001295    0.003251
      3          6           0        0.760413    0.001064   -0.007094
      4          1           0       -1.182444    0.975954   -0.418630
      5          1           0       -1.145592   -0.835777   -0.591325
      6          1           0        1.131199   -0.925440    0.444824
      7          1           0        1.115591    0.034444   -1.055249
      8          1           0        1.162732    0.892537    0.589979
 ---------------------------------------------------------------------

 SCF Done:  E(RwB97X) =  -79.7969629267     A.U. after   12 cycles

 The electronic state is 1-A.
 Alpha  occ. eigenvalues --  -10.26094 -10.26074  -0.87890  -0.72431  -0.54441
 Alpha  occ. eigenvalues --   -0.54034  -0.46089  -0.43858  -0.43742
 Alpha virt. eigenvalues --    0.19232   0.25127   0.25165   0.25993   0.28197
 Alpha virt. eigenvalues --    0.28318   0.33628   0.61330   0.66021   0.66301
 Alpha virt. eigenvalues --    0.73506   0.75107   0.78893   0.97461   0.98802

 Mulliken charges:
               1
     1  H    0.153486
     2  C   -0.457876
     3  C   -0.457922
     4  H    0.147504
     5  H    0.157157
     6  H    0.157441
     7  H    0.154192
     8  H    0.146019
 Sum of Mulliken charges =   0.00000

 Dipole moment (field-independent basis, Debye):
    X=             -0.0001    Y=             -0.0850    Z=             -0.0031  Tot=              0.0851
 Quadrupole moment (field-independent basis, Debye-Ang):
   XX=            -15.7203   YY=            -14.6692   ZZ=            -14.6753
   XY=             -0.0203   XZ=              0.1065   YZ=             -0.0106

 Normal termination of Gaussian 16 at Wed Jun  5 17:01:29 2019.
