 Gaussian 16, Revision A.03,
 Gaussian 16:  ES64L-G16RevA.03 25-Dec-2016

 ----------------
 # 6-31g(d) wb97x
 ----------------

 -----------------------
 tmpdir/M2_conf_0_62.gjf
 -----------------------
 Symbolic Z-matrix:
 Charge =  0 Multiplicity = 1

                         Standard orientation:
 ---------------------------------------------------------------------
 Center     Atomic      Atomic             Coordinates (Angstroms)
 Number     Number       Type             X           Y           Z
 ---------------------------------------------------------------------
      1          1           0        1.105966   -1.187458   -0.368494
      2          6           0        1.164227   -0.142194   -0.005599
      3          6           0       -0.233295    0.441978   -0.004834
      4          1           0        1.916055    0.473671   -0.603197
      5          1           0        1.526816   -0.194165    1.030031
      6          1           0       -0.369910    1.442278    0.033120
      7          8           0       -1.220565   -0.291629   -0.003608
 ---------------------------------------------------------------------

 SCF Done:  E(RwB97X) =  -153.775811388     A.U. after   15 cycles

 The electronic state is 1-A.
 Alpha  occ. eigenvalues --  -19.21353 -10.35804 -10.28490  -1.15980  -0.87501
 Alpha  occ. eigenvalues --   -0.72125  -0.58867  -0.54815  -0.53581  -0.50043
 Alpha  occ. eigenvalues --   -0.45777  -0.35654
 Alpha virt. eigenvalues --    0.06965   0.20365   0.23467   0.25402   0.26180
 Alpha virt. eigenvalues --    0.34932   0.37701   0.63267   0.64038   0.70098
 Alpha virt. eigenvalues --    0.71044   0.76769   0.82543   0.85383   0.95001

 Mulliken charges:
               1
     1  H    0.201028
     2  C   -0.563095
     3  C    0.240590
     4  H    0.168006
     5  H    0.195581
     6  H    0.149306
     7  O   -0.391416
 Sum of Mulliken charges =   0.00000

 Dipole moment (field-independent basis, Debye):
    X=              2.3894    Y=              1.3049    Z=              0.1224  Tot=              2.7252
 Quadrupole moment (field-independent basis, Debye-Ang):
   XX=            -20.6855   YY=            -17.3309   ZZ=            -17.6154
   XY=             -1.1214   XZ=              0.1252   YZ=             -0.0496

 Normal termination of Gaussian 16 at Wed Jun  5 16:59:48 2019.
