 Gaussian 16, Revision A.03,
 Gaussian 16:  ES64L-G16RevA.03 25-Dec-2016

 ----------------
 # 6-31g(d) wb97x
 ----------------

 ------------------------
 tmpdir/M2_conf_1_163.gjf
 ------------------------
 Symbolic Z-matrix:
 Charge =  0 Multiplicity = 1

                         Standard orientation:
 ---------------------------------------------------------------------
 Center     Atomic      Atomic             Coordinates (Angstroms)
 Number     Number       Type             X           Y           Z
 ---------------------------------------------------------------------
      1          6           0       -0.752300    0.502727   -0.003736
      2          6           0        0.628200    0.666637   -0.000950
      3          6           0        1.380163   -0.505960   -0.002014
      4          8           0       -1.321415   -0.630806    0.002355
      5          1           0       -1.413684    1.368378   -0.005920
      6          1           0        1.076451    1.652754    0.023852
      7          1           0        0.917322   -1.452165    0.009220
      8          1           0        2.454852   -0.502938   -0.005790
 ---------------------------------------------------------------------

 SCF Done:  E(RwB97X) =  -191.837386529     A.U. after   16 cycles

 The electronic state is 1-A.
 Alpha  occ. eigenvalues --  -19.20202 -10.35285 -10.30724 -10.29332  -1.13484
 Alpha  occ. eigenvalues --   -0.92663  -0.79555  -0.66634  -0.63173  -0.55341
 Alpha  occ. eigenvalues --   -0.51766  -0.49450  -0.49218  -0.37020  -0.35399
 Alpha virt. eigenvalues --    0.00573   0.16711   0.20321   0.23614   0.26560
 Alpha virt. eigenvalues --    0.29618   0.34489   0.41285   0.45483   0.62108
 Alpha virt. eigenvalues --    0.62820   0.68617   0.68892   0.70444   0.74409

 Mulliken charges:
               1
     1  C    0.204356
     2  C   -0.192295
     3  C   -0.300201
     4  O   -0.438706
     5  H    0.140865
     6  H    0.182015
     7  H    0.221354
     8  H    0.182613
 Sum of Mulliken charges =  -0.00000

 Dipole moment (field-independent basis, Debye):
    X=              2.4384    Y=              1.7200    Z=              0.0116  Tot=              2.9840
 Quadrupole moment (field-independent basis, Debye-Ang):
   XX=            -23.6284   YY=            -21.4465   ZZ=            -24.3947
   XY=             -3.2561   XZ=              0.0321   YZ=              0.0267

 Normal termination of Gaussian 16 at Wed Jun  5 17:02:52 2019.
