 Gaussian 16, Revision A.03,
 Gaussian 16:  ES64L-G16RevA.03 25-Dec-2016

 ----------------
 # 6-31g(d) wb97x
 ----------------

 ------------------------
 tmpdir/M2_conf_1_189.gjf
 ------------------------
 Symbolic Z-matrix:
 Charge =  0 Multiplicity = 1

                         Standard orientation:
 ---------------------------------------------------------------------
 Center     Atomic      Atomic             Coordinates (Angstroms)
 Number     Number       Type             X           Y           Z
 ---------------------------------------------------------------------
      1          7           0        0.691377   -0.136576   -0.001195
      2          6           0       -0.627244    0.041559   -0.002983
      3          1           0        1.224827    0.631102    0.010689
      4          1           0       -1.078241    0.946592    0.003534
      5          1           0       -1.222766   -0.871014    0.012043
 ---------------------------------------------------------------------

 SCF Done:  E(RwB97X) =  -94.5762323831     A.U. after   14 cycles

 The electronic state is 1-A.
 Alpha  occ. eigenvalues --  -14.40048 -10.31705  -1.01405  -0.76711  -0.62033
 Alpha  occ. eigenvalues --   -0.54258  -0.41690  -0.36508
 Alpha virt. eigenvalues --    0.07314   0.22075   0.24422   0.29608   0.39712
 Alpha virt. eigenvalues --    0.65549   0.68113   0.71824   0.77411   0.84305
 Alpha virt. eigenvalues --    0.87409   0.97085   1.07208   1.09190   1.18092

 Mulliken charges:
               1
     1  N   -0.504858
     2  C   -0.157176
     3  H    0.318130
     4  H    0.168254
     5  H    0.175649
 Sum of Mulliken charges =  -0.00000

 Dipole moment (field-independent basis, Debye):
    X=             -1.2288    Y=              1.6878    Z=              0.0266  Tot=              2.0879
 Quadrupole moment (field-independent basis, Debye-Ang):
   XX=            -11.3273   YY=            -12.1054   ZZ=            -13.2785
   XY=              2.0819   XZ=              0.0084   YZ=              0.0021

 Normal termination of Gaussian 16 at Wed Jun  5 17:03:13 2019.
