 Gaussian 16, Revision A.03,
 Gaussian 16:  ES64L-G16RevA.03 25-Dec-2016

 ----------------
 # 6-31g(d) wb97x
 ----------------

 -----------------------
 tmpdir/M2_conf_2_66.gjf
 -----------------------
 Symbolic Z-matrix:
 Charge =  0 Multiplicity = 1

                         Standard orientation:
 ---------------------------------------------------------------------
 Center     Atomic      Atomic             Coordinates (Angstroms)
 Number     Number       Type             X           Y           Z
 ---------------------------------------------------------------------
      1          6           0       -1.708570   -0.540704    0.002731
      2          6           0       -0.357040    0.142763   -0.020808
      3          6           0        0.800007   -0.637655   -0.007791
      4          1           0       -1.731393   -1.505676   -0.605507
      5          1           0       -2.487526    0.174233   -0.328555
      6          1           0       -1.948139   -0.798775    1.043267
      7          8           0       -0.273487    1.369815   -0.004338
      8          1           0        0.699619   -1.719843   -0.020101
      9          8           0        1.906118   -0.111861    0.012601
 ---------------------------------------------------------------------

 SCF Done:  E(RwB97X) =  -267.055469500     A.U. after   17 cycles

 The electronic state is 1-A.
 Alpha  occ. eigenvalues --  -19.24899 -19.23593 -10.37681 -10.37431 -10.29969
 Alpha  occ. eigenvalues --   -1.20872  -1.16716  -0.91620  -0.82171  -0.67610
 Alpha  occ. eigenvalues --   -0.61924  -0.58497  -0.58330  -0.53518  -0.52202
 Alpha  occ. eigenvalues --   -0.51763  -0.46112  -0.40182  -0.36949
 Alpha virt. eigenvalues --   -0.02477   0.14083   0.18106   0.22570   0.23165
 Alpha virt. eigenvalues --    0.25991   0.31214   0.32041   0.44046   0.49696
 Alpha virt. eigenvalues --    0.58861   0.60114   0.66955   0.67559   0.73196

 Mulliken charges:
               1
     1  C   -0.584357
     2  C    0.399946
     3  C    0.167635
     4  H    0.173483
     5  H    0.213328
     6  H    0.204545
     7  O   -0.388139
     8  H    0.149141
     9  O   -0.335583
 Sum of Mulliken charges =  -0.00000

 Dipole moment (field-independent basis, Debye):
    X=             -2.6004    Y=             -3.2226    Z=              0.0631  Tot=              4.1414
 Quadrupole moment (field-independent basis, Debye-Ang):
   XX=            -31.5295   YY=            -30.2104   ZZ=            -27.0223
   XY=              0.1868   XZ=             -0.2763   YZ=             -0.0176

 Normal termination of Gaussian 16 at Wed Jun  5 17:04:03 2019.
