 Gaussian 16, Revision A.03,
 Gaussian 16:  ES64L-G16RevA.03 25-Dec-2016

 ----------------
 # 6-31g(d) wb97x
 ----------------

 ------------------------
 tmpdir/M2_conf_1_133.gjf
 ------------------------
 Symbolic Z-matrix:
 Charge =  0 Multiplicity = 1

                         Standard orientation:
 ---------------------------------------------------------------------
 Center     Atomic      Atomic             Coordinates (Angstroms)
 Number     Number       Type             X           Y           Z
 ---------------------------------------------------------------------
      1          6           0       -0.227165    0.437365    0.000142
      2          6           0        1.165469   -0.141112   -0.000135
      3          1           0        1.345476   -0.753794    0.893444
      4          1           0       -0.365251    1.433435   -0.000694
      5          8           0       -1.234251   -0.293598   -0.000449
      6          1           0        1.911820    0.657924   -0.005949
      7          1           0        1.352141   -0.766303   -0.883253
 ---------------------------------------------------------------------

 SCF Done:  E(RwB97X) =  -153.774398838     A.U. after   14 cycles

 The electronic state is 1-A.
 Alpha  occ. eigenvalues --  -19.21268 -10.35847 -10.28026  -1.15114  -0.88049
 Alpha  occ. eigenvalues --   -0.72355  -0.58887  -0.55099  -0.53932  -0.49855
 Alpha  occ. eigenvalues --   -0.45449  -0.35634
 Alpha virt. eigenvalues --    0.06213   0.20861   0.22522   0.27187   0.28256
 Alpha virt. eigenvalues --    0.34902   0.36637   0.63239   0.63509   0.67911
 Alpha virt. eigenvalues --    0.72109   0.75813   0.83130   0.87395   0.96240

 Mulliken charges:
               1
     1  C    0.225375
     2  C   -0.561005
     3  H    0.205608
     4  H    0.155591
     5  O   -0.396733
     6  H    0.165241
     7  H    0.205923
 Sum of Mulliken charges =  -0.00000

 Dipole moment (field-independent basis, Debye):
    X=              2.5021    Y=              1.2396    Z=              0.0025  Tot=              2.7923
 Quadrupole moment (field-independent basis, Debye-Ang):
   XX=            -20.6941   YY=            -17.3362   ZZ=            -17.4465
   XY=             -1.3881   XZ=             -0.0088   YZ=             -0.0014

 Normal termination of Gaussian 16 at Wed Jun  5 17:02:34 2019.
