 Gaussian 16, Revision A.03,
 Gaussian 16:  ES64L-G16RevA.03 25-Dec-2016

 ----------------
 # 6-31g(d) wb97x
 ----------------

 ------------------------
 tmpdir/M2_conf_0_157.gjf
 ------------------------
 Symbolic Z-matrix:
 Charge =  0 Multiplicity = 1

                         Standard orientation:
 ---------------------------------------------------------------------
 Center     Atomic      Atomic             Coordinates (Angstroms)
 Number     Number       Type             X           Y           Z
 ---------------------------------------------------------------------
      1          7           0        0.689201   -0.141453   -0.000644
      2          6           0       -0.623160    0.041848   -0.000694
      3          1           0       -1.237549   -0.857760    0.004040
      4          1           0        1.208183    0.646467    0.004592
      5          1           0       -1.056085    0.950373    0.000035
 ---------------------------------------------------------------------

 SCF Done:  E(RwB97X) =  -94.5786200941     A.U. after   14 cycles

 The electronic state is 1-A.
 Alpha  occ. eigenvalues --  -14.40123 -10.31544  -1.01619  -0.76511  -0.62060
 Alpha  occ. eigenvalues --   -0.54213  -0.41842  -0.36696
 Alpha virt. eigenvalues --    0.07461   0.21894   0.24361   0.29864   0.39789
 Alpha virt. eigenvalues --    0.65495   0.68184   0.72229   0.77227   0.84303
 Alpha virt. eigenvalues --    0.87419   0.97143   1.07135   1.09079   1.16952

 Mulliken charges:
               1
     1  N   -0.501353
     2  C   -0.157566
     3  H    0.174884
     4  H    0.316467
     5  H    0.167568
 Sum of Mulliken charges =  -0.00000

 Dipole moment (field-independent basis, Debye):
    X=             -1.2513    Y=              1.7066    Z=              0.0097  Tot=              2.1162
 Quadrupole moment (field-independent basis, Debye-Ang):
   XX=            -11.4245   YY=            -12.0793   ZZ=            -13.2699
   XY=              2.1013   XZ=              0.0056   YZ=              0.0009

 Normal termination of Gaussian 16 at Wed Jun  5 17:00:31 2019.
