 Gaussian 16, Revision A.03,
 Gaussian 16:  ES64L-G16RevA.03 25-Dec-2016

 ----------------
 # 6-31g(d) wb97x
 ----------------

 ------------------------
 tmpdir/M2_conf_2_101.gjf
 ------------------------
 Symbolic Z-matrix:
 Charge =  0 Multiplicity = 1

                         Standard orientation:
 ---------------------------------------------------------------------
 Center     Atomic      Atomic             Coordinates (Angstroms)
 Number     Number       Type             X           Y           Z
 ---------------------------------------------------------------------
      1          6           0       -1.249000    0.295199   -0.059605
      2          7           0       -0.032325    0.924281   -0.065695
      3          6           0        1.238105    0.332674    0.125417
      4          1           0       -2.104480    0.951225   -0.204050
      5          8           0       -1.396249   -0.905849    0.108823
      6          1           0       -0.056581    1.931937   -0.019666
      7          8           0        1.455119   -0.850410   -0.129342
      8          1           0        1.981743    0.929708    0.452869
 ---------------------------------------------------------------------

 SCF Done:  E(RwB97X) =  -283.127705200     A.U. after   17 cycles

 The electronic state is 1-A.
 Alpha  occ. eigenvalues --  -19.21866 -19.20806 -14.47903 -10.39895 -10.39674
 Alpha  occ. eigenvalues --   -1.19402  -1.16298  -1.07340  -0.83236  -0.71217
 Alpha  occ. eigenvalues --   -0.70414  -0.62323  -0.56409  -0.54928  -0.53269
 Alpha  occ. eigenvalues --   -0.48803  -0.40150  -0.39217  -0.35853
 Alpha virt. eigenvalues --    0.04780   0.13338   0.15734   0.22330   0.24422
 Alpha virt. eigenvalues --    0.32700   0.34183   0.40140   0.44523   0.59488
 Alpha virt. eigenvalues --    0.60957   0.65181   0.69800   0.72958   0.74954

 Mulliken charges:
               1
     1  C    0.339309
     2  N   -0.598878
     3  C    0.349260
     4  H    0.152431
     5  O   -0.390844
     6  H    0.352606
     7  O   -0.375166
     8  H    0.171281
 Sum of Mulliken charges =  -0.00000

 Dipole moment (field-independent basis, Debye):
    X=              0.1179    Y=              5.8266    Z=              0.3707  Tot=              5.8395
 Quadrupole moment (field-independent basis, Debye-Ang):
   XX=            -27.9023   YY=            -26.5072   ZZ=            -27.7123
   XY=             -0.0325   XZ=              1.5186   YZ=              0.2634

 Normal termination of Gaussian 16 at Wed Jun  5 17:04:12 2019.
