 Gaussian 16, Revision A.03,
 Gaussian 16:  ES64L-G16RevA.03 25-Dec-2016

 ----------------
 # 6-31g(d) wb97x
 ----------------

 ------------------------
 tmpdir/M2_conf_0_148.gjf
 ------------------------
 Symbolic Z-matrix:
 Charge =  0 Multiplicity = 1

                         Standard orientation:
 ---------------------------------------------------------------------
 Center     Atomic      Atomic             Coordinates (Angstroms)
 Number     Number       Type             X           Y           Z
 ---------------------------------------------------------------------
      1          7           0        1.150714   -0.171915   -0.000605
      2          6           0       -0.103532    0.388124   -0.001811
      3          7           0       -1.234780   -0.312411    0.001422
      4          1           0        1.468030   -1.100913   -0.001869
      5          1           0        1.862171    0.543229    0.008398
      6          1           0       -0.082250    1.447108    0.000170
      7          1           0       -2.038295    0.172119   -0.001551
 ---------------------------------------------------------------------

 SCF Done:  E(RwB97X) =  -149.936194893     A.U. after   15 cycles

 The electronic state is 1-A.
 Alpha  occ. eigenvalues --  -14.42583 -14.35074 -10.34228  -1.05819  -0.95878
 Alpha  occ. eigenvalues --   -0.74839  -0.65870  -0.58552  -0.54955  -0.46727
 Alpha  occ. eigenvalues --   -0.34045  -0.32033
 Alpha virt. eigenvalues --    0.13033   0.18087   0.21461   0.26591   0.29609
 Alpha virt. eigenvalues --    0.40711   0.45811   0.67130   0.67180   0.72342
 Alpha virt. eigenvalues --    0.75110   0.80164   0.84145   0.87609   0.91226

 Mulliken charges:
               1
     1  N   -0.731297
     2  C    0.193674
     3  N   -0.618124
     4  H    0.365069
     5  H    0.338288
     6  H    0.148880
     7  H    0.303510
 Sum of Mulliken charges =  -0.00000

 Dipole moment (field-independent basis, Debye):
    X=              2.3800    Y=              1.9586    Z=              0.0045  Tot=              3.0823
 Quadrupole moment (field-independent basis, Debye-Ang):
   XX=            -13.8442   YY=            -16.7891   ZZ=            -20.3622
   XY=             -2.9225   XZ=              0.0383   YZ=              0.0175

 Normal termination of Gaussian 16 at Wed Jun  5 17:00:33 2019.
