 Gaussian 16, Revision A.03,
 Gaussian 16:  ES64L-G16RevA.03 25-Dec-2016

 ----------------
 # 6-31g(d) wb97x
 ----------------

 -----------------------
 tmpdir/M2_conf_1_79.gjf
 -----------------------
 Symbolic Z-matrix:
 Charge =  0 Multiplicity = 1

                         Standard orientation:
 ---------------------------------------------------------------------
 Center     Atomic      Atomic             Coordinates (Angstroms)
 Number     Number       Type             X           Y           Z
 ---------------------------------------------------------------------
      1          6           0        0.549208   -0.014562   -0.000154
      2          1           0        1.101062    0.921239    0.000309
      3          8           0       -0.680606    0.006652    0.000035
      4          1           0        1.048536   -0.887084    0.000339
 ---------------------------------------------------------------------

 SCF Done:  E(RwB97X) =  -114.458054673     A.U. after   13 cycles

 The electronic state is 1-A.
 Alpha  occ. eigenvalues --  -19.23060 -10.35955  -1.16890  -0.77445  -0.62102
 Alpha  occ. eigenvalues --   -0.54974  -0.49414  -0.36910
 Alpha virt. eigenvalues --    0.05470   0.21877   0.29714   0.31591   0.62182
 Alpha virt. eigenvalues --    0.70694   0.74144   0.78274   0.96446   0.97738
 Alpha virt. eigenvalues --    1.06279   1.07886   1.17780   1.48269   1.60795

 Mulliken charges:
               1
     1  C    0.055238
     2  H    0.138635
     3  O   -0.351629
     4  H    0.157756
 Sum of Mulliken charges =   0.00000

 Dipole moment (field-independent basis, Debye):
    X=              2.4639    Y=             -0.1067    Z=              0.0001  Tot=              2.4662
 Quadrupole moment (field-independent basis, Debye-Ang):
   XX=            -11.7509   YY=            -11.2587   ZZ=            -11.3448
   XY=             -0.0681   XZ=              0.0003   YZ=              0.0000

 Normal termination of Gaussian 16 at Wed Jun  5 17:02:13 2019.
