 Gaussian 16, Revision A.03,
 Gaussian 16:  ES64L-G16RevA.03 25-Dec-2016

 ----------------
 # 6-31g(d) wb97x
 ----------------

 ------------------------
 tmpdir/M2_conf_1_167.gjf
 ------------------------
 Symbolic Z-matrix:
 Charge =  0 Multiplicity = 1

                         Standard orientation:
 ---------------------------------------------------------------------
 Center     Atomic      Atomic             Coordinates (Angstroms)
 Number     Number       Type             X           Y           Z
 ---------------------------------------------------------------------
      1          7           0        0.753694   -0.768238    0.079684
      2          6           0        0.077445    0.387670    0.030373
      3          6           0       -1.401220    0.307272    0.137324
      4          8           0        1.908712   -0.709374   -0.004801
      5          8           0        0.658781    1.460776   -0.106478
      6          8           0       -1.989388   -0.736725   -0.140680
      7          1           0       -1.958055    1.090603    0.451700
 ---------------------------------------------------------------------

 SCF Done:  E(RwB97X) =  -356.908385375     A.U. after   31 cycles

 The electronic state is 1-A.
 Alpha  occ. eigenvalues --  -19.37115 -19.26643 -19.23504 -14.58654 -10.42762
 Alpha  occ. eigenvalues --  -10.40074  -1.40425  -1.21581  -1.19286  -0.98379
 Alpha  occ. eigenvalues --   -0.83269  -0.73405  -0.69513  -0.66950  -0.63138
 Alpha  occ. eigenvalues --   -0.59822  -0.56421  -0.55013  -0.49452  -0.43724
 Alpha  occ. eigenvalues --   -0.39209  -0.33556
 Alpha virt. eigenvalues --   -0.12437  -0.00610   0.14153   0.23162   0.29065
 Alpha virt. eigenvalues --    0.33903   0.38846   0.46234   0.47748   0.59016
 Alpha virt. eigenvalues --    0.62937   0.67210   0.69779   0.70858   0.74918

 Mulliken charges:
               1
     1  N    0.021737
     2  C    0.467178
     3  C    0.200974
     4  O   -0.090342
     5  O   -0.449510
     6  O   -0.355920
     7  H    0.205883
 Sum of Mulliken charges =  -0.00000

 Dipole moment (field-independent basis, Debye):
    X=             -0.5836    Y=             -0.2885    Z=              0.8732  Tot=              1.0892
 Quadrupole moment (field-independent basis, Debye-Ang):
   XX=            -34.2130   YY=            -34.3769   ZZ=            -30.9987
   XY=             -6.1128   XZ=             -0.9925   YZ=              0.1439

 Normal termination of Gaussian 16 at Wed Jun  5 17:03:13 2019.
