 Gaussian 16, Revision A.03,
 Gaussian 16:  ES64L-G16RevA.03 25-Dec-2016

 ----------------
 # 6-31g(d) wb97x
 ----------------

 ------------------------
 tmpdir/M2_conf_0_170.gjf
 ------------------------
 Symbolic Z-matrix:
 Charge =  0 Multiplicity = 1

                         Standard orientation:
 ---------------------------------------------------------------------
 Center     Atomic      Atomic             Coordinates (Angstroms)
 Number     Number       Type             X           Y           Z
 ---------------------------------------------------------------------
      1          6           0        0.745691    0.476603   -0.006093
      2          6           0       -0.653573    0.501843   -0.001386
      3          1           0        1.330457    1.378270   -0.001516
      4          6           0        1.371503   -0.770432    0.004938
      5          6           0       -1.487433   -0.679628   -0.001735
      6          1           0       -1.187591    1.451413    0.027173
 ---------------------------------------------------------------------

 SCF Done:  E(RwB97X) =  -153.239353060     A.U. after   20 cycles

 The electronic state is 1-A.
 Alpha  occ. eigenvalues --  -10.36968 -10.36496 -10.31815 -10.31156  -0.97310
 Alpha  occ. eigenvalues --   -0.84052  -0.71890  -0.60835  -0.59127  -0.46225
 Alpha  occ. eigenvalues --   -0.42494  -0.40145  -0.32896
 Alpha virt. eigenvalues --   -0.03279   0.00200   0.02030   0.16158   0.21085
 Alpha virt. eigenvalues --    0.25018   0.33826   0.45455   0.46802   0.58972
 Alpha virt. eigenvalues --    0.61086   0.62392   0.66140   0.66622   0.69170

 Mulliken charges:
               1
     1  C   -0.253996
     2  C   -0.293503
     3  H    0.234222
     4  C    0.037721
     5  C    0.044004
     6  H    0.231552
 Sum of Mulliken charges =  -0.00000

 Dipole moment (field-independent basis, Debye):
    X=              0.3536    Y=              3.3078    Z=              0.0247  Tot=              3.3268
 Quadrupole moment (field-independent basis, Debye-Ang):
   XX=            -24.3997   YY=            -23.3723   ZZ=            -25.6088
   XY=              0.0035   XZ=             -0.0872   YZ=              0.0727

 Normal termination of Gaussian 16 at Wed Jun  5 17:00:33 2019.
