 Gaussian 16, Revision A.03,
 Gaussian 16:  ES64L-G16RevA.03 25-Dec-2016

 ----------------
 # 6-31g(d) wb97x
 ----------------

 ------------------------
 tmpdir/M2_conf_2_194.gjf
 ------------------------
 Symbolic Z-matrix:
 Charge =  0 Multiplicity = 1

                         Standard orientation:
 ---------------------------------------------------------------------
 Center     Atomic      Atomic             Coordinates (Angstroms)
 Number     Number       Type             X           Y           Z
 ---------------------------------------------------------------------
      1          7           0        0.691908   -0.136465   -0.001197
      2          6           0       -0.627936    0.041576   -0.002983
      3          1           0       -1.221845   -0.872043    0.012044
      4          1           0        1.225211    0.631317    0.010691
      5          1           0       -1.079107    0.946526    0.003543
 ---------------------------------------------------------------------

 SCF Done:  E(RwB97X) =  -94.5760338902     A.U. after   14 cycles

 The electronic state is 1-A.
 Alpha  occ. eigenvalues --  -14.40060 -10.31721  -1.01369  -0.76719  -0.62021
 Alpha  occ. eigenvalues --   -0.54247  -0.41663  -0.36516
 Alpha virt. eigenvalues --    0.07285   0.22071   0.24424   0.29591   0.39683
 Alpha virt. eigenvalues --    0.65557   0.68057   0.71815   0.77410   0.84299
 Alpha virt. eigenvalues --    0.87405   0.97088   1.07207   1.09173   1.18090

 Mulliken charges:
               1
     1  N   -0.505113
     2  C   -0.157393
     3  H    0.175877
     4  H    0.318135
     5  H    0.168493
 Sum of Mulliken charges =   0.00000

 Dipole moment (field-independent basis, Debye):
    X=             -1.2310    Y=              1.6874    Z=              0.0266  Tot=              2.0889
 Quadrupole moment (field-independent basis, Debye-Ang):
   XX=            -11.3275   YY=            -12.1027   ZZ=            -13.2817
   XY=              2.0817   XZ=              0.0084   YZ=              0.0021

 Normal termination of Gaussian 16 at Wed Jun  5 17:05:24 2019.
