 Gaussian 16, Revision A.03,
 Gaussian 16:  ES64L-G16RevA.03 25-Dec-2016

 ----------------
 # 6-31g(d) wb97x
 ----------------

 -----------------------
 tmpdir/M2_conf_2_72.gjf
 -----------------------
 Symbolic Z-matrix:
 Charge =  0 Multiplicity = 1

                         Standard orientation:
 ---------------------------------------------------------------------
 Center     Atomic      Atomic             Coordinates (Angstroms)
 Number     Number       Type             X           Y           Z
 ---------------------------------------------------------------------
      1          6           0        0.809097    0.482741   -0.004431
      2          6           0       -0.578015    0.637329   -0.003320
      3          6           0       -1.424520   -0.464300   -0.003606
      4          1           0        1.465872    1.360090    0.030619
      5          8           0        1.278835   -0.654016    0.001279
      6          1           0       -0.990992    1.642709   -0.006206
      7          1           0       -2.500244   -0.303732    0.034318
      8          1           0       -1.044691   -1.401559   -0.000821
 ---------------------------------------------------------------------

 SCF Done:  E(RwB97X) =  -191.837872369     A.U. after   15 cycles

 The electronic state is 1-A.
 Alpha  occ. eigenvalues --  -19.20532 -10.35232 -10.29933 -10.28717  -1.15821
 Alpha  occ. eigenvalues --   -0.92104  -0.79542  -0.66525  -0.63158  -0.55594
 Alpha  occ. eigenvalues --   -0.52500  -0.50477  -0.49197  -0.37022  -0.35714
 Alpha virt. eigenvalues --    0.01071   0.17312   0.20271   0.23855   0.26700
 Alpha virt. eigenvalues --    0.30428   0.34921   0.41050   0.46199   0.61998
 Alpha virt. eigenvalues --    0.63362   0.68208   0.68775   0.70786   0.74508

 Mulliken charges:
               1
     1  C    0.210272
     2  C   -0.192528
     3  C   -0.299823
     4  H    0.138389
     5  O   -0.414728
     6  H    0.164990
     7  H    0.180511
     8  H    0.212916
 Sum of Mulliken charges =  -0.00000

 Dipole moment (field-independent basis, Debye):
    X=             -2.0416    Y=              1.7566    Z=              0.0223  Tot=              2.6934
 Quadrupole moment (field-independent basis, Debye-Ang):
   XX=            -23.1305   YY=            -21.8701   ZZ=            -24.3143
   XY=              3.2564   XZ=             -0.0618   YZ=             -0.0027

 Normal termination of Gaussian 16 at Wed Jun  5 17:04:08 2019.
