 Gaussian 16, Revision A.03,
 Gaussian 16:  ES64L-G16RevA.03 25-Dec-2016

 ----------------
 # 6-31g(d) wb97x
 ----------------

 -----------------------
 tmpdir/M2_conf_0_99.gjf
 -----------------------
 Symbolic Z-matrix:
 Charge =  0 Multiplicity = 1

                         Standard orientation:
 ---------------------------------------------------------------------
 Center     Atomic      Atomic             Coordinates (Angstroms)
 Number     Number       Type             X           Y           Z
 ---------------------------------------------------------------------
      1          7           0       -1.079831   -0.168300   -0.023192
      2          6           0        0.161876    0.404882    0.036087
      3          1           0       -1.331651   -1.061720    0.218164
      4          1           0       -1.839198    0.480430   -0.166710
      5          8           0        1.194232   -0.260007   -0.025872
      6          1           0        0.204548    1.410160    0.101347
 ---------------------------------------------------------------------

 SCF Done:  E(RwB97X) =  -169.827393864     A.U. after   15 cycles

 The electronic state is 1-A.
 Alpha  occ. eigenvalues --  -19.17918 -14.43304 -10.36726  -1.15039  -1.03551
 Alpha  occ. eigenvalues --   -0.76515  -0.65864  -0.62066  -0.51845  -0.49941
 Alpha  occ. eigenvalues --   -0.36869  -0.35395
 Alpha virt. eigenvalues --    0.11575   0.18203   0.22586   0.28935   0.36509
 Alpha virt. eigenvalues --    0.44260   0.64367   0.66263   0.75162   0.78375
 Alpha virt. eigenvalues --    0.81151   0.83344   0.97529   0.99650   1.02574

 Mulliken charges:
               1
     1  N   -0.739984
     2  C    0.339516
     3  H    0.366591
     4  H    0.339802
     5  O   -0.453123
     6  H    0.147198
 Sum of Mulliken charges =  -0.00000

 Dipole moment (field-independent basis, Debye):
    X=             -3.8033    Y=              1.1903    Z=              0.3696  Tot=              4.0023
 Quadrupole moment (field-independent basis, Debye-Ang):
   XX=            -17.3145   YY=            -14.8003   ZZ=            -18.1401
   XY=              1.3394   XZ=             -0.0439   YZ=             -0.7108

 Normal termination of Gaussian 16 at Wed Jun  5 17:00:10 2019.
