 Gaussian 16, Revision A.03,
 Gaussian 16:  ES64L-G16RevA.03 25-Dec-2016

 ----------------
 # 6-31g(d) wb97x
 ----------------

 -----------------------
 tmpdir/M2_conf_2_21.gjf
 -----------------------
 Symbolic Z-matrix:
 Charge =  0 Multiplicity = 1

                         Standard orientation:
 ---------------------------------------------------------------------
 Center     Atomic      Atomic             Coordinates (Angstroms)
 Number     Number       Type             X           Y           Z
 ---------------------------------------------------------------------
      1          6           0       -1.268966   -0.198526    0.020936
      2          7           0       -0.000201    0.489170   -0.153025
      3          6           0        1.259980   -0.202371    0.020557
      4          1           0       -2.109044    0.482434   -0.189010
      5          1           0       -1.306708   -1.049149   -0.670109
      6          1           0       -1.376420   -0.594326    1.050776
      7          1           0        0.042265    1.302281    0.457854
      8          1           0        1.395443   -0.596416    1.046463
      9          1           0        2.089380    0.479863   -0.195199
     10          1           0        1.320404   -1.043499   -0.678554
 ---------------------------------------------------------------------

 SCF Done:  E(RwB97X) =  -135.117971484     A.U. after   13 cycles

 The electronic state is 1-A.
 Alpha  occ. eigenvalues --  -14.38443 -10.28254 -10.28011  -1.01796  -0.82740
 Alpha  occ. eigenvalues --   -0.73811  -0.59324  -0.54533  -0.53774  -0.49133
 Alpha  occ. eigenvalues --   -0.47249  -0.45515  -0.30419
 Alpha virt. eigenvalues --    0.18177   0.23952   0.24828   0.24957   0.27117
 Alpha virt. eigenvalues --    0.28396   0.28867   0.31155   0.37256   0.60332
 Alpha virt. eigenvalues --    0.65532   0.68076   0.70019   0.70877   0.85150

 Mulliken charges:
               1
     1  C   -0.317965
     2  N   -0.556540
     3  C   -0.322703
     4  H    0.165837
     5  H    0.160211
     6  H    0.124735
     7  H    0.299927
     8  H    0.123407
     9  H    0.164882
    10  H    0.158208
 Sum of Mulliken charges =   0.00000

 Dipole moment (field-independent basis, Debye):
    X=              0.0059    Y=             -0.0729    Z=              0.9654  Tot=              0.9682
 Quadrupole moment (field-independent basis, Debye-Ang):
   XX=            -19.2686   YY=            -19.9153   ZZ=            -21.6944
   XY=              0.0652   XZ=              0.0382   YZ=              1.8803

 Normal termination of Gaussian 16 at Wed Jun  5 17:03:40 2019.
