 Gaussian 16, Revision A.03,
 Gaussian 16:  ES64L-G16RevA.03 25-Dec-2016

 ----------------
 # 6-31g(d) wb97x
 ----------------

 -----------------------
 tmpdir/M2_conf_1_89.gjf
 -----------------------
 Symbolic Z-matrix:
 Charge =  0 Multiplicity = 1

                         Standard orientation:
 ---------------------------------------------------------------------
 Center     Atomic      Atomic             Coordinates (Angstroms)
 Number     Number       Type             X           Y           Z
 ---------------------------------------------------------------------
      1          6           0       -0.762904    0.483935   -0.089448
      2          6           0        0.743242    0.473470    0.083679
      3          1           0       -1.289845    1.306852   -0.349960
      4          6           0       -1.436858   -0.722370    0.096838
      5          6           0        1.475808   -0.689514   -0.093073
      6          1           0        1.174115    1.420025    0.361979
 ---------------------------------------------------------------------

 SCF Done:  E(RwB97X) =  -153.250441459     A.U. after   18 cycles

 The electronic state is 1-A.
 Alpha  occ. eigenvalues --  -10.36562 -10.36539 -10.32134 -10.31539  -0.96229
 Alpha  occ. eigenvalues --   -0.85617  -0.71179  -0.62441  -0.58418  -0.44794
 Alpha  occ. eigenvalues --   -0.42190  -0.40631  -0.34937
 Alpha virt. eigenvalues --   -0.02080  -0.01036   0.04040   0.13852   0.22737
 Alpha virt. eigenvalues --    0.25014   0.36403   0.39698   0.46721   0.57816
 Alpha virt. eigenvalues --    0.61323   0.62379   0.63723   0.67183   0.69541

 Mulliken charges:
               1
     1  C   -0.271646
     2  C   -0.281269
     3  H    0.232000
     4  C    0.042452
     5  C    0.042129
     6  H    0.236334
 Sum of Mulliken charges =  -0.00000

 Dipole moment (field-independent basis, Debye):
    X=             -0.1544    Y=              3.3211    Z=             -0.0023  Tot=              3.3247
 Quadrupole moment (field-independent basis, Debye-Ang):
   XX=            -24.5617   YY=            -23.6591   ZZ=            -25.1297
   XY=             -0.0007   XZ=              1.9767   YZ=              0.1096

 Normal termination of Gaussian 16 at Wed Jun  5 17:02:15 2019.
