 Gaussian 16, Revision A.03,
 Gaussian 16:  ES64L-G16RevA.03 25-Dec-2016

 ----------------
 # 6-31g(d) wb97x
 ----------------

 ------------------------
 tmpdir/M2_conf_1_190.gjf
 ------------------------
 Symbolic Z-matrix:
 Charge =  0 Multiplicity = 1

                         Standard orientation:
 ---------------------------------------------------------------------
 Center     Atomic      Atomic             Coordinates (Angstroms)
 Number     Number       Type             X           Y           Z
 ---------------------------------------------------------------------
      1          6           0       -0.732514    0.479594   -0.001205
      2          7           0        0.587359    0.681319   -0.000436
      3          6           0        1.363382   -0.401025   -0.003886
      4          8           0       -1.249655   -0.632430    0.002446
      5          1           0       -1.349600    1.377128   -0.000741
      6          1           0        1.014554   -1.350124   -0.011091
      7          1           0        2.435571   -0.208206    0.025863
 ---------------------------------------------------------------------

 SCF Done:  E(RwB97X) =  -207.876857832     A.U. after   17 cycles

 The electronic state is 1-A.
 Alpha  occ. eigenvalues --  -19.21501 -14.42969 -10.37736 -10.35433  -1.18287
 Alpha  occ. eigenvalues --   -1.05519  -0.84023  -0.69832  -0.64800  -0.57280
 Alpha  occ. eigenvalues --   -0.54730  -0.53840  -0.41769  -0.40445  -0.36743
 Alpha virt. eigenvalues --   -0.01094   0.15412   0.21910   0.24242   0.27966
 Alpha virt. eigenvalues --    0.33187   0.37817   0.46376   0.60083   0.63391
 Alpha virt. eigenvalues --    0.66708   0.68595   0.75039   0.77770   0.80363

 Mulliken charges:
               1
     1  C    0.291068
     2  N   -0.354674
     3  C   -0.105742
     4  O   -0.404200
     5  H    0.158682
     6  H    0.216723
     7  H    0.198143
 Sum of Mulliken charges =  -0.00000

 Dipole moment (field-independent basis, Debye):
    X=              1.9514    Y=             -0.1206    Z=             -0.0075  Tot=              1.9551
 Quadrupole moment (field-independent basis, Debye-Ang):
   XX=            -21.5264   YY=            -23.6773   ZZ=            -22.5260
   XY=             -5.4840   XZ=              0.0353   YZ=             -0.0008

 Normal termination of Gaussian 16 at Wed Jun  5 17:02:57 2019.
