 Gaussian 16, Revision A.03,
 Gaussian 16:  ES64L-G16RevA.03 25-Dec-2016

 ----------------
 # 6-31g(d) wb97x
 ----------------

 -----------------------
 tmpdir/M2_conf_2_38.gjf
 -----------------------
 Symbolic Z-matrix:
 Charge =  0 Multiplicity = 1

                         Standard orientation:
 ---------------------------------------------------------------------
 Center     Atomic      Atomic             Coordinates (Angstroms)
 Number     Number       Type             X           Y           Z
 ---------------------------------------------------------------------
      1          7           0        1.210282   -0.307788   -0.118700
      2          6           0        0.051105    0.550486    0.063535
      3          6           0       -1.247480   -0.235773   -0.034082
      4          1           0        1.204385   -1.053356    0.574127
      5          1           0        2.073630    0.222595   -0.085242
      6          1           0        0.058737    1.322772   -0.714811
      7          1           0        0.077416    1.061848    1.046916
      8          1           0       -2.096767    0.433329    0.142399
      9          1           0       -1.345542   -0.647744   -1.057088
     10          1           0       -1.265583   -1.073210    0.747881
 ---------------------------------------------------------------------

 SCF Done:  E(RwB97X) =  -135.127360729     A.U. after   13 cycles

 The electronic state is 1-A.
 Alpha  occ. eigenvalues --  -14.37869 -10.28461 -10.25951  -1.00096  -0.85033
 Alpha  occ. eigenvalues --   -0.71427  -0.60015  -0.56577  -0.52691  -0.46538
 Alpha  occ. eigenvalues --   -0.45931  -0.44273  -0.32263
 Alpha virt. eigenvalues --    0.18083   0.22337   0.23451   0.26174   0.27089
 Alpha virt. eigenvalues --    0.28800   0.29762   0.33492   0.36226   0.63541
 Alpha virt. eigenvalues --    0.66156   0.68169   0.69374   0.78561   0.79290

 Mulliken charges:
               1
     1  N   -0.740974
     2  C   -0.141603
     3  C   -0.462469
     4  H    0.302220
     5  H    0.310582
     6  H    0.151802
     7  H    0.119395
     8  H    0.156141
     9  H    0.169312
    10  H    0.135593
 Sum of Mulliken charges =   0.00000

 Dipole moment (field-independent basis, Debye):
    X=              0.2230    Y=              0.5374    Z=              1.1365  Tot=              1.2767
 Quadrupole moment (field-independent basis, Debye-Ang):
   XX=            -19.0214   YY=            -20.2843   ZZ=            -21.2516
   XY=              0.5898   XZ=              1.6790   YZ=             -1.7944

 Normal termination of Gaussian 16 at Wed Jun  5 17:03:49 2019.
