 Gaussian 16, Revision A.03,
 Gaussian 16:  ES64L-G16RevA.03 25-Dec-2016

 ----------------
 # 6-31g(d) wb97x
 ----------------

 ------------------------
 tmpdir/M2_conf_0_151.gjf
 ------------------------
 Symbolic Z-matrix:
 Charge =  0 Multiplicity = 1

                         Standard orientation:
 ---------------------------------------------------------------------
 Center     Atomic      Atomic             Coordinates (Angstroms)
 Number     Number       Type             X           Y           Z
 ---------------------------------------------------------------------
      1          7           0        0.715009    0.545945    0.001413
      2          6           0       -0.658795    0.502345   -0.001994
      3          8           0        1.276452   -0.468671   -0.000613
      4          8           0       -1.262473   -0.567141    0.000731
      5          1           0       -1.164134    1.450814    0.001126
 ---------------------------------------------------------------------

 SCF Done:  E(RwB97X) =  -243.704894350     A.U. after   23 cycles

 The electronic state is 1-A.
 Alpha  occ. eigenvalues --  -19.31786 -19.27141 -14.54055 -10.40731  -1.36273
 Alpha  occ. eigenvalues --   -1.20820  -0.94992  -0.72599  -0.67771  -0.63221
 Alpha  occ. eigenvalues --   -0.61766  -0.55744  -0.51445  -0.43181  -0.34612
 Alpha virt. eigenvalues --   -0.06135   0.11009   0.21884   0.30247   0.37038
 Alpha virt. eigenvalues --    0.49002   0.59601   0.63006   0.71536   0.77520
 Alpha virt. eigenvalues --    0.79936   0.79979   0.84822   0.90610   0.94105

 Mulliken charges:
               1
     1  N    0.029666
     2  C    0.286508
     3  O   -0.188960
     4  O   -0.316260
     5  H    0.189046
 Sum of Mulliken charges =  -0.00000

 Dipole moment (field-independent basis, Debye):
    X=             -0.7333    Y=              1.9365    Z=             -0.0087  Tot=              2.0707
 Quadrupole moment (field-independent basis, Debye-Ang):
   XX=            -24.4339   YY=            -21.8285   ZZ=            -19.6117
   XY=             -2.9686   XZ=             -0.0083   YZ=             -0.0135

 Normal termination of Gaussian 16 at Wed Jun  5 17:00:28 2019.
