 Gaussian 16, Revision A.03,
 Gaussian 16:  ES64L-G16RevA.03 25-Dec-2016

 ----------------
 # 6-31g(d) wb97x
 ----------------

 -----------------------
 tmpdir/M2_conf_1_60.gjf
 -----------------------
 Symbolic Z-matrix:
 Charge =  0 Multiplicity = 1

                         Standard orientation:
 ---------------------------------------------------------------------
 Center     Atomic      Atomic             Coordinates (Angstroms)
 Number     Number       Type             X           Y           Z
 ---------------------------------------------------------------------
      1          7           0       -1.697473   -0.292376   -0.069732
      2          6           0       -0.490462    0.492505    0.114496
      3          6           0        0.768295   -0.341607    0.233250
      4          1           0       -2.538090    0.263949    0.084050
      5          1           0       -1.731862   -0.725929   -0.993247
      6          1           0       -0.353922    1.235682   -0.695881
      7          1           0       -0.606733    1.066410    1.043913
      8          1           0        0.751861   -1.226555    0.720397
      9          8           0        1.836758    0.065961   -0.219698
 ---------------------------------------------------------------------

 SCF Done:  E(RwB97X) =  -209.103694143     A.U. after   16 cycles

 The electronic state is 1-A.
 Alpha  occ. eigenvalues --  -19.21408 -14.40378 -10.35242 -10.30670  -1.16004
 Alpha  occ. eigenvalues --   -1.02168  -0.83430  -0.71803  -0.62758  -0.58507
 Alpha  occ. eigenvalues --   -0.55037  -0.53520  -0.51332  -0.46105  -0.35980
 Alpha  occ. eigenvalues --   -0.34424
 Alpha virt. eigenvalues --    0.06513   0.17731   0.22605   0.24662   0.25751
 Alpha virt. eigenvalues --    0.28186   0.32543   0.36249   0.40772   0.63775
 Alpha virt. eigenvalues --    0.66826   0.67792   0.74346   0.76105   0.78029

 Mulliken charges:
               1
     1  N   -0.757602
     2  C   -0.241089
     3  C    0.239050
     4  H    0.322850
     5  H    0.318409
     6  H    0.167790
     7  H    0.187530
     8  H    0.158849
     9  O   -0.395786
 Sum of Mulliken charges =  -0.00000

 Dipole moment (field-independent basis, Debye):
    X=             -2.8038    Y=              0.3491    Z=             -0.0253  Tot=              2.8256
 Quadrupole moment (field-independent basis, Debye-Ang):
   XX=            -27.3723   YY=            -23.6110   ZZ=            -22.5410
   XY=             -3.0009   XZ=              3.1190   YZ=              1.5513

 Normal termination of Gaussian 16 at Wed Jun  5 17:01:44 2019.
