 Gaussian 16, Revision A.03,
 Gaussian 16:  ES64L-G16RevA.03 25-Dec-2016

 ----------------
 # 6-31g(d) wb97x
 ----------------

 ------------------------
 tmpdir/M2_conf_0_161.gjf
 ------------------------
 Symbolic Z-matrix:
 Charge =  0 Multiplicity = 1

                         Standard orientation:
 ---------------------------------------------------------------------
 Center     Atomic      Atomic             Coordinates (Angstroms)
 Number     Number       Type             X           Y           Z
 ---------------------------------------------------------------------
      1          6           0       -0.713417   -0.009297   -0.002961
      2          6           0        0.701390    0.006775   -0.000847
      3          1           0       -1.150468   -0.915840   -0.003021
      4          1           0       -1.304212    0.898735    0.017586
      5          1           0        1.258190   -0.887307    0.014566
      6          1           0        1.268656    0.919544   -0.006285
 ---------------------------------------------------------------------

 SCF Done:  E(RwB97X) =  -78.5430296051     A.U. after   13 cycles

 The electronic state is 1-A.
 Alpha  occ. eigenvalues --  -10.27304 -10.26973  -0.87218  -0.71115  -0.57912
 Alpha  occ. eigenvalues --   -0.50906  -0.47370  -0.35294
 Alpha virt. eigenvalues --    0.09457   0.22565   0.25454   0.26893   0.34813
 Alpha virt. eigenvalues --    0.40239   0.60499   0.65543   0.66832   0.74347
 Alpha virt. eigenvalues --    0.75809   0.76203   1.00040   1.00749   1.06738

 Mulliken charges:
               1
     1  C   -0.332504
     2  C   -0.339822
     3  H    0.170948
     4  H    0.168944
     5  H    0.167782
     6  H    0.164652
 Sum of Mulliken charges =   0.00000

 Dipole moment (field-independent basis, Debye):
    X=              0.0123    Y=             -0.0360    Z=              0.0217  Tot=              0.0438
 Quadrupole moment (field-independent basis, Debye-Ang):
   XX=            -11.7404   YY=            -11.9867   ZZ=            -15.2078
   XY=             -0.0935   XZ=             -0.0096   YZ=              0.0006

 Normal termination of Gaussian 16 at Wed Jun  5 17:00:24 2019.
