 Gaussian 16, Revision A.03,
 Gaussian 16:  ES64L-G16RevA.03 25-Dec-2016

 ----------------
 # 6-31g(d) wb97x
 ----------------

 ------------------------
 tmpdir/M2_conf_1_178.gjf
 ------------------------
 Symbolic Z-matrix:
 Charge =  0 Multiplicity = 1

                         Standard orientation:
 ---------------------------------------------------------------------
 Center     Atomic      Atomic             Coordinates (Angstroms)
 Number     Number       Type             X           Y           Z
 ---------------------------------------------------------------------
      1          1           0       -1.260378    1.442741   -0.000462
      2          6           0       -0.695189    0.516457   -0.000834
      3          6           0        0.691607    0.513799   -0.000461
      4          8           0       -1.271545   -0.570259    0.000613
      5          1           0        1.241370    1.450470    0.004639
      6          8           0        1.276608   -0.564085   -0.000164
 ---------------------------------------------------------------------

 SCF Done:  E(RwB97X) =  -227.735668377     A.U. after   14 cycles

 The electronic state is 1-A.
 Alpha  occ. eigenvalues --  -19.25214 -19.25209 -10.37840 -10.37790  -1.21753
 Alpha  occ. eigenvalues --   -1.17157  -0.87702  -0.69299  -0.67236  -0.58011
 Alpha  occ. eigenvalues --   -0.56333  -0.55046  -0.47590  -0.40583  -0.38281
 Alpha virt. eigenvalues --   -0.03510   0.14333   0.20854   0.23780   0.27290
 Alpha virt. eigenvalues --    0.41330   0.49565   0.58908   0.61033   0.67347
 Alpha virt. eigenvalues --    0.69883   0.77626   0.78704   0.86572   0.92863

 Mulliken charges:
               1
     1  H    0.159589
     2  C    0.172612
     3  C    0.177397
     4  O   -0.332615
     5  H    0.155275
     6  O   -0.332259
 Sum of Mulliken charges =  -0.00000

 Dipole moment (field-independent basis, Debye):
    X=             -0.0294    Y=              3.7254    Z=             -0.0009  Tot=              3.7255
 Quadrupole moment (field-independent basis, Debye-Ang):
   XX=            -25.1956   YY=            -21.1067   ZZ=            -20.7918
   XY=             -0.0575   XZ=              0.0040   YZ=              0.0014

 Normal termination of Gaussian 16 at Wed Jun  5 17:03:02 2019.
