 Gaussian 16, Revision A.03,
 Gaussian 16:  ES64L-G16RevA.03 25-Dec-2016

 ----------------
 # 6-31g(d) wb97x
 ----------------

 -----------------------
 tmpdir/M2_conf_2_90.gjf
 -----------------------
 Symbolic Z-matrix:
 Charge =  0 Multiplicity = 1

                         Standard orientation:
 ---------------------------------------------------------------------
 Center     Atomic      Atomic             Coordinates (Angstroms)
 Number     Number       Type             X           Y           Z
 ---------------------------------------------------------------------
      1          6           0        0.794380    0.484665   -0.003638
      2          6           0       -0.592682    0.650935   -0.008500
      3          6           0       -1.398934   -0.486551    0.004013
      4          8           0        1.284062   -0.638089   -0.000126
      5          1           0        1.454618    1.348788    0.038306
      6          1           0       -1.081694    1.622462    0.001219
      7          1           0       -0.984404   -1.402368   -0.004669
      8          1           0       -2.477600   -0.358460    0.014898
 ---------------------------------------------------------------------

 SCF Done:  E(RwB97X) =  -191.836904954     A.U. after   15 cycles

 The electronic state is 1-A.
 Alpha  occ. eigenvalues --  -19.20450 -10.35128 -10.29851 -10.28795  -1.16043
 Alpha  occ. eigenvalues --   -0.92180  -0.79317  -0.66654  -0.63525  -0.55513
 Alpha  occ. eigenvalues --   -0.52138  -0.50566  -0.49495  -0.37017  -0.35708
 Alpha virt. eigenvalues --    0.01168   0.17287   0.20393   0.24164   0.26766
 Alpha virt. eigenvalues --    0.30494   0.34936   0.41140   0.46161   0.62071
 Alpha virt. eigenvalues --    0.63028   0.68795   0.69048   0.70557   0.74499

 Mulliken charges:
               1
     1  C    0.214164
     2  C   -0.203911
     3  C   -0.295692
     4  O   -0.415045
     5  H    0.134956
     6  H    0.172010
     7  H    0.214389
     8  H    0.179130
 Sum of Mulliken charges =  -0.00000

 Dipole moment (field-independent basis, Debye):
    X=             -2.1134    Y=              1.7112    Z=              0.0176  Tot=              2.7194
 Quadrupole moment (field-independent basis, Debye-Ang):
   XX=            -23.1731   YY=            -21.8515   ZZ=            -24.2978
   XY=              3.0381   XZ=             -0.0213   YZ=              0.0209

 Normal termination of Gaussian 16 at Wed Jun  5 17:04:02 2019.
