 Gaussian 16, Revision A.03,
 Gaussian 16:  ES64L-G16RevA.03 25-Dec-2016

 ----------------
 # 6-31g(d) wb97x
 ----------------

 ------------------------
 tmpdir/M2_conf_2_109.gjf
 ------------------------
 Symbolic Z-matrix:
 Charge =  0 Multiplicity = 1

                         Standard orientation:
 ---------------------------------------------------------------------
 Center     Atomic      Atomic             Coordinates (Angstroms)
 Number     Number       Type             X           Y           Z
 ---------------------------------------------------------------------
      1          6           0       -0.714226    0.486127    0.001310
      2          6           0        0.691262    0.491122   -0.001581
      3          6           0       -1.397917   -0.729383   -0.001494
      4          1           0       -1.253676    1.418849    0.005993
      5          6           0        1.415151   -0.720616    0.001615
      6          1           0        1.288057    1.417653   -0.005091
 ---------------------------------------------------------------------

 SCF Done:  E(RwB97X) =  -153.245829133     A.U. after   17 cycles

 The electronic state is 1-A.
 Alpha  occ. eigenvalues --  -10.36450 -10.36351 -10.31612 -10.31249  -0.97547
 Alpha  occ. eigenvalues --   -0.84446  -0.71906  -0.60308  -0.59511  -0.46426
 Alpha  occ. eigenvalues --   -0.42481  -0.40092  -0.33211
 Alpha virt. eigenvalues --   -0.03352   0.00419   0.02475   0.16456   0.20929
 Alpha virt. eigenvalues --    0.24765   0.34653   0.45367   0.47642   0.58486
 Alpha virt. eigenvalues --    0.60997   0.62958   0.66090   0.66611   0.69195

 Mulliken charges:
               1
     1  C   -0.264701
     2  C   -0.278835
     3  C    0.035460
     4  H    0.235563
     5  C    0.037917
     6  H    0.234595
 Sum of Mulliken charges =  -0.00000

 Dipole moment (field-independent basis, Debye):
    X=             -0.0421    Y=              3.4125    Z=              0.0012  Tot=              3.4128
 Quadrupole moment (field-independent basis, Debye-Ang):
   XX=            -24.1825   YY=            -23.4508   ZZ=            -25.5470
   XY=              0.0655   XZ=             -0.0360   YZ=              0.0019

 Normal termination of Gaussian 16 at Wed Jun  5 17:04:38 2019.
