 Gaussian 16, Revision A.03,
 Gaussian 16:  ES64L-G16RevA.03 25-Dec-2016

 ----------------
 # 6-31g(d) wb97x
 ----------------

 -----------------------
 tmpdir/M2_conf_0_57.gjf
 -----------------------
 Symbolic Z-matrix:
 Charge =  0 Multiplicity = 1

                         Standard orientation:
 ---------------------------------------------------------------------
 Center     Atomic      Atomic             Coordinates (Angstroms)
 Number     Number       Type             X           Y           Z
 ---------------------------------------------------------------------
      1          6           0        1.166169   -0.142956   -0.005967
      2          6           0       -0.235185    0.441633   -0.005241
      3          1           0        1.910944    0.483841   -0.601016
      4          1           0        1.127220   -1.189895   -0.366616
      5          1           0        1.523928   -0.186321    1.031739
      6          1           0       -0.372521    1.441840    0.032564
      7          8           0       -1.221935   -0.292691   -0.003678
 ---------------------------------------------------------------------

 SCF Done:  E(RwB97X) =  -153.775792262     A.U. after   15 cycles

 The electronic state is 1-A.
 Alpha  occ. eigenvalues --  -19.21350 -10.35830 -10.28521  -1.15965  -0.87445
 Alpha  occ. eigenvalues --   -0.72134  -0.58780  -0.54784  -0.53614  -0.50076
 Alpha  occ. eigenvalues --   -0.45789  -0.35627
 Alpha virt. eigenvalues --    0.06989   0.20337   0.23407   0.25406   0.26173
 Alpha virt. eigenvalues --    0.34848   0.37621   0.63276   0.64043   0.70101
 Alpha virt. eigenvalues --    0.70895   0.76781   0.82531   0.85484   0.95048

 Mulliken charges:
               1
     1  C   -0.562309
     2  C    0.240182
     3  H    0.167274
     4  H    0.201313
     5  H    0.195047
     6  H    0.149683
     7  O   -0.391190
 Sum of Mulliken charges =  -0.00000

 Dipole moment (field-independent basis, Debye):
    X=              2.3862    Y=              1.3098    Z=              0.1236  Tot=              2.7248
 Quadrupole moment (field-independent basis, Debye-Ang):
   XX=            -20.7048   YY=            -17.3097   ZZ=            -17.6232
   XY=             -1.1458   XZ=              0.1214   YZ=             -0.0449

 Normal termination of Gaussian 16 at Wed Jun  5 16:59:22 2019.
