 Gaussian 16, Revision A.03,
 Gaussian 16:  ES64L-G16RevA.03 25-Dec-2016

 ----------------
 # 6-31g(d) wb97x
 ----------------

 ------------------------
 tmpdir/M2_conf_0_122.gjf
 ------------------------
 Symbolic Z-matrix:
 Charge =  0 Multiplicity = 1

                         Standard orientation:
 ---------------------------------------------------------------------
 Center     Atomic      Atomic             Coordinates (Angstroms)
 Number     Number       Type             X           Y           Z
 ---------------------------------------------------------------------
      1          1           0       -1.254885    1.434668   -0.001958
      2          6           0       -0.692217    0.503459   -0.001425
      3          6           0        0.696881    0.520230    0.001060
      4          8           0       -1.297310   -0.560050    0.000869
      5          1           0        1.238681    1.467883    0.002994
      6          8           0        1.295838   -0.570536   -0.000724
 ---------------------------------------------------------------------

 SCF Done:  E(RwB97X) =  -227.736158479     A.U. after   14 cycles

 The electronic state is 1-A.
 Alpha  occ. eigenvalues --  -19.25531 -19.25257 -10.38250 -10.37876  -1.21459
 Alpha  occ. eigenvalues --   -1.17030  -0.87871  -0.69270  -0.67069  -0.58028
 Alpha  occ. eigenvalues --   -0.56183  -0.55035  -0.47557  -0.40804  -0.38297
 Alpha virt. eigenvalues --   -0.03777   0.14149   0.20571   0.23676   0.27077
 Alpha virt. eigenvalues --    0.41398   0.49110   0.58904   0.61175   0.67412
 Alpha virt. eigenvalues --    0.69202   0.77065   0.78302   0.86123   0.92693

 Mulliken charges:
               1
     1  H    0.152562
     2  C    0.179789
     3  C    0.172517
     4  O   -0.330757
     5  H    0.163500
     6  O   -0.337612
 Sum of Mulliken charges =  -0.00000

 Dipole moment (field-independent basis, Debye):
    X=              0.0287    Y=              3.7105    Z=             -0.0002  Tot=              3.7106
 Quadrupole moment (field-independent basis, Debye-Ang):
   XX=            -25.3624   YY=            -21.1201   ZZ=            -20.8327
   XY=              0.1123   XZ=              0.0059   YZ=              0.0008

 Normal termination of Gaussian 16 at Wed Jun  5 17:00:21 2019.
