 Gaussian 16, Revision A.03,
 Gaussian 16:  ES64L-G16RevA.03 25-Dec-2016

 ----------------
 # 6-31g(d) wb97x
 ----------------

 ------------------------
 tmpdir/M2_conf_0_126.gjf
 ------------------------
 Symbolic Z-matrix:
 Charge =  0 Multiplicity = 1

                         Standard orientation:
 ---------------------------------------------------------------------
 Center     Atomic      Atomic             Coordinates (Angstroms)
 Number     Number       Type             X           Y           Z
 ---------------------------------------------------------------------
      1          6           0        0.796982    0.473267    0.001585
      2          6           0       -0.582601    0.636429   -0.001019
      3          6           0       -1.442751   -0.482709    0.000373
      4          8           0        1.319228   -0.633281   -0.001010
      5          1           0        1.428861    1.358975    0.002405
      6          1           0       -1.021454    1.635931   -0.002707
      7          1           0       -1.067103   -1.421658    0.002381
      8          1           0       -2.523916   -0.268922    0.000361
 ---------------------------------------------------------------------

 SCF Done:  E(RwB97X) =  -191.835409572     A.U. after   15 cycles

 The electronic state is 1-A.
 Alpha  occ. eigenvalues --  -19.20481 -10.34943 -10.30624 -10.29053  -1.15992
 Alpha  occ. eigenvalues --   -0.92077  -0.79635  -0.66439  -0.63260  -0.55602
 Alpha  occ. eigenvalues --   -0.52147  -0.50542  -0.49586  -0.36937  -0.35643
 Alpha virt. eigenvalues --    0.00798   0.17420   0.19828   0.23674   0.26868
 Alpha virt. eigenvalues --    0.30110   0.34722   0.40600   0.46447   0.62003
 Alpha virt. eigenvalues --    0.63487   0.67926   0.68781   0.70739   0.73630

 Mulliken charges:
               1
     1  C    0.213878
     2  C   -0.197288
     3  C   -0.298296
     4  O   -0.414262
     5  H    0.130333
     6  H    0.169901
     7  H    0.215097
     8  H    0.180637
 Sum of Mulliken charges =  -0.00000

 Dipole moment (field-independent basis, Debye):
    X=             -2.2437    Y=              1.6826    Z=              0.0053  Tot=              2.8045
 Quadrupole moment (field-independent basis, Debye-Ang):
   XX=            -23.3207   YY=            -21.8294   ZZ=            -24.3624
   XY=              3.0196   XZ=              0.0034   YZ=             -0.0064

 Normal termination of Gaussian 16 at Wed Jun  5 17:00:26 2019.
