 Gaussian 16, Revision A.03,
 Gaussian 16:  ES64L-G16RevA.03 25-Dec-2016

 ----------------
 # 6-31g(d) wb97x
 ----------------

 ------------------------
 tmpdir/M2_conf_1_171.gjf
 ------------------------
 Symbolic Z-matrix:
 Charge =  0 Multiplicity = 1

                         Standard orientation:
 ---------------------------------------------------------------------
 Center     Atomic      Atomic             Coordinates (Angstroms)
 Number     Number       Type             X           Y           Z
 ---------------------------------------------------------------------
      1          6           0       -0.702112    0.357495    0.118765
      2          6           0        0.550685   -0.438914    0.094944
      3          6           0        1.806570    0.141406   -0.086327
      4          1           0       -0.599931    1.379143    0.354226
      5          8           0       -1.800556   -0.132526   -0.129287
      6          1           0        0.549507   -1.441682    0.225273
      7          1           0        1.906487    1.213161   -0.223429
      8          1           0        2.617525   -0.450336   -0.086063
 ---------------------------------------------------------------------

 SCF Done:  E(RwB97X) =  -191.834796751     A.U. after   16 cycles

 The electronic state is 1-A.
 Alpha  occ. eigenvalues --  -19.21618 -10.36278 -10.30007 -10.29185  -1.16223
 Alpha  occ. eigenvalues --   -0.92453  -0.78059  -0.70719  -0.60207  -0.58084
 Alpha  occ. eigenvalues --   -0.52693  -0.51486  -0.49276  -0.37778  -0.36087
 Alpha virt. eigenvalues --    0.02011   0.14059   0.21446   0.23595   0.25779
 Alpha virt. eigenvalues --    0.30314   0.35577   0.39620   0.44255   0.61525
 Alpha virt. eigenvalues --    0.63591   0.64862   0.68905   0.71018   0.74363

 Mulliken charges:
               1
     1  C    0.217599
     2  C   -0.176832
     3  C   -0.342479
     4  H    0.143261
     5  O   -0.400154
     6  H    0.187927
     7  H    0.179369
     8  H    0.191309
 Sum of Mulliken charges =  -0.00000

 Dipole moment (field-independent basis, Debye):
    X=              3.0742    Y=              0.7448    Z=              0.4668  Tot=              3.1974
 Quadrupole moment (field-independent basis, Debye-Ang):
   XX=            -26.3405   YY=            -21.0813   ZZ=            -24.3233
   XY=             -1.1047   XZ=             -0.9651   YZ=             -0.3222

 Normal termination of Gaussian 16 at Wed Jun  5 17:02:51 2019.
