 Gaussian 16, Revision A.03,
 Gaussian 16:  ES64L-G16RevA.03 25-Dec-2016

 ----------------
 # 6-31g(d) wb97x
 ----------------

 ------------------------
 tmpdir/M2_conf_0_106.gjf
 ------------------------
 Symbolic Z-matrix:
 Charge =  0 Multiplicity = 1

                         Standard orientation:
 ---------------------------------------------------------------------
 Center     Atomic      Atomic             Coordinates (Angstroms)
 Number     Number       Type             X           Y           Z
 ---------------------------------------------------------------------
      1          7           0        1.575706   -0.597975   -0.018456
      2          6           0        0.381128    0.158908    0.006802
      3          6           0       -0.774258   -0.619033    0.013982
      4          1           0        2.449928   -0.334389    0.275007
      5          1           0        1.449320   -1.582621   -0.198964
      6          8           0        0.383537    1.388173   -0.017135
      7          1           0       -0.708563   -1.704813    0.036661
      8          8           0       -1.866268   -0.067123    0.003608
 ---------------------------------------------------------------------

 SCF Done:  E(RwB97X) =  -283.104335632     A.U. after   18 cycles

 The electronic state is 1-A.
 Alpha  occ. eigenvalues --  -19.24905 -19.20898 -14.44975 -10.39505 -10.37993
 Alpha  occ. eigenvalues --   -1.20724  -1.16247  -1.05190  -0.86290  -0.69895
 Alpha  occ. eigenvalues --   -0.66892  -0.65927  -0.57137  -0.55918  -0.53977
 Alpha  occ. eigenvalues --   -0.47867  -0.40209  -0.38634  -0.37388
 Alpha virt. eigenvalues --   -0.00984   0.15697   0.17525   0.21178   0.25931
 Alpha virt. eigenvalues --    0.31108   0.37135   0.44791   0.52273   0.60117
 Alpha virt. eigenvalues --    0.64567   0.70472   0.71074   0.72795   0.77943

 Mulliken charges:
               1
     1  N   -0.800212
     2  C    0.551231
     3  C    0.159928
     4  H    0.371249
     5  H    0.346038
     6  O   -0.442865
     7  H    0.150944
     8  O   -0.336314
 Sum of Mulliken charges =   0.00000

 Dipole moment (field-independent basis, Debye):
    X=              2.9813    Y=             -4.3522    Z=              0.3229  Tot=              5.2853
 Quadrupole moment (field-independent basis, Debye-Ang):
   XX=            -27.5618   YY=            -28.0596   ZZ=            -27.5396
   XY=             -1.7298   XZ=              1.0875   YZ=              0.4443

 Normal termination of Gaussian 16 at Wed Jun  5 17:00:04 2019.
