 Gaussian 16, Revision A.03,
 Gaussian 16:  ES64L-G16RevA.03 25-Dec-2016

 ----------------
 # 6-31g(d) wb97x
 ----------------

 ------------------------
 tmpdir/M2_conf_2_116.gjf
 ------------------------
 Symbolic Z-matrix:
 Charge =  0 Multiplicity = 1

                         Standard orientation:
 ---------------------------------------------------------------------
 Center     Atomic      Atomic             Coordinates (Angstroms)
 Number     Number       Type             X           Y           Z
 ---------------------------------------------------------------------
      1          6           0        0.794840    0.480162   -0.004565
      2          6           0       -0.588256    0.645087   -0.000523
      3          6           0       -1.404294   -0.477688    0.001784
      4          1           0        1.418134    1.400282    0.023158
      5          8           0        1.288268   -0.645972    0.000214
      6          1           0       -1.025429    1.641367   -0.007204
      7          1           0       -2.484662   -0.349053    0.003611
      8          1           0       -1.027927   -1.410192   -0.001454
 ---------------------------------------------------------------------

 SCF Done:  E(RwB97X) =  -191.837646301     A.U. after   15 cycles

 The electronic state is 1-A.
 Alpha  occ. eigenvalues --  -19.20630 -10.35355 -10.29942 -10.28747  -1.15824
 Alpha  occ. eigenvalues --   -0.92355  -0.79602  -0.66416  -0.63127  -0.55787
 Alpha  occ. eigenvalues --   -0.52017  -0.50521  -0.49558  -0.37144  -0.35758
 Alpha virt. eigenvalues --    0.01051   0.17357   0.20118   0.23715   0.26727
 Alpha virt. eigenvalues --    0.30375   0.35124   0.41026   0.46090   0.61966
 Alpha virt. eigenvalues --    0.63659   0.68752   0.68826   0.70318   0.74311

 Mulliken charges:
               1
     1  C    0.215716
     2  C   -0.194955
     3  C   -0.296844
     4  H    0.130161
     5  O   -0.417132
     6  H    0.170571
     7  H    0.178098
     8  H    0.214384
 Sum of Mulliken charges =  -0.00000

 Dipole moment (field-independent basis, Debye):
    X=             -2.1643    Y=              1.6981    Z=             -0.0046  Tot=              2.7509
 Quadrupole moment (field-independent basis, Debye-Ang):
   XX=            -23.3873   YY=            -21.7473   ZZ=            -24.3078
   XY=              3.1311   XZ=              0.0059   YZ=             -0.0028

 Normal termination of Gaussian 16 at Wed Jun  5 17:04:20 2019.
