 Gaussian 16, Revision A.03,
 Gaussian 16:  ES64L-G16RevA.03 25-Dec-2016

 ----------------
 # 6-31g(d) wb97x
 ----------------

 -----------------------
 tmpdir/M2_conf_1_92.gjf
 -----------------------
 Symbolic Z-matrix:
 Charge =  0 Multiplicity = 1

                         Standard orientation:
 ---------------------------------------------------------------------
 Center     Atomic      Atomic             Coordinates (Angstroms)
 Number     Number       Type             X           Y           Z
 ---------------------------------------------------------------------
      1          6           0       -1.466856   -0.479815    0.053860
      2          6           0       -0.652794    0.644462   -0.077957
      3          6           0        0.829416    0.471273    0.097715
      4          1           0       -2.462917   -0.400763   -0.056744
      5          1           0       -1.001504   -1.433687    0.285423
      6          1           0       -1.075821    1.534102   -0.306679
      7          8           0        1.365873   -0.608872   -0.097360
      8          1           0        1.354667    1.355809    0.415179
 ---------------------------------------------------------------------

 SCF Done:  E(RwB97X) =  -191.835452718     A.U. after   16 cycles

 The electronic state is 1-A.
 Alpha  occ. eigenvalues --  -19.21667 -10.36416 -10.29133 -10.28578  -1.16574
 Alpha  occ. eigenvalues --   -0.91287  -0.78378  -0.67781  -0.62939  -0.55174
 Alpha  occ. eigenvalues --   -0.53455  -0.50217  -0.49315  -0.37348  -0.35866
 Alpha virt. eigenvalues --    0.02519   0.14326   0.22640   0.23470   0.26670
 Alpha virt. eigenvalues --    0.30141   0.35663   0.40085   0.42727   0.62382
 Alpha virt. eigenvalues --    0.63067   0.67990   0.68970   0.70062   0.74928

 Mulliken charges:
               1
     1  C   -0.315841
     2  C   -0.204117
     3  C    0.211491
     4  H    0.183773
     5  H    0.200964
     6  H    0.174210
     7  O   -0.392250
     8  H    0.141769
 Sum of Mulliken charges =  -0.00000

 Dipole moment (field-independent basis, Debye):
    X=             -1.9243    Y=              1.7780    Z=              0.3706  Tot=              2.6461
 Quadrupole moment (field-independent basis, Debye-Ang):
   XX=            -23.5130   YY=            -21.7076   ZZ=            -24.2468
   XY=              2.9369   XZ=              0.7043   YZ=             -0.6195

 Normal termination of Gaussian 16 at Wed Jun  5 17:02:24 2019.
