 Gaussian 16, Revision A.03,
 Gaussian 16:  ES64L-G16RevA.03 25-Dec-2016

 ----------------
 # 6-31g(d) wb97x
 ----------------

 -----------------------
 tmpdir/M2_conf_0_14.gjf
 -----------------------
 Symbolic Z-matrix:
 Charge =  0 Multiplicity = 1

                         Standard orientation:
 ---------------------------------------------------------------------
 Center     Atomic      Atomic             Coordinates (Angstroms)
 Number     Number       Type             X           Y           Z
 ---------------------------------------------------------------------
      1          6           0        0.763788    0.000797    0.002166
      2          6           0       -0.758001    0.001724   -0.003386
      3          1           0       -1.162136   -0.011986   -1.035503
      4          1           0        1.119590   -0.111836    1.044359
      5          1           0        1.131212   -0.856538   -0.574283
      6          1           0        1.162124    0.962516   -0.474024
      7          1           0       -1.125674   -0.907947    0.486352
      8          1           0       -1.159838    0.910665    0.560417
 ---------------------------------------------------------------------

 SCF Done:  E(RwB97X) =  -79.7975635358     A.U. after   12 cycles

 The electronic state is 1-A.
 Alpha  occ. eigenvalues --  -10.26143 -10.26067  -0.87832  -0.72543  -0.54243
 Alpha  occ. eigenvalues --   -0.54042  -0.46200  -0.43926  -0.43703
 Alpha virt. eigenvalues --    0.19309   0.25211   0.25264   0.25661   0.28129
 Alpha virt. eigenvalues --    0.28504   0.33723   0.61417   0.65730   0.66218
 Alpha virt. eigenvalues --    0.74349   0.74640   0.78851   0.97554   0.98838

 Mulliken charges:
               1
     1  C   -0.456976
     2  C   -0.459776
     3  H    0.154622
     4  H    0.155946
     5  H    0.157259
     6  H    0.146585
     7  H    0.156156
     8  H    0.146183
 Sum of Mulliken charges =   0.00000

 Dipole moment (field-independent basis, Debye):
    X=             -0.0061    Y=             -0.0873    Z=             -0.0013  Tot=              0.0876
 Quadrupole moment (field-independent basis, Debye-Ang):
   XX=            -15.6411   YY=            -14.6870   ZZ=            -14.6975
   XY=             -0.0024   XZ=              0.0188   YZ=             -0.0006

 Normal termination of Gaussian 16 at Wed Jun  5 16:59:36 2019.
