 Gaussian 16, Revision A.03,
 Gaussian 16:  ES64L-G16RevA.03 25-Dec-2016

 ----------------
 # 6-31g(d) wb97x
 ----------------

 ----------------------
 tmpdir/M2_conf_1_6.gjf
 ----------------------
 Symbolic Z-matrix:
 Charge =  0 Multiplicity = 1

                         Standard orientation:
 ---------------------------------------------------------------------
 Center     Atomic      Atomic             Coordinates (Angstroms)
 Number     Number       Type             X           Y           Z
 ---------------------------------------------------------------------
      1          1           0       -1.031679   -0.014416    1.070083
      2          6           0       -0.706756   -0.000057    0.011940
      3          7           0        0.744287    0.001489   -0.111722
      4          1           0       -1.096273   -0.903029   -0.473068
      5          1           0       -1.127325    0.891618   -0.479550
      6          1           0        1.127679    0.851442    0.303772
      7          1           0        1.158128   -0.835699    0.289181
 ---------------------------------------------------------------------

 SCF Done:  E(RwB97X) =  -95.8215518004     A.U. after   13 cycles

 The electronic state is 1-A.
 Alpha  occ. eigenvalues --  -14.38008 -10.28042  -0.99338  -0.77354  -0.60147
 Alpha  occ. eigenvalues --   -0.53561  -0.50431  -0.47021  -0.32166
 Alpha virt. eigenvalues --    0.18424   0.24216   0.25474   0.27613   0.29016
 Alpha virt. eigenvalues --    0.34132   0.66046   0.67726   0.69768   0.84798
 Alpha virt. eigenvalues --    0.87397   0.89598   0.97736   1.02429   1.04640

 Mulliken charges:
               1
     1  H    0.128442
     2  C   -0.327360
     3  N   -0.743126
     4  H    0.162209
     5  H    0.162358
     6  H    0.307417
     7  H    0.310061
 Sum of Mulliken charges =   0.00000

 Dipole moment (field-independent basis, Debye):
    X=             -0.1572    Y=             -0.0118    Z=              1.3462  Tot=              1.3554
 Quadrupole moment (field-independent basis, Debye-Ang):
   XX=            -13.6129   YY=            -12.1169   ZZ=            -15.2687
   XY=             -0.0723   XZ=              2.0258   YZ=              0.0179

 Normal termination of Gaussian 16 at Wed Jun  5 17:01:30 2019.
