 Gaussian 16, Revision A.03,
 Gaussian 16:  ES64L-G16RevA.03 25-Dec-2016

 ----------------
 # 6-31g(d) wb97x
 ----------------

 ------------------------
 tmpdir/M2_conf_0_115.gjf
 ------------------------
 Symbolic Z-matrix:
 Charge =  0 Multiplicity = 1

                         Standard orientation:
 ---------------------------------------------------------------------
 Center     Atomic      Atomic             Coordinates (Angstroms)
 Number     Number       Type             X           Y           Z
 ---------------------------------------------------------------------
      1          6           0        0.689923    0.503311   -0.004691
      2          6           0       -0.702970    0.502284   -0.000389
      3          1           0       -1.235483    1.451034   -0.007181
      4          1           0        1.199162    1.491135    0.022881
      5          8           0        1.314003   -0.556011    0.000032
      6          8           0       -1.299678   -0.565956    0.001815
 ---------------------------------------------------------------------

 SCF Done:  E(RwB97X) =  -227.738571960     A.U. after   16 cycles

 The electronic state is 1-A.
 Alpha  occ. eigenvalues --  -19.25562 -19.25478 -10.38247 -10.37987  -1.21781
 Alpha  occ. eigenvalues --   -1.17587  -0.87917  -0.68976  -0.66797  -0.58246
 Alpha  occ. eigenvalues --   -0.56408  -0.55272  -0.47951  -0.41163  -0.38152
 Alpha virt. eigenvalues --   -0.03641   0.14314   0.20165   0.23683   0.27320
 Alpha virt. eigenvalues --    0.41219   0.49075   0.58831   0.61859   0.67344
 Alpha virt. eigenvalues --    0.69960   0.77423   0.77789   0.85613   0.91934

 Mulliken charges:
               1
     1  C    0.182237
     2  C    0.179539
     3  H    0.155534
     4  H    0.148135
     5  O   -0.334757
     6  O   -0.330688
 Sum of Mulliken charges =  -0.00000

 Dipole moment (field-independent basis, Debye):
    X=             -0.0910    Y=              3.6222    Z=             -0.0048  Tot=              3.6234
 Quadrupole moment (field-independent basis, Debye-Ang):
   XX=            -25.5505   YY=            -21.1791   ZZ=            -20.8217
   XY=             -0.1063   XZ=              0.0156   YZ=              0.0048

 Normal termination of Gaussian 16 at Wed Jun  5 16:59:58 2019.
