 Gaussian 16, Revision A.03,
 Gaussian 16:  ES64L-G16RevA.03 25-Dec-2016

 ----------------
 # 6-31g(d) wb97x
 ----------------

 ------------------------
 tmpdir/M2_conf_2_159.gjf
 ------------------------
 Symbolic Z-matrix:
 Charge =  0 Multiplicity = 1

                         Standard orientation:
 ---------------------------------------------------------------------
 Center     Atomic      Atomic             Coordinates (Angstroms)
 Number     Number       Type             X           Y           Z
 ---------------------------------------------------------------------
      1          1           0       -1.213639    1.459196   -0.006699
      2          6           0       -0.652924    0.525180   -0.003881
      3          6           0        0.737171    0.508384   -0.001203
      4          8           0       -1.344903   -0.537811    0.003164
      5          1           0        1.309722    1.427937    0.022903
      6          8           0        1.269707   -0.598254   -0.001376
 ---------------------------------------------------------------------

 SCF Done:  E(RwB97X) =  -227.731807700     A.U. after   16 cycles

 The electronic state is 1-A.
 Alpha  occ. eigenvalues --  -19.25664 -19.25305 -10.38429 -10.38194  -1.21123
 Alpha  occ. eigenvalues --   -1.16031  -0.87985  -0.69679  -0.66895  -0.57923
 Alpha  occ. eigenvalues --   -0.55882  -0.54677  -0.47042  -0.40713  -0.38393
 Alpha virt. eigenvalues --   -0.04157   0.13663   0.20552   0.23561   0.26543
 Alpha virt. eigenvalues --    0.41346   0.48451   0.58952   0.60720   0.67559
 Alpha virt. eigenvalues --    0.68064   0.76205   0.77765   0.86486   0.92991

 Mulliken charges:
               1
     1  H    0.159000
     2  C    0.171401
     3  C    0.176053
     4  O   -0.348297
     5  H    0.168628
     6  O   -0.326785
 Sum of Mulliken charges =  -0.00000

 Dipole moment (field-independent basis, Debye):
    X=              0.3986    Y=              3.7692    Z=             -0.0024  Tot=              3.7902
 Quadrupole moment (field-independent basis, Debye-Ang):
   XX=            -25.3600   YY=            -21.0847   ZZ=            -20.8949
   XY=              0.2651   XZ=              0.0247   YZ=              0.0079

 Normal termination of Gaussian 16 at Wed Jun  5 17:05:01 2019.
