 Gaussian 16, Revision A.03,
 Gaussian 16:  ES64L-G16RevA.03 25-Dec-2016

 ----------------
 # 6-31g(d) wb97x
 ----------------

 ------------------------
 tmpdir/M2_conf_1_151.gjf
 ------------------------
 Symbolic Z-matrix:
 Charge =  0 Multiplicity = 1

                         Standard orientation:
 ---------------------------------------------------------------------
 Center     Atomic      Atomic             Coordinates (Angstroms)
 Number     Number       Type             X           Y           Z
 ---------------------------------------------------------------------
      1          7           0        0.699976    0.545982    0.001404
      2          6           0       -0.644512    0.502348   -0.001982
      3          8           0        1.262146   -0.468232   -0.000601
      4          8           0       -1.247424   -0.567570    0.000720
      5          1           0       -1.150531    1.450455    0.001120
 ---------------------------------------------------------------------

 SCF Done:  E(RwB97X) =  -243.699516764     A.U. after   24 cycles

 The electronic state is 1-A.
 Alpha  occ. eigenvalues --  -19.31758 -19.27110 -14.53825 -10.40583  -1.36526
 Alpha  occ. eigenvalues --   -1.20839  -0.96044  -0.72547  -0.67944  -0.63593
 Alpha  occ. eigenvalues --   -0.61943  -0.55532  -0.51301  -0.42979  -0.34782
 Alpha virt. eigenvalues --   -0.06493   0.11494   0.22012   0.30311   0.38159
 Alpha virt. eigenvalues --    0.49144   0.59385   0.64384   0.71338   0.77868
 Alpha virt. eigenvalues --    0.79734   0.80089   0.84798   0.90557   0.94172

 Mulliken charges:
               1
     1  N    0.035139
     2  C    0.283928
     3  O   -0.191019
     4  O   -0.316519
     5  H    0.188472
 Sum of Mulliken charges =   0.00000

 Dipole moment (field-independent basis, Debye):
    X=             -0.7218    Y=              1.9255    Z=             -0.0091  Tot=              2.0564
 Quadrupole moment (field-independent basis, Debye-Ang):
   XX=            -24.4105   YY=            -21.8180   ZZ=            -19.5716
   XY=             -2.9243   XZ=             -0.0088   YZ=             -0.0140

 Normal termination of Gaussian 16 at Wed Jun  5 17:02:40 2019.
