 Gaussian 16, Revision A.03,
 Gaussian 16:  ES64L-G16RevA.03 25-Dec-2016

 ----------------
 # 6-31g(d) wb97x
 ----------------

 -----------------------
 tmpdir/M2_conf_0_79.gjf
 -----------------------
 Symbolic Z-matrix:
 Charge =  0 Multiplicity = 1

                         Standard orientation:
 ---------------------------------------------------------------------
 Center     Atomic      Atomic             Coordinates (Angstroms)
 Number     Number       Type             X           Y           Z
 ---------------------------------------------------------------------
      1          6           0        0.549159   -0.014813   -0.000154
      2          1           0        1.102024    0.922016    0.000309
      3          8           0       -0.680648    0.006795    0.000035
      4          1           0        1.048207   -0.887495    0.000339
 ---------------------------------------------------------------------

 SCF Done:  E(RwB97X) =  -114.458085628     A.U. after   13 cycles

 The electronic state is 1-A.
 Alpha  occ. eigenvalues --  -19.23064 -10.35971  -1.16893  -0.77432  -0.62086
 Alpha  occ. eigenvalues --   -0.54976  -0.49416  -0.36910
 Alpha virt. eigenvalues --    0.05469   0.21848   0.29700   0.31589   0.62178
 Alpha virt. eigenvalues --    0.70694   0.74165   0.78269   0.96400   0.97689
 Alpha virt. eigenvalues --    1.06263   1.07883   1.17780   1.48268   1.60792

 Mulliken charges:
               1
     1  C    0.055264
     2  H    0.138386
     3  O   -0.351509
     4  H    0.157858
 Sum of Mulliken charges =   0.00000

 Dipole moment (field-independent basis, Debye):
    X=              2.4630    Y=             -0.1088    Z=              0.0001  Tot=              2.4654
 Quadrupole moment (field-independent basis, Debye-Ang):
   XX=            -11.7525   YY=            -11.2594   ZZ=            -11.3464
   XY=             -0.0691   XZ=              0.0003   YZ=              0.0000

 Normal termination of Gaussian 16 at Wed Jun  5 17:00:05 2019.
