 Gaussian 16, Revision A.03,
 Gaussian 16:  ES64L-G16RevA.03 25-Dec-2016

 ----------------
 # 6-31g(d) wb97x
 ----------------

 ------------------------
 tmpdir/M2_conf_1_162.gjf
 ------------------------
 Symbolic Z-matrix:
 Charge =  0 Multiplicity = 1

                         Standard orientation:
 ---------------------------------------------------------------------
 Center     Atomic      Atomic             Coordinates (Angstroms)
 Number     Number       Type             X           Y           Z
 ---------------------------------------------------------------------
      1          6           0       -0.649208    0.520169   -0.003918
      2          6           0        0.740916    0.505917   -0.001199
      3          1           0        1.310814    1.427117    0.022927
      4          8           0       -1.358819   -0.531138    0.003159
      5          1           0       -1.194273    1.463399   -0.006748
      6          8           0        1.275470   -0.599741   -0.001343
 ---------------------------------------------------------------------

 SCF Done:  E(RwB97X) =  -227.731840520     A.U. after   16 cycles

 The electronic state is 1-A.
 Alpha  occ. eigenvalues --  -19.25738 -19.25364 -10.38476 -10.38216  -1.21135
 Alpha  occ. eigenvalues --   -1.16093  -0.88100  -0.69695  -0.66838  -0.57967
 Alpha  occ. eigenvalues --   -0.55906  -0.54737  -0.47101  -0.40848  -0.38355
 Alpha virt. eigenvalues --   -0.04215   0.13670   0.20456   0.23656   0.26514
 Alpha virt. eigenvalues --    0.41407   0.48339   0.58922   0.60830   0.67591
 Alpha virt. eigenvalues --    0.68071   0.76231   0.77447   0.86380   0.92941

 Mulliken charges:
               1
     1  C    0.174700
     2  C    0.175363
     3  H    0.169838
     4  O   -0.349306
     5  H    0.155889
     6  O   -0.326485
 Sum of Mulliken charges =  -0.00000

 Dipole moment (field-independent basis, Debye):
    X=              0.4448    Y=              3.7439    Z=             -0.0023  Tot=              3.7702
 Quadrupole moment (field-independent basis, Debye-Ang):
   XX=            -25.4515   YY=            -21.1008   ZZ=            -20.8945
   XY=              0.3281   XZ=              0.0247   YZ=              0.0081

 Normal termination of Gaussian 16 at Wed Jun  5 17:02:41 2019.
