 Gaussian 16, Revision A.03,
 Gaussian 16:  ES64L-G16RevA.03 25-Dec-2016

 ----------------
 # 6-31g(d) wb97x
 ----------------

 ------------------------
 tmpdir/M2_conf_2_133.gjf
 ------------------------
 Symbolic Z-matrix:
 Charge =  0 Multiplicity = 1

                         Standard orientation:
 ---------------------------------------------------------------------
 Center     Atomic      Atomic             Coordinates (Angstroms)
 Number     Number       Type             X           Y           Z
 ---------------------------------------------------------------------
      1          6           0       -0.228511    0.437321    0.000333
      2          6           0        1.164699   -0.139765   -0.000137
      3          1           0        1.367456   -0.756237    0.885929
      4          1           0       -0.367592    1.433252   -0.000933
      5          8           0       -1.234867   -0.294647    0.000429
      6          1           0        1.910250    0.660012   -0.006584
      7          1           0        1.351698   -0.765192   -0.883020
 ---------------------------------------------------------------------

 SCF Done:  E(RwB97X) =  -153.774204836     A.U. after   14 cycles

 The electronic state is 1-A.
 Alpha  occ. eigenvalues --  -19.21282 -10.35873 -10.28020  -1.15122  -0.88035
 Alpha  occ. eigenvalues --   -0.72398  -0.58913  -0.54992  -0.54007  -0.49827
 Alpha  occ. eigenvalues --   -0.45442  -0.35653
 Alpha virt. eigenvalues --    0.06178   0.20878   0.22491   0.27216   0.28302
 Alpha virt. eigenvalues --    0.34900   0.36670   0.63160   0.63527   0.67905
 Alpha virt. eigenvalues --    0.72203   0.75795   0.83072   0.87542   0.96227

 Mulliken charges:
               1
     1  C    0.226528
     2  C   -0.562720
     3  H    0.205816
     4  H    0.155943
     5  O   -0.396481
     6  H    0.165110
     7  H    0.205805
 Sum of Mulliken charges =  -0.00000

 Dipole moment (field-independent basis, Debye):
    X=              2.5058    Y=              1.2390    Z=             -0.0001  Tot=              2.7954
 Quadrupole moment (field-independent basis, Debye-Ang):
   XX=            -20.6557   YY=            -17.3281   ZZ=            -17.4702
   XY=             -1.4204   XZ=              0.0145   YZ=              0.0038

 Normal termination of Gaussian 16 at Wed Jun  5 17:04:41 2019.
