 Gaussian 16, Revision A.03,
 Gaussian 16:  ES64L-G16RevA.03 25-Dec-2016

 ----------------
 # 6-31g(d) wb97x
 ----------------

 ------------------------
 tmpdir/M2_conf_1_119.gjf
 ------------------------
 Symbolic Z-matrix:
 Charge =  0 Multiplicity = 1

                         Standard orientation:
 ---------------------------------------------------------------------
 Center     Atomic      Atomic             Coordinates (Angstroms)
 Number     Number       Type             X           Y           Z
 ---------------------------------------------------------------------
      1          6           0       -0.686115    0.477632   -0.001473
      2          6           0        0.704675    0.494903    0.001091
      3          6           0       -1.407180   -0.708367    0.001107
      4          1           0       -1.221398    1.424845   -0.001967
      5          1           0        1.246155    1.442738    0.003074
      6          6           0        1.384493   -0.742099   -0.000910
 ---------------------------------------------------------------------

 SCF Done:  E(RwB97X) =  -153.244687936     A.U. after   19 cycles

 The electronic state is 1-A.
 Alpha  occ. eigenvalues --  -10.36647 -10.36008 -10.31465 -10.31014  -0.97948
 Alpha  occ. eigenvalues --   -0.84317  -0.72409  -0.60244  -0.59417  -0.46689
 Alpha  occ. eigenvalues --   -0.42536  -0.40059  -0.33118
 Alpha virt. eigenvalues --   -0.03442   0.00529   0.02425   0.16760   0.20824
 Alpha virt. eigenvalues --    0.25130   0.34965   0.45917   0.47769   0.58477
 Alpha virt. eigenvalues --    0.60931   0.63266   0.66114   0.66572   0.69231

 Mulliken charges:
               1
     1  C   -0.274669
     2  C   -0.264860
     3  C    0.032781
     4  H    0.236116
     5  H    0.233099
     6  C    0.037533
 Sum of Mulliken charges =   0.00000

 Dipole moment (field-independent basis, Debye):
    X=              0.1496    Y=              3.4584    Z=              0.0012  Tot=              3.4616
 Quadrupole moment (field-independent basis, Debye-Ang):
   XX=            -24.2342   YY=            -23.3829   ZZ=            -25.4962
   XY=             -0.1172   XZ=              0.0183   YZ=              0.0026

 Normal termination of Gaussian 16 at Wed Jun  5 17:02:32 2019.
