 Gaussian 16, Revision A.03,
 Gaussian 16:  ES64L-G16RevA.03 25-Dec-2016

 ----------------
 # 6-31g(d) wb97x
 ----------------

 ------------------------
 tmpdir/M2_conf_2_160.gjf
 ------------------------
 Symbolic Z-matrix:
 Charge =  0 Multiplicity = 1

                         Standard orientation:
 ---------------------------------------------------------------------
 Center     Atomic      Atomic             Coordinates (Angstroms)
 Number     Number       Type             X           Y           Z
 ---------------------------------------------------------------------
      1          6           0        0.549733    0.012630   -0.003023
      2          1           0        1.148777   -0.887880    0.006355
      3          1           0        0.977408    0.923589    0.006438
      4          8           0       -0.678073   -0.013936    0.000668
 ---------------------------------------------------------------------

 SCF Done:  E(RwB97X) =  -114.457291937     A.U. after   14 cycles

 The electronic state is 1-A.
 Alpha  occ. eigenvalues --  -19.22945 -10.35830  -1.16970  -0.77229  -0.62373
 Alpha  occ. eigenvalues --   -0.54873  -0.49433  -0.36833
 Alpha virt. eigenvalues --    0.05569   0.21897   0.29405   0.31964   0.62197
 Alpha virt. eigenvalues --    0.70576   0.74508   0.78274   0.96088   0.98806
 Alpha virt. eigenvalues --    1.06271   1.07938   1.17817   1.48362   1.61052

 Mulliken charges:
               1
     1  C    0.055001
     2  H    0.142661
     3  H    0.155052
     4  O   -0.352714
 Sum of Mulliken charges =  -0.00000

 Dipole moment (field-independent basis, Debye):
    X=              2.4572    Y=              0.1028    Z=              0.0014  Tot=              2.4594
 Quadrupole moment (field-independent basis, Debye-Ang):
   XX=            -11.7722   YY=            -11.2222   ZZ=            -11.3386
   XY=             -0.0593   XZ=              0.0052   YZ=              0.0003

 Normal termination of Gaussian 16 at Wed Jun  5 17:04:33 2019.
