 Gaussian 16, Revision A.03,
 Gaussian 16:  ES64L-G16RevA.03 25-Dec-2016

 ----------------
 # 6-31g(d) wb97x
 ----------------

 -----------------------
 tmpdir/M2_conf_0_96.gjf
 -----------------------
 Symbolic Z-matrix:
 Charge =  0 Multiplicity = 1

                         Standard orientation:
 ---------------------------------------------------------------------
 Center     Atomic      Atomic             Coordinates (Angstroms)
 Number     Number       Type             X           Y           Z
 ---------------------------------------------------------------------
      1          6           0       -0.901450   -0.596988    0.176012
      2          6           0        0.425010    0.098952    0.057791
      3          7           0        1.582913   -0.620419   -0.075830
      4          1           0       -1.011892   -1.529411    0.551674
      5          8           0       -1.898759    0.024592   -0.184471
      6          8           0        0.500355    1.318317    0.062887
      7          1           0        1.471022   -1.604202   -0.270055
      8          1           0        2.506350   -0.278502   -0.180945
 ---------------------------------------------------------------------

 SCF Done:  E(RwB97X) =  -283.110156907     A.U. after   17 cycles

 The electronic state is 1-A.
 Alpha  occ. eigenvalues --  -19.24615 -19.19438 -14.45138 -10.39267 -10.38032
 Alpha  occ. eigenvalues --   -1.19812  -1.16303  -1.04702  -0.83652  -0.71622
 Alpha  occ. eigenvalues --   -0.67374  -0.64724  -0.56702  -0.54749  -0.53094
 Alpha  occ. eigenvalues --   -0.48677  -0.39989  -0.38304  -0.36037
 Alpha virt. eigenvalues --    0.00835   0.14727   0.17463   0.21885   0.24638
 Alpha virt. eigenvalues --    0.31354   0.36578   0.44585   0.48679   0.61480
 Alpha virt. eigenvalues --    0.62832   0.69843   0.72157   0.74689   0.78277

 Mulliken charges:
               1
     1  C    0.162742
     2  C    0.515055
     3  N   -0.776590
     4  H    0.168347
     5  O   -0.333851
     6  O   -0.452210
     7  H    0.339565
     8  H    0.376943
 Sum of Mulliken charges =  -0.00000

 Dipole moment (field-independent basis, Debye):
    X=              2.8096    Y=             -4.6061    Z=              0.1725  Tot=              5.3981
 Quadrupole moment (field-independent basis, Debye-Ang):
   XX=            -26.7263   YY=            -27.9130   ZZ=            -27.6143
   XY=             -1.2169   XZ=             -2.1802   YZ=              0.2440

 Normal termination of Gaussian 16 at Wed Jun  5 16:59:56 2019.
