 Gaussian 16, Revision A.03,
 Gaussian 16:  ES64L-G16RevA.03 25-Dec-2016

 ----------------
 # 6-31g(d) wb97x
 ----------------

 -----------------------
 tmpdir/M2_conf_2_95.gjf
 -----------------------
 Symbolic Z-matrix:
 Charge =  0 Multiplicity = 1

                         Standard orientation:
 ---------------------------------------------------------------------
 Center     Atomic      Atomic             Coordinates (Angstroms)
 Number     Number       Type             X           Y           Z
 ---------------------------------------------------------------------
      1          6           0       -0.757538    0.503702   -0.088426
      2          6           0        0.735288    0.490637    0.082182
      3          8           0        1.384567   -0.532556   -0.072937
      4          1           0       -1.283183    1.327610   -0.348417
      5          8           0       -1.353487   -0.558700    0.076142
      6          1           0        1.168045    1.436402    0.360244
 ---------------------------------------------------------------------

 SCF Done:  E(RwB97X) =  -227.740829211     A.U. after   16 cycles

 The electronic state is 1-A.
 Alpha  occ. eigenvalues --  -19.25439 -19.25019 -10.38709 -10.37857  -1.20896
 Alpha  occ. eigenvalues --   -1.17753  -0.85450  -0.71416  -0.65935  -0.57698
 Alpha  occ. eigenvalues --   -0.56650  -0.54056  -0.48618  -0.42024  -0.36890
 Alpha virt. eigenvalues --   -0.01800   0.11283   0.22128   0.23703   0.28858
 Alpha virt. eigenvalues --    0.39280   0.42759   0.60134   0.63731   0.66995
 Alpha virt. eigenvalues --    0.72477   0.75894   0.76949   0.84424   0.94325

 Mulliken charges:
               1
     1  C    0.166070
     2  C    0.184129
     3  O   -0.335045
     4  H    0.171213
     5  O   -0.337006
     6  H    0.150640
 Sum of Mulliken charges =  -0.00000

 Dipole moment (field-independent basis, Debye):
    X=             -0.1725    Y=              3.7400    Z=             -0.0451  Tot=              3.7443
 Quadrupole moment (field-independent basis, Debye-Ang):
   XX=            -25.7123   YY=            -21.0338   ZZ=            -20.7997
   XY=             -0.3308   XZ=              0.7267   YZ=             -0.0260

 Normal termination of Gaussian 16 at Wed Jun  5 17:04:00 2019.
