 Gaussian 16, Revision A.03,
 Gaussian 16:  ES64L-G16RevA.03 25-Dec-2016

 ----------------
 # 6-31g(d) wb97x
 ----------------

 ------------------------
 tmpdir/M2_conf_2_137.gjf
 ------------------------
 Symbolic Z-matrix:
 Charge =  0 Multiplicity = 1

                         Standard orientation:
 ---------------------------------------------------------------------
 Center     Atomic      Atomic             Coordinates (Angstroms)
 Number     Number       Type             X           Y           Z
 ---------------------------------------------------------------------
      1          6           0       -0.186257    0.468629   -0.003530
      2          7           0        1.090890   -0.132616    0.000088
      3          1           0       -0.323160    1.470596   -0.010421
      4          8           0       -1.161086   -0.304802    0.003616
      5          1           0        1.109947   -1.140926   -0.024657
      6          1           0        1.983217    0.225287    0.026711
 ---------------------------------------------------------------------

 SCF Done:  E(RwB97X) =  -169.824514689     A.U. after   15 cycles

 The electronic state is 1-A.
 Alpha  occ. eigenvalues --  -19.18316 -14.43028 -10.37759  -1.14631  -1.01914
 Alpha  occ. eigenvalues --   -0.75987  -0.67009  -0.59503  -0.51522  -0.50153
 Alpha  occ. eigenvalues --   -0.36332  -0.35784
 Alpha virt. eigenvalues --    0.10826   0.19021   0.23555   0.26686   0.35292
 Alpha virt. eigenvalues --    0.41487   0.64607   0.64740   0.74724   0.77840
 Alpha virt. eigenvalues --    0.82943   0.84434   0.98705   1.00444   1.02508

 Mulliken charges:
               1
     1  C    0.357988
     2  N   -0.767229
     3  H    0.168022
     4  O   -0.462793
     5  H    0.357581
     6  H    0.346433
 Sum of Mulliken charges =  -0.00000

 Dipole moment (field-independent basis, Debye):
    X=              3.4735    Y=              1.2094    Z=             -0.0088  Tot=              3.6780
 Quadrupole moment (field-independent basis, Debye-Ang):
   XX=            -17.0171   YY=            -14.5998   ZZ=            -18.4340
   XY=             -1.8888   XZ=              0.0716   YZ=              0.0741

 Normal termination of Gaussian 16 at Wed Jun  5 17:04:31 2019.
