 Gaussian 16, Revision A.03,
 Gaussian 16:  ES64L-G16RevA.03 25-Dec-2016

 ----------------
 # 6-31g(d) wb97x
 ----------------

 ------------------------
 tmpdir/M2_conf_2_188.gjf
 ------------------------
 Symbolic Z-matrix:
 Charge =  0 Multiplicity = 1

                         Standard orientation:
 ---------------------------------------------------------------------
 Center     Atomic      Atomic             Coordinates (Angstroms)
 Number     Number       Type             X           Y           Z
 ---------------------------------------------------------------------
      1          1           0        1.155173    1.450381    0.001458
      2          6           0        0.633337    0.494325    0.001436
      3          7           0       -0.700942    0.543875   -0.001633
      4          8           0        1.261552   -0.558956   -0.000664
      5          8           0       -1.267627   -0.468976    0.000833
 ---------------------------------------------------------------------

 SCF Done:  E(RwB97X) =  -243.698347816     A.U. after   24 cycles

 The electronic state is 1-A.
 Alpha  occ. eigenvalues --  -19.31948 -19.27124 -14.53970 -10.40640  -1.36697
 Alpha  occ. eigenvalues --   -1.20944  -0.96527  -0.72256  -0.68049  -0.63808
 Alpha  occ. eigenvalues --   -0.62097  -0.55430  -0.51351  -0.42877  -0.35039
 Alpha virt. eigenvalues --   -0.06726   0.11693   0.21744   0.30456   0.38366
 Alpha virt. eigenvalues --    0.49206   0.59293   0.64948   0.71326   0.77799
 Alpha virt. eigenvalues --    0.79465   0.80095   0.84774   0.90378   0.93867

 Mulliken charges:
               1
     1  H    0.184318
     2  C    0.281535
     3  N    0.039055
     4  O   -0.314238
     5  O   -0.190669
 Sum of Mulliken charges =  -0.00000

 Dipole moment (field-independent basis, Debye):
    X=              0.6492    Y=              1.8640    Z=              0.0084  Tot=              1.9738
 Quadrupole moment (field-independent basis, Debye-Ang):
   XX=            -24.4642   YY=            -21.8914   ZZ=            -19.5766
   XY=              2.8472   XZ=             -0.0066   YZ=              0.0144

 Normal termination of Gaussian 16 at Wed Jun  5 17:05:17 2019.
