 Gaussian 16, Revision A.03,
 Gaussian 16:  ES64L-G16RevA.03 25-Dec-2016

 ----------------
 # 6-31g(d) wb97x
 ----------------

 -----------------------
 tmpdir/M2_conf_0_51.gjf
 -----------------------
 Symbolic Z-matrix:
 Charge =  0 Multiplicity = 1

                         Standard orientation:
 ---------------------------------------------------------------------
 Center     Atomic      Atomic             Coordinates (Angstroms)
 Number     Number       Type             X           Y           Z
 ---------------------------------------------------------------------
      1          7           0        0.744971   -0.007077   -0.115228
      2          6           0       -0.707831   -0.006504    0.011284
      3          1           0        1.159431    0.838765    0.275368
      4          1           0        1.164012   -0.831240    0.317434
      5          1           0       -1.030300   -0.129136    1.064206
      6          1           0       -1.068254    0.980309   -0.309647
      7          1           0       -1.192695   -0.770136   -0.608470
 ---------------------------------------------------------------------

 SCF Done:  E(RwB97X) =  -95.8212464025     A.U. after   12 cycles

 The electronic state is 1-A.
 Alpha  occ. eigenvalues --  -14.38099 -10.28090  -0.99214  -0.77546  -0.59732
 Alpha  occ. eigenvalues --   -0.53617  -0.50833  -0.46737  -0.32207
 Alpha virt. eigenvalues --    0.18428   0.23977   0.24982   0.27994   0.29384
 Alpha virt. eigenvalues --    0.34212   0.66114   0.67064   0.69927   0.84973
 Alpha virt. eigenvalues --    0.87611   0.90308   0.97793   1.02848   1.04044

 Mulliken charges:
               1
     1  N   -0.744635
     2  C   -0.325748
     3  H    0.309187
     4  H    0.307475
     5  H    0.128795
     6  H    0.159538
     7  H    0.165388
 Sum of Mulliken charges =   0.00000

 Dipole moment (field-independent basis, Debye):
    X=             -0.1445    Y=              0.0824    Z=              1.3649  Tot=              1.3750
 Quadrupole moment (field-independent basis, Debye-Ang):
   XX=            -13.4192   YY=            -12.2398   ZZ=            -15.2669
   XY=              0.0560   XZ=              2.0728   YZ=             -0.0013

 Normal termination of Gaussian 16 at Wed Jun  5 16:59:19 2019.
