 Gaussian 16, Revision A.03,
 Gaussian 16:  ES64L-G16RevA.03 25-Dec-2016

 ----------------
 # 6-31g(d) wb97x
 ----------------

 ------------------------
 tmpdir/M2_conf_0_131.gjf
 ------------------------
 Symbolic Z-matrix:
 Charge =  0 Multiplicity = 1

                         Standard orientation:
 ---------------------------------------------------------------------
 Center     Atomic      Atomic             Coordinates (Angstroms)
 Number     Number       Type             X           Y           Z
 ---------------------------------------------------------------------
      1          6           0       -0.227892    0.437337    0.000224
      2          6           0        1.165054   -0.140386   -0.000143
      3          1           0        1.910829    0.659178   -0.006337
      4          1           0       -0.366517    1.433333   -0.000726
      5          8           0       -1.234581   -0.294167    0.000034
      6          1           0        1.351900   -0.765737   -0.883104
      7          1           0        1.357464   -0.755142    0.889416
 ---------------------------------------------------------------------

 SCF Done:  E(RwB97X) =  -153.774305508     A.U. after   14 cycles

 The electronic state is 1-A.
 Alpha  occ. eigenvalues --  -19.21276 -10.35860 -10.28022  -1.15118  -0.88041
 Alpha  occ. eigenvalues --   -0.72378  -0.58899  -0.55041  -0.53974  -0.49840
 Alpha  occ. eigenvalues --   -0.45446  -0.35644
 Alpha virt. eigenvalues --    0.06194   0.20870   0.22505   0.27204   0.28281
 Alpha virt. eigenvalues --    0.34900   0.36654   0.63196   0.63519   0.67907
 Alpha virt. eigenvalues --    0.72161   0.75803   0.83096   0.87475   0.96234

 Mulliken charges:
               1
     1  C    0.226001
     2  C   -0.561924
     3  H    0.165161
     4  H    0.155778
     5  O   -0.396593
     6  H    0.205857
     7  H    0.205719
 Sum of Mulliken charges =  -0.00000

 Dipole moment (field-independent basis, Debye):
    X=              2.5041    Y=              1.2392    Z=              0.0011  Tot=              2.7939
 Quadrupole moment (field-independent basis, Debye-Ang):
   XX=            -20.6738   YY=            -17.3315   ZZ=            -17.4593
   XY=             -1.4057   XZ=              0.0040   YZ=              0.0014

 Normal termination of Gaussian 16 at Wed Jun  5 17:00:14 2019.
