 Gaussian 16, Revision A.03,
 Gaussian 16:  ES64L-G16RevA.03 25-Dec-2016

 ----------------
 # 6-31g(d) wb97x
 ----------------

 -----------------------
 tmpdir/M2_conf_2_33.gjf
 -----------------------
 Symbolic Z-matrix:
 Charge =  0 Multiplicity = 1

                         Standard orientation:
 ---------------------------------------------------------------------
 Center     Atomic      Atomic             Coordinates (Angstroms)
 Number     Number       Type             X           Y           Z
 ---------------------------------------------------------------------
      1          6           0       -0.000366    0.002434   -0.001658
      2          1           0       -0.144379   -0.417115    0.999911
      3          1           0        1.109445   -0.055089   -0.267690
      4          1           0       -0.616501   -0.590085   -0.707713
      5          1           0       -0.346371    1.047684   -0.014561
 ---------------------------------------------------------------------

 SCF Done:  E(RwB97X) =  -40.4976884532     A.U. after   11 cycles

 The electronic state is 1-A.
 Alpha  occ. eigenvalues --  -10.25702  -0.81240  -0.49493  -0.49203  -0.48780
 Alpha virt. eigenvalues --    0.21090   0.26424   0.27066   0.27428   0.63980
 Alpha virt. eigenvalues --    0.64272   0.65606   0.98787   1.00680   1.01420
 Alpha virt. eigenvalues --    1.05054   1.20211   1.76017   1.76265   2.29825

 Mulliken charges:
               1
     1  C   -0.658812
     2  H    0.167994
     3  H    0.157755
     4  H    0.165329
     5  H    0.167734
 Sum of Mulliken charges =  -0.00000

 Dipole moment (field-independent basis, Debye):
    X=             -0.0374    Y=             -0.0052    Z=              0.0281  Tot=              0.0470
 Quadrupole moment (field-independent basis, Debye-Ang):
   XX=             -8.2122   YY=             -8.3037   ZZ=             -8.3855
   XY=             -0.0019   XZ=              0.0150   YZ=             -0.0108

 Normal termination of Gaussian 16 at Wed Jun  5 17:03:36 2019.
