 Gaussian 16, Revision A.03,
 Gaussian 16:  ES64L-G16RevA.03 25-Dec-2016

 ----------------
 # 6-31g(d) wb97x
 ----------------

 ------------------------
 tmpdir/M2_conf_1_117.gjf
 ------------------------
 Symbolic Z-matrix:
 Charge =  0 Multiplicity = 1

                         Standard orientation:
 ---------------------------------------------------------------------
 Center     Atomic      Atomic             Coordinates (Angstroms)
 Number     Number       Type             X           Y           Z
 ---------------------------------------------------------------------
      1          1           0       -1.243772    0.929335    0.004796
      2          6           0       -0.695447   -0.010372   -0.001046
      3          6           0        0.692553   -0.009326   -0.000372
      4          1           0       -1.188050   -0.890153    0.000582
      5          1           0        1.222960    0.940624   -0.000736
      6          1           0        1.226228   -0.861616    0.003867
 ---------------------------------------------------------------------

 SCF Done:  E(RwB97X) =  -78.5434031745     A.U. after   12 cycles

 The electronic state is 1-A.
 Alpha  occ. eigenvalues --  -10.26588 -10.26507  -0.87835  -0.71047  -0.58509
 Alpha  occ. eigenvalues --   -0.51062  -0.47250  -0.35719
 Alpha virt. eigenvalues --    0.10059   0.22260   0.26363   0.27097   0.35077
 Alpha virt. eigenvalues --    0.41044   0.59676   0.66098   0.66573   0.74674
 Alpha virt. eigenvalues --    0.75699   0.77987   0.99849   1.00362   1.08645

 Mulliken charges:
               1
     1  H    0.163651
     2  C   -0.332563
     3  C   -0.332648
     4  H    0.170027
     5  H    0.159918
     6  H    0.171615
 Sum of Mulliken charges =   0.00000

 Dipole moment (field-independent basis, Debye):
    X=              0.0057    Y=             -0.0426    Z=              0.0082  Tot=              0.0437
 Quadrupole moment (field-independent basis, Debye-Ang):
   XX=            -11.8766   YY=            -11.9053   ZZ=            -15.1007
   XY=             -0.0644   XZ=             -0.0027   YZ=             -0.0001

 Normal termination of Gaussian 16 at Wed Jun  5 17:02:20 2019.
