 Gaussian 16, Revision A.03,
 Gaussian 16:  ES64L-G16RevA.03 25-Dec-2016

 ----------------
 # 6-31g(d) wb97x
 ----------------

 ------------------------
 tmpdir/M2_conf_2_104.gjf
 ------------------------
 Symbolic Z-matrix:
 Charge =  0 Multiplicity = 1

                         Standard orientation:
 ---------------------------------------------------------------------
 Center     Atomic      Atomic             Coordinates (Angstroms)
 Number     Number       Type             X           Y           Z
 ---------------------------------------------------------------------
      1          6           0        0.689576    0.484742   -0.004796
      2          6           0       -0.702411    0.481010   -0.000210
      3          1           0        1.196901    1.473549    0.022900
      4          6           0        1.399787   -0.715455    0.000130
      5          1           0       -1.256987    1.417042   -0.006505
      6          6           0       -1.376937   -0.732062    0.002144
 ---------------------------------------------------------------------

 SCF Done:  E(RwB97X) =  -153.246590019     A.U. after   18 cycles

 The electronic state is 1-A.
 Alpha  occ. eigenvalues --  -10.36241 -10.36114 -10.31418 -10.31091  -0.98109
 Alpha  occ. eigenvalues --   -0.84412  -0.72495  -0.60217  -0.59067  -0.46824
 Alpha  occ. eigenvalues --   -0.42526  -0.40059  -0.33250
 Alpha virt. eigenvalues --   -0.03466   0.00560   0.02638   0.16921   0.20548
 Alpha virt. eigenvalues --    0.24941   0.35484   0.45823   0.48026   0.58262
 Alpha virt. eigenvalues --    0.60870   0.63509   0.65987   0.66594   0.69178

 Mulliken charges:
               1
     1  C   -0.270881
     2  C   -0.265223
     3  H    0.234762
     4  C    0.033008
     5  H    0.235397
     6  C    0.032938
 Sum of Mulliken charges =   0.00000

 Dipole moment (field-independent basis, Debye):
    X=             -0.0828    Y=              3.5122    Z=              0.0170  Tot=              3.5133
 Quadrupole moment (field-independent basis, Debye-Ang):
   XX=            -24.2190   YY=            -23.3561   ZZ=            -25.4744
   XY=             -0.0195   XZ=              0.0767   YZ=              0.0435

 Normal termination of Gaussian 16 at Wed Jun  5 17:04:30 2019.
