 Gaussian 16, Revision A.03,
 Gaussian 16:  ES64L-G16RevA.03 25-Dec-2016

 ----------------
 # 6-31g(d) wb97x
 ----------------

 ------------------------
 tmpdir/M2_conf_2_140.gjf
 ------------------------
 Symbolic Z-matrix:
 Charge =  0 Multiplicity = 1

                         Standard orientation:
 ---------------------------------------------------------------------
 Center     Atomic      Atomic             Coordinates (Angstroms)
 Number     Number       Type             X           Y           Z
 ---------------------------------------------------------------------
      1          6           0       -1.240212   -0.233139    0.002318
      2          6           0       -0.057052    0.536560   -0.003004
      3          7           0        1.151736   -0.173867    0.000072
      4          1           0       -2.120800    0.252450    0.002269
      5          1           0       -1.210181   -1.324310    0.007851
      6          1           0       -0.099340    1.546965   -0.007657
      7          1           0        1.078776   -1.179660   -0.026979
      8          1           0        2.072973    0.101096    0.028124
 ---------------------------------------------------------------------

 SCF Done:  E(RwB97X) =  -133.873954939     A.U. after   15 cycles

 The electronic state is 1-A.
 Alpha  occ. eigenvalues --  -14.40416 -10.30310 -10.22767  -1.02310  -0.84140
 Alpha  occ. eigenvalues --   -0.70825  -0.64232  -0.56806  -0.49528  -0.48268
 Alpha  occ. eigenvalues --   -0.43331  -0.27449
 Alpha virt. eigenvalues --    0.13357   0.19592   0.23406   0.25538   0.29077
 Alpha virt. eigenvalues --    0.32384   0.42107   0.44094   0.61825   0.68370
 Alpha virt. eigenvalues --    0.68921   0.73680   0.76223   0.77702   0.85566

 Mulliken charges:
               1
     1  C   -0.445497
     2  C    0.089355
     3  N   -0.783221
     4  H    0.151583
     5  H    0.133463
     6  H    0.176051
     7  H    0.336943
     8  H    0.341322
 Sum of Mulliken charges =  -0.00000

 Dipole moment (field-independent basis, Debye):
    X=              1.6664    Y=              0.0254    Z=              0.0051  Tot=              1.6666
 Quadrupole moment (field-independent basis, Debye-Ang):
   XX=            -15.9616   YY=            -15.5943   ZZ=            -22.2654
   XY=             -0.7451   XZ=              0.0698   YZ=              0.0592

 Normal termination of Gaussian 16 at Wed Jun  5 17:04:28 2019.
