 Gaussian 16, Revision A.03,
 Gaussian 16:  ES64L-G16RevA.03 25-Dec-2016

 ----------------
 # 6-31g(d) wb97x
 ----------------

 ------------------------
 tmpdir/M2_conf_0_194.gjf
 ------------------------
 Symbolic Z-matrix:
 Charge =  0 Multiplicity = 1

                         Standard orientation:
 ---------------------------------------------------------------------
 Center     Atomic      Atomic             Coordinates (Angstroms)
 Number     Number       Type             X           Y           Z
 ---------------------------------------------------------------------
      1          7           0        0.691363   -0.136031   -0.001212
      2          6           0       -0.628501    0.041870   -0.002985
      3          1           0       -1.213353   -0.877581    0.012066
      4          1           0        1.224584    0.631806    0.010726
      5          1           0       -1.079767    0.946771    0.003600
 ---------------------------------------------------------------------

 SCF Done:  E(RwB97X) =  -94.5759416691     A.U. after   14 cycles

 The electronic state is 1-A.
 Alpha  occ. eigenvalues --  -14.40043 -10.31710  -1.01369  -0.76694  -0.62056
 Alpha  occ. eigenvalues --   -0.54203  -0.41658  -0.36517
 Alpha virt. eigenvalues --    0.07293   0.22042   0.24466   0.29553   0.39678
 Alpha virt. eigenvalues --    0.65561   0.68020   0.71910   0.77439   0.84358
 Alpha virt. eigenvalues --    0.87413   0.97083   1.07178   1.09118   1.18212

 Mulliken charges:
               1
     1  N   -0.505095
     2  C   -0.157826
     3  H    0.176225
     4  H    0.317794
     5  H    0.168902
 Sum of Mulliken charges =   0.00000

 Dipole moment (field-independent basis, Debye):
    X=             -1.2293    Y=              1.6861    Z=              0.0268  Tot=              2.0869
 Quadrupole moment (field-independent basis, Debye-Ang):
   XX=            -11.3470   YY=            -12.0842   ZZ=            -13.2827
   XY=              2.0729   XZ=              0.0085   YZ=              0.0020

 Normal termination of Gaussian 16 at Wed Jun  5 17:01:12 2019.
