 Gaussian 16, Revision A.03,
 Gaussian 16:  ES64L-G16RevA.03 25-Dec-2016

 ----------------
 # 6-31g(d) wb97x
 ----------------

 -----------------------
 tmpdir/M2_conf_1_83.gjf
 -----------------------
 Symbolic Z-matrix:
 Charge =  0 Multiplicity = 1

                         Standard orientation:
 ---------------------------------------------------------------------
 Center     Atomic      Atomic             Coordinates (Angstroms)
 Number     Number       Type             X           Y           Z
 ---------------------------------------------------------------------
      1          1           0        1.221223    1.450641    0.015748
      2          6           0        0.690605    0.500423    0.003736
      3          6           0       -0.698166    0.500712   -0.005068
      4          8           0        1.329266   -0.550747   -0.003091
      5          1           0       -1.259546    1.430685   -0.011525
      6          8           0       -1.318805   -0.560270    0.003562
 ---------------------------------------------------------------------

 SCF Done:  E(RwB97X) =  -227.737651394     A.U. after   14 cycles

 The electronic state is 1-A.
 Alpha  occ. eigenvalues --  -19.25524 -19.25461 -10.38105 -10.38021  -1.21558
 Alpha  occ. eigenvalues --   -1.17524  -0.88043  -0.69276  -0.67181  -0.58188
 Alpha  occ. eigenvalues --   -0.56331  -0.55181  -0.47866  -0.41127  -0.38185
 Alpha virt. eigenvalues --   -0.03800   0.14335   0.20552   0.23881   0.27213
 Alpha virt. eigenvalues --    0.41919   0.48870   0.58825   0.61270   0.67453
 Alpha virt. eigenvalues --    0.69453   0.77489   0.77953   0.86072   0.92793

 Mulliken charges:
               1
     1  H    0.153124
     2  C    0.181129
     3  C    0.174657
     4  O   -0.334625
     5  H    0.158242
     6  O   -0.332527
 Sum of Mulliken charges =  -0.00000

 Dipole moment (field-independent basis, Debye):
    X=             -0.0552    Y=              3.6246    Z=             -0.0013  Tot=              3.6250
 Quadrupole moment (field-independent basis, Debye-Ang):
   XX=            -25.5338   YY=            -21.2147   ZZ=            -20.8076
   XY=             -0.0778   XZ=              0.0277   YZ=              0.0011

 Normal termination of Gaussian 16 at Wed Jun  5 17:02:09 2019.
