 Gaussian 16, Revision A.03,
 Gaussian 16:  ES64L-G16RevA.03 25-Dec-2016

 ----------------
 # 6-31g(d) wb97x
 ----------------

 ------------------------
 tmpdir/M2_conf_2_158.gjf
 ------------------------
 Symbolic Z-matrix:
 Charge =  0 Multiplicity = 1

                         Standard orientation:
 ---------------------------------------------------------------------
 Center     Atomic      Atomic             Coordinates (Angstroms)
 Number     Number       Type             X           Y           Z
 ---------------------------------------------------------------------
      1          7           0       -1.416937   -0.470545    0.001770
      2          6           0       -0.629400    0.595121   -0.003771
      3          6           0        0.758109    0.508707   -0.000692
      4          1           0       -0.972335   -1.302652    0.012477
      5          1           0       -1.133694    1.560767   -0.005360
      6          1           0        1.375996    1.398385    0.025011
      7          8           0        1.234543   -0.623206   -0.002217
 ---------------------------------------------------------------------

 SCF Done:  E(RwB97X) =  -207.866390024     A.U. after   14 cycles

 The electronic state is 1-A.
 Alpha  occ. eigenvalues --  -19.23982 -14.42706 -10.37550 -10.33387  -1.19311
 Alpha  occ. eigenvalues --   -1.03969  -0.85483  -0.71003  -0.65345  -0.59661
 Alpha  occ. eigenvalues --   -0.53825  -0.53309  -0.42217  -0.40013  -0.38217
 Alpha virt. eigenvalues --   -0.01862   0.15303   0.20803   0.24368   0.25124
 Alpha virt. eigenvalues --    0.32696   0.44092   0.47935   0.60501   0.62782
 Alpha virt. eigenvalues --    0.69134   0.69993   0.73936   0.77820   0.82504

 Mulliken charges:
               1
     1  N   -0.467905
     2  C   -0.038051
     3  C    0.211956
     4  H    0.341351
     5  H    0.181506
     6  H    0.161431
     7  O   -0.390289
 Sum of Mulliken charges =  -0.00000

 Dipole moment (field-independent basis, Debye):
    X=              0.6301    Y=              2.1127    Z=              0.0209  Tot=              2.2048
 Quadrupole moment (field-independent basis, Debye-Ang):
   XX=            -28.8908   YY=            -19.5021   ZZ=            -22.6077
   XY=              1.9550   XZ=              0.0064   YZ=             -0.0196

 Normal termination of Gaussian 16 at Wed Jun  5 17:04:53 2019.
