 Gaussian 16, Revision A.03,
 Gaussian 16:  ES64L-G16RevA.03 25-Dec-2016

 ----------------
 # 6-31g(d) wb97x
 ----------------

 ------------------------
 tmpdir/M2_conf_1_142.gjf
 ------------------------
 Symbolic Z-matrix:
 Charge =  0 Multiplicity = 1

                         Standard orientation:
 ---------------------------------------------------------------------
 Center     Atomic      Atomic             Coordinates (Angstroms)
 Number     Number       Type             X           Y           Z
 ---------------------------------------------------------------------
      1          7           0        1.080343   -0.188045   -0.000548
      2          6           0       -0.148937    0.426645   -0.001914
      3          1           0        1.356747   -1.130023   -0.001887
      4          1           0        1.822378    0.495308    0.008525
      5          8           0       -1.220815   -0.261566    0.001079
      6          1           0       -0.081381    1.483689    0.000054
 ---------------------------------------------------------------------

 SCF Done:  E(RwB97X) =  -169.829118190     A.U. after   15 cycles

 The electronic state is 1-A.
 Alpha  occ. eigenvalues --  -19.17968 -14.44195 -10.38041  -1.13011  -1.03262
 Alpha  occ. eigenvalues --   -0.76687  -0.65275  -0.61096  -0.50518  -0.50099
 Alpha  occ. eigenvalues --   -0.36471  -0.35189
 Alpha virt. eigenvalues --    0.10876   0.17544   0.20677   0.27919   0.35330
 Alpha virt. eigenvalues --    0.43350   0.64583   0.65618   0.74403   0.75559
 Alpha virt. eigenvalues --    0.80317   0.82421   0.96268   0.98929   0.99899

 Mulliken charges:
               1
     1  N   -0.724985
     2  C    0.339486
     3  H    0.373257
     4  H    0.336460
     5  O   -0.480306
     6  H    0.156088
 Sum of Mulliken charges =  -0.00000

 Dipole moment (field-independent basis, Debye):
    X=              4.0837    Y=              1.1601    Z=              0.0068  Tot=              4.2453
 Quadrupole moment (field-independent basis, Debye-Ang):
   XX=            -17.6066   YY=            -14.3791   ZZ=            -18.5095
   XY=             -1.3975   XZ=              0.0296   YZ=              0.0142

 Normal termination of Gaussian 16 at Wed Jun  5 17:02:29 2019.
