 Gaussian 16, Revision A.03,
 Gaussian 16:  ES64L-G16RevA.03 25-Dec-2016

 ----------------
 # 6-31g(d) wb97x
 ----------------

 ------------------------
 tmpdir/M2_conf_2_139.gjf
 ------------------------
 Symbolic Z-matrix:
 Charge =  0 Multiplicity = 1

                         Standard orientation:
 ---------------------------------------------------------------------
 Center     Atomic      Atomic             Coordinates (Angstroms)
 Number     Number       Type             X           Y           Z
 ---------------------------------------------------------------------
      1          6           0       -0.834983   -0.633629   -0.000840
      2          6           0        0.372300    0.069476   -0.000651
      3          7           0        1.628131   -0.554036    0.001900
      4          8           0       -1.897351   -0.014728    0.003192
      5          1           0       -0.827918   -1.711093   -0.004829
      6          8           0        0.381736    1.313834   -0.004113
      7          1           0        2.430152    0.057062    0.033506
      8          1           0        1.901867   -1.475650   -0.025668
 ---------------------------------------------------------------------

 SCF Done:  E(RwB97X) =  -283.103438209     A.U. after   18 cycles

 The electronic state is 1-A.
 Alpha  occ. eigenvalues --  -19.24788 -19.20120 -14.44952 -10.39546 -10.38034
 Alpha  occ. eigenvalues --   -1.20222  -1.15679  -1.04218  -0.86222  -0.71304
 Alpha  occ. eigenvalues --   -0.67475  -0.63652  -0.56446  -0.56130  -0.53180
 Alpha  occ. eigenvalues --   -0.47761  -0.39384  -0.38061  -0.37332
 Alpha virt. eigenvalues --   -0.00978   0.17066   0.17914   0.22063   0.23804
 Alpha virt. eigenvalues --    0.30186   0.36366   0.44923   0.52099   0.60110
 Alpha virt. eigenvalues --    0.60340   0.71275   0.71711   0.75069   0.78240

 Mulliken charges:
               1
     1  C    0.175791
     2  C    0.547463
     3  N   -0.805099
     4  O   -0.335010
     5  H    0.154354
     6  O   -0.458166
     7  H    0.369585
     8  H    0.351081
 Sum of Mulliken charges =  -0.00000

 Dipole moment (field-independent basis, Debye):
    X=              3.2906    Y=             -4.2504    Z=             -0.0011  Tot=              5.3753
 Quadrupole moment (field-independent basis, Debye-Ang):
   XX=            -26.2469   YY=            -27.8994   ZZ=            -27.8221
   XY=             -1.2584   XZ=              0.0668   YZ=              0.1122

 Normal termination of Gaussian 16 at Wed Jun  5 17:04:54 2019.
