 Gaussian 16, Revision A.03,
 Gaussian 16:  ES64L-G16RevA.03 25-Dec-2016

 ----------------
 # 6-31g(d) wb97x
 ----------------

 -----------------------
 tmpdir/M2_conf_2_80.gjf
 -----------------------
 Symbolic Z-matrix:
 Charge =  0 Multiplicity = 1

                         Standard orientation:
 ---------------------------------------------------------------------
 Center     Atomic      Atomic             Coordinates (Angstroms)
 Number     Number       Type             X           Y           Z
 ---------------------------------------------------------------------
      1          6           0        0.694043    0.482735    0.003839
      2          6           0       -0.697628    0.481744   -0.005134
      3          6           0        1.408681   -0.715402   -0.003972
      4          1           0        1.232392    1.428590    0.015946
      5          1           0       -1.259860    1.411214   -0.011625
      6          6           0       -1.400518   -0.722378    0.004546
 ---------------------------------------------------------------------

 SCF Done:  E(RwB97X) =  -153.247233111     A.U. after   18 cycles

 The electronic state is 1-A.
 Alpha  occ. eigenvalues --  -10.36256 -10.36226 -10.31219 -10.31154  -0.97973
 Alpha  occ. eigenvalues --   -0.84609  -0.72286  -0.60460  -0.59466  -0.46741
 Alpha  occ. eigenvalues --   -0.42478  -0.40073  -0.33255
 Alpha virt. eigenvalues --   -0.03293   0.00435   0.02564   0.16863   0.20899
 Alpha virt. eigenvalues --    0.25085   0.35186   0.46127   0.47961   0.58284
 Alpha virt. eigenvalues --    0.60879   0.62998   0.66193   0.66600   0.69161

 Mulliken charges:
               1
     1  C   -0.270702
     2  C   -0.269690
     3  C    0.034977
     4  H    0.235178
     5  H    0.235221
     6  C    0.035016
 Sum of Mulliken charges =  -0.00000

 Dipole moment (field-independent basis, Debye):
    X=             -0.0310    Y=              3.4400    Z=              0.0044  Tot=              3.4401
 Quadrupole moment (field-independent basis, Debye-Ang):
   XX=            -24.3353   YY=            -23.3656   ZZ=            -25.4704
   XY=             -0.0142   XZ=              0.0914   YZ=              0.0118

 Normal termination of Gaussian 16 at Wed Jun  5 17:03:55 2019.
