 Gaussian 16, Revision A.03,
 Gaussian 16:  ES64L-G16RevA.03 25-Dec-2016

 ----------------
 # 6-31g(d) wb97x
 ----------------

 ------------------------
 tmpdir/M2_conf_0_132.gjf
 ------------------------
 Symbolic Z-matrix:
 Charge =  0 Multiplicity = 1

                         Standard orientation:
 ---------------------------------------------------------------------
 Center     Atomic      Atomic             Coordinates (Angstroms)
 Number     Number       Type             X           Y           Z
 ---------------------------------------------------------------------
      1          6           0       -0.228152    0.437333    0.000192
      2          6           0        1.164905   -0.140123   -0.000144
      3          1           0        1.356024   -0.766146   -0.881716
      4          1           0       -0.366969    1.433302   -0.000667
      5          8           0       -1.234702   -0.294368   -0.000133
      6          1           0        1.910669    0.659459   -0.006210
      7          1           0        1.357376   -0.754932    0.889366
 ---------------------------------------------------------------------

 SCF Done:  E(RwB97X) =  -153.774266707     A.U. after   14 cycles

 The electronic state is 1-A.
 Alpha  occ. eigenvalues --  -19.21278 -10.35866 -10.28021  -1.15120  -0.88038
 Alpha  occ. eigenvalues --   -0.72387  -0.58905  -0.55021  -0.53987  -0.49835
 Alpha  occ. eigenvalues --   -0.45444  -0.35648
 Alpha virt. eigenvalues --    0.06187   0.20874   0.22499   0.27209   0.28289
 Alpha virt. eigenvalues --    0.34900   0.36661   0.63182   0.63522   0.67907
 Alpha virt. eigenvalues --    0.72178   0.75799   0.83087   0.87503   0.96232

 Mulliken charges:
               1
     1  C    0.226224
     2  C   -0.562258
     3  H    0.205895
     4  H    0.155847
     5  O   -0.396548
     6  H    0.165144
     7  H    0.205696
 Sum of Mulliken charges =  -0.00000

 Dipole moment (field-independent basis, Debye):
    X=              2.5048    Y=              1.2391    Z=              0.0016  Tot=              2.7945
 Quadrupole moment (field-independent basis, Debye-Ang):
   XX=            -20.6662   YY=            -17.3302   ZZ=            -17.4637
   XY=             -1.4118   XZ=             -0.0003   YZ=              0.0003

 Normal termination of Gaussian 16 at Wed Jun  5 17:00:21 2019.
