 Gaussian 16, Revision A.03,
 Gaussian 16:  ES64L-G16RevA.03 25-Dec-2016

 ----------------
 # 6-31g(d) wb97x
 ----------------

 ------------------------
 tmpdir/M2_conf_1_136.gjf
 ------------------------
 Symbolic Z-matrix:
 Charge =  0 Multiplicity = 1

                         Standard orientation:
 ---------------------------------------------------------------------
 Center     Atomic      Atomic             Coordinates (Angstroms)
 Number     Number       Type             X           Y           Z
 ---------------------------------------------------------------------
      1          1           0       -0.467212   -0.780396   -0.607226
      2          6           0        0.011704    0.001938   -0.003738
      3          1           0       -0.528852    0.936832   -0.203811
      4          1           0        1.079824    0.084957   -0.213071
      5          1           0       -0.153982   -0.253020    1.046536
 ---------------------------------------------------------------------

 SCF Done:  E(RwB97X) =  -40.4989614774     A.U. after   10 cycles

 The electronic state is 1-A.
 Alpha  occ. eigenvalues --  -10.24978  -0.81722  -0.50283  -0.49090  -0.48975
 Alpha virt. eigenvalues --    0.21587   0.27238   0.27391   0.27815   0.63866
 Alpha virt. eigenvalues --    0.63988   0.64522   1.01095   1.01370   1.02471
 Alpha virt. eigenvalues --    1.06957   1.20879   1.75784   1.75925   2.34112

 Mulliken charges:
               1
     1  H    0.165228
     2  C   -0.667155
     3  H    0.165420
     4  H    0.170607
     5  H    0.165900
 Sum of Mulliken charges =   0.00000

 Dipole moment (field-independent basis, Debye):
    X=             -0.0364    Y=             -0.0082    Z=              0.0174  Tot=              0.0412
 Quadrupole moment (field-independent basis, Debye-Ang):
   XX=             -8.0959   YY=             -8.3371   ZZ=             -8.3397
   XY=              0.0037   XZ=             -0.0108   YZ=             -0.0029

 Normal termination of Gaussian 16 at Wed Jun  5 17:02:18 2019.
