 Gaussian 16, Revision A.03,
 Gaussian 16:  ES64L-G16RevA.03 25-Dec-2016

 ----------------
 # 6-31g(d) wb97x
 ----------------

 ------------------------
 tmpdir/M2_conf_0_184.gjf
 ------------------------
 Symbolic Z-matrix:
 Charge =  0 Multiplicity = 1

                         Standard orientation:
 ---------------------------------------------------------------------
 Center     Atomic      Atomic             Coordinates (Angstroms)
 Number     Number       Type             X           Y           Z
 ---------------------------------------------------------------------
      1          6           0        0.542280   -0.007679   -0.000612
      2          1           0        1.101753    0.924984    0.001212
      3          8           0       -0.684090    0.000841    0.000145
      4          1           0        1.117284   -0.885643    0.001299
 ---------------------------------------------------------------------

 SCF Done:  E(RwB97X) =  -114.463442356     A.U. after   14 cycles

 The electronic state is 1-A.
 Alpha  occ. eigenvalues --  -19.23374 -10.36522  -1.17220  -0.77072  -0.61279
 Alpha  occ. eigenvalues --   -0.55373  -0.49687  -0.37002
 Alpha virt. eigenvalues --    0.05465   0.21362   0.29163   0.31499   0.62014
 Alpha virt. eigenvalues --    0.71803   0.73150   0.79050   0.95791   0.96323
 Alpha virt. eigenvalues --    1.03470   1.07730   1.17474   1.48323   1.60885

 Mulliken charges:
               1
     1  C    0.057514
     2  H    0.137426
     3  O   -0.344967
     4  H    0.150027
 Sum of Mulliken charges =  -0.00000

 Dipole moment (field-independent basis, Debye):
    X=              2.4376    Y=             -0.0566    Z=              0.0002  Tot=              2.4382
 Quadrupole moment (field-independent basis, Debye-Ang):
   XX=            -11.7250   YY=            -11.3939   ZZ=            -11.3836
   XY=             -0.0775   XZ=              0.0011   YZ=              0.0001

 Normal termination of Gaussian 16 at Wed Jun  5 17:00:58 2019.
