 Gaussian 16, Revision A.03,
 Gaussian 16:  ES64L-G16RevA.03 25-Dec-2016

 ----------------
 # 6-31g(d) wb97x
 ----------------

 -----------------------
 tmpdir/M2_conf_2_63.gjf
 -----------------------
 Symbolic Z-matrix:
 Charge =  0 Multiplicity = 1

                         Standard orientation:
 ---------------------------------------------------------------------
 Center     Atomic      Atomic             Coordinates (Angstroms)
 Number     Number       Type             X           Y           Z
 ---------------------------------------------------------------------
      1          1           0        1.515567   -0.183868    1.033574
      2          6           0        1.163899   -0.143318   -0.006324
      3          6           0       -0.233426    0.441307   -0.005698
      4          1           0        1.912378    0.481419   -0.598888
      5          1           0        1.126480   -1.191321   -0.364024
      6          1           0       -0.369713    1.441679    0.031590
      7          8           0       -1.220944   -0.291981   -0.003765
 ---------------------------------------------------------------------

 SCF Done:  E(RwB97X) =  -153.775816684     A.U. after   15 cycles

 The electronic state is 1-A.
 Alpha  occ. eigenvalues --  -19.21319 -10.35795 -10.28506  -1.15953  -0.87522
 Alpha  occ. eigenvalues --   -0.72121  -0.58802  -0.54829  -0.53636  -0.50063
 Alpha  occ. eigenvalues --   -0.45754  -0.35620
 Alpha virt. eigenvalues --    0.07013   0.20328   0.23397   0.25392   0.26184
 Alpha virt. eigenvalues --    0.34934   0.37675   0.63306   0.64053   0.70074
 Alpha virt. eigenvalues --    0.70901   0.76795   0.82579   0.85598   0.95043

 Mulliken charges:
               1
     1  H    0.195038
     2  C   -0.562242
     3  C    0.240495
     4  H    0.167536
     5  H    0.201521
     6  H    0.149463
     7  O   -0.391812
 Sum of Mulliken charges =   0.00000

 Dipole moment (field-independent basis, Debye):
    X=              2.3935    Y=              1.3072    Z=              0.1250  Tot=              2.7300
 Quadrupole moment (field-independent basis, Debye-Ang):
   XX=            -20.7073   YY=            -17.3079   ZZ=            -17.6188
   XY=             -1.1394   XZ=              0.1168   YZ=             -0.0433

 Normal termination of Gaussian 16 at Wed Jun  5 17:04:07 2019.
