 Gaussian 16, Revision A.03,
 Gaussian 16:  ES64L-G16RevA.03 25-Dec-2016

 ----------------
 # 6-31g(d) wb97x
 ----------------

 -----------------------
 tmpdir/M2_conf_2_87.gjf
 -----------------------
 Symbolic Z-matrix:
 Charge =  0 Multiplicity = 1

                         Standard orientation:
 ---------------------------------------------------------------------
 Center     Atomic      Atomic             Coordinates (Angstroms)
 Number     Number       Type             X           Y           Z
 ---------------------------------------------------------------------
      1          6           0        0.794242    0.483013    0.003742
      2          6           0       -0.586635    0.630907   -0.004834
      3          6           0       -1.428206   -0.480727    0.005155
      4          8           0        1.307436   -0.634790   -0.003035
      5          1           0        1.430890    1.365715    0.015458
      6          1           0       -1.045990    1.615284   -0.011248
      7          1           0       -1.020800   -1.406308   -0.002429
      8          1           0       -2.499996   -0.295535   -0.001883
 ---------------------------------------------------------------------

 SCF Done:  E(RwB97X) =  -191.837080105     A.U. after   15 cycles

 The electronic state is 1-A.
 Alpha  occ. eigenvalues --  -19.20514 -10.35082 -10.30097 -10.28724  -1.15751
 Alpha  occ. eigenvalues --   -0.92327  -0.79631  -0.66472  -0.63533  -0.55474
 Alpha  occ. eigenvalues --   -0.52478  -0.50470  -0.49315  -0.37065  -0.35722
 Alpha virt. eigenvalues --    0.00940   0.17446   0.20111   0.23903   0.26965
 Alpha virt. eigenvalues --    0.30379   0.34772   0.40927   0.46608   0.61961
 Alpha virt. eigenvalues --    0.63132   0.68273   0.68798   0.70752   0.74407

 Mulliken charges:
               1
     1  C    0.212050
     2  C   -0.195486
     3  C   -0.298129
     4  O   -0.417642
     5  H    0.135337
     6  H    0.168067
     7  H    0.213603
     8  H    0.182199
 Sum of Mulliken charges =  -0.00000

 Dipole moment (field-independent basis, Debye):
    X=             -2.1894    Y=              1.7246    Z=              0.0048  Tot=              2.7871
 Quadrupole moment (field-independent basis, Debye-Ang):
   XX=            -23.2423   YY=            -21.8809   ZZ=            -24.3081
   XY=              3.0320   XZ=              0.0301   YZ=             -0.0055

 Normal termination of Gaussian 16 at Wed Jun  5 17:04:08 2019.
