 Gaussian 16, Revision A.03,
 Gaussian 16:  ES64L-G16RevA.03 25-Dec-2016

 ----------------
 # 6-31g(d) wb97x
 ----------------

 ----------------------
 tmpdir/M2_conf_0_7.gjf
 ----------------------
 Symbolic Z-matrix:
 Charge =  0 Multiplicity = 1

                         Standard orientation:
 ---------------------------------------------------------------------
 Center     Atomic      Atomic             Coordinates (Angstroms)
 Number     Number       Type             X           Y           Z
 ---------------------------------------------------------------------
      1          1           0       -1.188374   -0.801762    0.611849
      2          6           0       -0.761116   -0.001250   -0.003735
      3          6           0        0.760651   -0.001765    0.007043
      4          1           0       -1.085859   -0.165119   -1.049271
      5          1           0       -1.129485    1.006442    0.395260
      6          1           0        1.128708   -0.941551   -0.421762
      7          1           0        1.112118    0.051721    1.056991
      8          1           0        1.165677    0.868365   -0.612918
 ---------------------------------------------------------------------

 SCF Done:  E(RwB97X) =  -79.7968227442     A.U. after   12 cycles

 The electronic state is 1-A.
 Alpha  occ. eigenvalues --  -10.26091 -10.26073  -0.87874  -0.72432  -0.54462
 Alpha  occ. eigenvalues --   -0.54051  -0.46105  -0.43890  -0.43650
 Alpha virt. eigenvalues --    0.19200   0.24998   0.25373   0.26016   0.28055
 Alpha virt. eigenvalues --    0.28376   0.33620   0.61364   0.65903   0.66505
 Alpha virt. eigenvalues --    0.73315   0.75193   0.78873   0.97243   0.98860

 Mulliken charges:
               1
     1  H    0.158555
     2  C   -0.457770
     3  C   -0.458137
     4  H    0.153997
     5  H    0.145240
     6  H    0.156261
     7  H    0.154048
     8  H    0.147806
 Sum of Mulliken charges =   0.00000

 Dipole moment (field-independent basis, Debye):
    X=              0.0015    Y=             -0.0752    Z=              0.0007  Tot=              0.0753
 Quadrupole moment (field-independent basis, Debye-Ang):
   XX=            -15.7286   YY=            -14.6821   ZZ=            -14.6583
   XY=              0.0845   XZ=             -0.1116   YZ=             -0.0068

 Normal termination of Gaussian 16 at Wed Jun  5 16:59:25 2019.
