 Gaussian 16, Revision A.03,
 Gaussian 16:  ES64L-G16RevA.03 25-Dec-2016

 ----------------
 # 6-31g(d) wb97x
 ----------------

 ------------------------
 tmpdir/M2_conf_2_157.gjf
 ------------------------
 Symbolic Z-matrix:
 Charge =  0 Multiplicity = 1

                         Standard orientation:
 ---------------------------------------------------------------------
 Center     Atomic      Atomic             Coordinates (Angstroms)
 Number     Number       Type             X           Y           Z
 ---------------------------------------------------------------------
      1          7           0        0.688187   -0.140706   -0.000652
      2          6           0       -0.624190    0.042482   -0.000694
      3          1           0       -1.222074   -0.868177    0.004050
      4          1           0        1.207101    0.647258    0.004612
      5          1           0       -1.057194    0.950969    0.000069
 ---------------------------------------------------------------------

 SCF Done:  E(RwB97X) =  -94.5784791109     A.U. after   13 cycles

 The electronic state is 1-A.
 Alpha  occ. eigenvalues --  -14.40093 -10.31524  -1.01618  -0.76462  -0.62129
 Alpha  occ. eigenvalues --   -0.54131  -0.41833  -0.36700
 Alpha virt. eigenvalues --    0.07476   0.21847   0.24434   0.29793   0.39780
 Alpha virt. eigenvalues --    0.65501   0.68116   0.72420   0.77264   0.84414
 Alpha virt. eigenvalues --    0.87433   0.97136   1.07103   1.08956   1.17177

 Mulliken charges:
               1
     1  N   -0.501255
     2  C   -0.158374
     3  H    0.175487
     4  H    0.315819
     5  H    0.168324
 Sum of Mulliken charges =   0.00000

 Dipole moment (field-independent basis, Debye):
    X=             -1.2481    Y=              1.7041    Z=              0.0098  Tot=              2.1123
 Quadrupole moment (field-independent basis, Debye-Ang):
   XX=            -11.4604   YY=            -12.0451   ZZ=            -13.2716
   XY=              2.0858   XZ=              0.0056   YZ=              0.0008

 Normal termination of Gaussian 16 at Wed Jun  5 17:04:46 2019.
