 Gaussian 16, Revision A.03,
 Gaussian 16:  ES64L-G16RevA.03 25-Dec-2016

 ----------------
 # 6-31g(d) wb97x
 ----------------

 ------------------------
 tmpdir/M2_conf_0_173.gjf
 ------------------------
 Symbolic Z-matrix:
 Charge =  0 Multiplicity = 1

                         Standard orientation:
 ---------------------------------------------------------------------
 Center     Atomic      Atomic             Coordinates (Angstroms)
 Number     Number       Type             X           Y           Z
 ---------------------------------------------------------------------
      1          6           0        1.425786   -0.504280    0.002437
      2          6           0        0.629029    0.641128   -0.006566
      3          6           0       -0.760632    0.499236   -0.000728
      4          1           0        2.508012   -0.425678    0.008962
      5          1           0        0.979934   -1.403740    0.004616
      6          1           0        1.079542    1.616830   -0.001637
      7          8           0       -1.366039   -0.622758   -0.001502
      8          1           0       -1.404273    1.378151    0.029219
 ---------------------------------------------------------------------

 SCF Done:  E(RwB97X) =  -191.833889211     A.U. after   16 cycles

 The electronic state is 1-A.
 Alpha  occ. eigenvalues --  -19.20477 -10.35548 -10.30476 -10.29341  -1.13230
 Alpha  occ. eigenvalues --   -0.92783  -0.79896  -0.66909  -0.63316  -0.55283
 Alpha  occ. eigenvalues --   -0.52465  -0.49411  -0.49183  -0.37119  -0.35520
 Alpha virt. eigenvalues --    0.00353   0.16580   0.20070   0.24066   0.26765
 Alpha virt. eigenvalues --    0.29910   0.34244   0.41072   0.45592   0.62060
 Alpha virt. eigenvalues --    0.62267   0.68477   0.68915   0.69609   0.73710

 Mulliken charges:
               1
     1  C   -0.296473
     2  C   -0.190143
     3  C    0.201250
     4  H    0.185497
     5  H    0.217011
     6  H    0.177936
     7  O   -0.438115
     8  H    0.143035
 Sum of Mulliken charges =  -0.00000

 Dipole moment (field-independent basis, Debye):
    X=              2.5267    Y=              1.7457    Z=              0.0229  Tot=              3.0712
 Quadrupole moment (field-independent basis, Debye-Ang):
   XX=            -23.5348   YY=            -21.6526   ZZ=            -24.3835
   XY=             -3.2073   XZ=              0.0079   YZ=              0.0016

 Normal termination of Gaussian 16 at Wed Jun  5 17:01:09 2019.
