 Gaussian 16, Revision A.03,
 Gaussian 16:  ES64L-G16RevA.03 25-Dec-2016

 ----------------
 # 6-31g(d) wb97x
 ----------------

 -----------------------
 tmpdir/M2_conf_1_23.gjf
 -----------------------
 Symbolic Z-matrix:
 Charge =  0 Multiplicity = 1

                         Standard orientation:
 ---------------------------------------------------------------------
 Center     Atomic      Atomic             Coordinates (Angstroms)
 Number     Number       Type             X           Y           Z
 ---------------------------------------------------------------------
      1          6           0       -1.226127   -0.213182    0.020469
      2          7           0       -0.001014    0.539129   -0.151400
      3          6           0        1.227919   -0.218865    0.018049
      4          1           0       -1.329868   -0.637652    1.037910
      5          1           0       -1.257376   -1.038956   -0.698571
      6          1           0       -2.088635    0.435219   -0.168102
      7          1           0        0.037371    1.337045    0.479297
      8          1           0        1.229444   -1.051521   -0.695385
      9          1           0        1.300892   -0.647775    1.037816
     10          1           0        2.104521    0.422023   -0.164272
 ---------------------------------------------------------------------

 SCF Done:  E(RwB97X) =  -135.120580029     A.U. after   13 cycles

 The electronic state is 1-A.
 Alpha  occ. eigenvalues --  -14.38625 -10.28051 -10.28006  -1.02069  -0.82339
 Alpha  occ. eigenvalues --   -0.74189  -0.59524  -0.54763  -0.53593  -0.48881
 Alpha  occ. eigenvalues --   -0.46647  -0.46155  -0.30813
 Alpha virt. eigenvalues --    0.18162   0.23404   0.25100   0.25186   0.26733
 Alpha virt. eigenvalues --    0.28823   0.29299   0.31361   0.36992   0.62267
 Alpha virt. eigenvalues --    0.64796   0.68315   0.69625   0.70563   0.84620

 Mulliken charges:
               1
     1  C   -0.321918
     2  N   -0.552608
     3  C   -0.323356
     4  H    0.123743
     5  H    0.160265
     6  H    0.164441
     7  H    0.303554
     8  H    0.158920
     9  H    0.123619
    10  H    0.163340
 Sum of Mulliken charges =   0.00000

 Dipole moment (field-independent basis, Debye):
    X=              0.0143    Y=             -0.1320    Z=              1.0010  Tot=              1.0097
 Quadrupole moment (field-independent basis, Debye-Ang):
   XX=            -19.4150   YY=            -19.9800   ZZ=            -21.6489
   XY=              0.1268   XZ=              0.0397   YZ=              2.0170

 Normal termination of Gaussian 16 at Wed Jun  5 17:01:52 2019.
