 Gaussian 16, Revision A.03,
 Gaussian 16:  ES64L-G16RevA.03 25-Dec-2016

 ----------------
 # 6-31g(d) wb97x
 ----------------

 ------------------------
 tmpdir/M2_conf_2_129.gjf
 ------------------------
 Symbolic Z-matrix:
 Charge =  0 Multiplicity = 1

                         Standard orientation:
 ---------------------------------------------------------------------
 Center     Atomic      Atomic             Coordinates (Angstroms)
 Number     Number       Type             X           Y           Z
 ---------------------------------------------------------------------
      1          6           0        0.011048    0.000241   -0.004212
      2          1           0       -0.443545   -0.866559   -0.494486
      3          1           0        1.090189    0.042038   -0.163297
      4          1           0       -0.216084   -0.075722    1.062635
      5          1           0       -0.496851    0.898794   -0.379582
 ---------------------------------------------------------------------

 SCF Done:  E(RwB97X) =  -40.4990432216     A.U. after   11 cycles

 The electronic state is 1-A.
 Alpha  occ. eigenvalues --  -10.24941  -0.81745  -0.50232  -0.49131  -0.49030
 Alpha virt. eigenvalues --    0.21610   0.27320   0.27401   0.27808   0.63839
 Alpha virt. eigenvalues --    0.63993   0.64463   1.01256   1.01420   1.02458
 Alpha virt. eigenvalues --    1.07070   1.20901   1.75786   1.75871   2.34272

 Mulliken charges:
               1
     1  C   -0.667434
     2  H    0.166226
     3  H    0.170311
     4  H    0.165643
     5  H    0.165254
 Sum of Mulliken charges =  -0.00000

 Dipole moment (field-independent basis, Debye):
    X=             -0.0357    Y=             -0.0040    Z=              0.0185  Tot=              0.0404
 Quadrupole moment (field-independent basis, Debye-Ang):
   XX=             -8.1048   YY=             -8.3151   ZZ=             -8.3456
   XY=              0.0051   XZ=             -0.0067   YZ=              0.0029

 Normal termination of Gaussian 16 at Wed Jun  5 17:04:53 2019.
