 Gaussian 16, Revision A.03,
 Gaussian 16:  ES64L-G16RevA.03 25-Dec-2016

 ----------------
 # 6-31g(d) wb97x
 ----------------

 ------------------------
 tmpdir/M2_conf_2_124.gjf
 ------------------------
 Symbolic Z-matrix:
 Charge =  0 Multiplicity = 1

                         Standard orientation:
 ---------------------------------------------------------------------
 Center     Atomic      Atomic             Coordinates (Angstroms)
 Number     Number       Type             X           Y           Z
 ---------------------------------------------------------------------
      1          6           0        0.703725   -0.012019   -0.000177
      2          6           0       -0.708570   -0.008130   -0.000146
      3          1           0        1.174620   -0.900548    0.000949
      4          1           0        1.276156    0.917450    0.000078
      5          1           0       -1.226514   -0.876727    0.000069
      6          1           0       -1.195189    0.980716    0.000840
 ---------------------------------------------------------------------

 SCF Done:  E(RwB97X) =  -78.5394500495     A.U. after   12 cycles

 The electronic state is 1-A.
 Alpha  occ. eigenvalues --  -10.27067 -10.26851  -0.87379  -0.70914  -0.58493
 Alpha  occ. eigenvalues --   -0.50385  -0.47528  -0.35320
 Alpha virt. eigenvalues --    0.09573   0.21831   0.26266   0.26965   0.34778
 Alpha virt. eigenvalues --    0.39949   0.60076   0.66479   0.66820   0.74441
 Alpha virt. eigenvalues --    0.75556   0.76662   0.99292   1.00159   1.07805

 Mulliken charges:
               1
     1  C   -0.334923
     2  C   -0.334858
     3  H    0.169815
     4  H    0.165135
     5  H    0.174136
     6  H    0.160694
 Sum of Mulliken charges =   0.00000

 Dipole moment (field-independent basis, Debye):
    X=              0.0193    Y=             -0.0454    Z=              0.0019  Tot=              0.0494
 Quadrupole moment (field-independent basis, Debye-Ang):
   XX=            -11.9785   YY=            -11.8197   ZZ=            -15.1972
   XY=              0.1386   XZ=              0.0002   YZ=             -0.0000

 Normal termination of Gaussian 16 at Wed Jun  5 17:04:46 2019.
