 Gaussian 16, Revision A.03,
 Gaussian 16:  ES64L-G16RevA.03 25-Dec-2016

 ----------------
 # 6-31g(d) wb97x
 ----------------

 ------------------------
 tmpdir/M2_conf_0_128.gjf
 ------------------------
 Symbolic Z-matrix:
 Charge =  0 Multiplicity = 1

                         Standard orientation:
 ---------------------------------------------------------------------
 Center     Atomic      Atomic             Coordinates (Angstroms)
 Number     Number       Type             X           Y           Z
 ---------------------------------------------------------------------
      1          6           0       -0.011138    0.000162   -0.004195
      2          1           0        0.202769   -0.037564    1.066903
      3          1           0       -1.088664   -0.001080   -0.178935
      4          1           0        0.469873    0.904492   -0.399704
      5          1           0        0.482852   -0.866818   -0.463093
 ---------------------------------------------------------------------

 SCF Done:  E(RwB97X) =  -40.4990273369     A.U. after   11 cycles

 The electronic state is 1-A.
 Alpha  occ. eigenvalues --  -10.24972  -0.81724  -0.50228  -0.49090  -0.49038
 Alpha virt. eigenvalues --    0.21592   0.27285   0.27380   0.27797   0.63836
 Alpha virt. eigenvalues --    0.64047   0.64473   1.01205   1.01334   1.02437
 Alpha virt. eigenvalues --    1.06964   1.20880   1.75799   1.75885   2.34224

 Mulliken charges:
               1
     1  C   -0.667130
     2  H    0.165883
     3  H    0.170413
     4  H    0.165468
     5  H    0.165366
 Sum of Mulliken charges =  -0.00000

 Dipole moment (field-independent basis, Debye):
    X=              0.0347    Y=             -0.0006    Z=              0.0205  Tot=              0.0404
 Quadrupole moment (field-independent basis, Debye-Ang):
   XX=             -8.1066   YY=             -8.3163   ZZ=             -8.3484
   XY=              0.0003   XZ=              0.0092   YZ=             -0.0005

 Normal termination of Gaussian 16 at Wed Jun  5 17:00:38 2019.
