 Gaussian 16, Revision A.03,
 Gaussian 16:  ES64L-G16RevA.03 25-Dec-2016

 ----------------
 # 6-31g(d) wb97x
 ----------------

 -----------------------
 tmpdir/M2_conf_1_68.gjf
 -----------------------
 Symbolic Z-matrix:
 Charge =  0 Multiplicity = 1

                         Standard orientation:
 ---------------------------------------------------------------------
 Center     Atomic      Atomic             Coordinates (Angstroms)
 Number     Number       Type             X           Y           Z
 ---------------------------------------------------------------------
      1          6           0       -0.793441    0.480467   -0.000788
      2          6           0        0.591420    0.654012   -0.005338
      3          6           0        1.398258   -0.484093    0.000036
      4          1           0       -1.429746    1.361641   -0.002760
      5          8           0       -1.280638   -0.643376    0.000885
      6          1           0        1.025282    1.660473    0.027983
      7          1           0        2.481075   -0.374281   -0.008644
      8          1           0        0.991065   -1.403145    0.012875
 ---------------------------------------------------------------------

 SCF Done:  E(RwB97X) =  -191.836972378     A.U. after   15 cycles

 The electronic state is 1-A.
 Alpha  occ. eigenvalues --  -19.20460 -10.35021 -10.29975 -10.28889  -1.16004
 Alpha  occ. eigenvalues --   -0.92159  -0.79526  -0.66555  -0.63185  -0.55709
 Alpha  occ. eigenvalues --   -0.52070  -0.50575  -0.49543  -0.37011  -0.35694
 Alpha virt. eigenvalues --    0.01120   0.17306   0.20315   0.23986   0.26800
 Alpha virt. eigenvalues --    0.30453   0.35163   0.40956   0.45876   0.62063
 Alpha virt. eigenvalues --    0.63617   0.68821   0.68923   0.70369   0.74419

 Mulliken charges:
               1
     1  C    0.216143
     2  C   -0.201330
     3  C   -0.297620
     4  H    0.133335
     5  O   -0.416242
     6  H    0.171047
     7  H    0.179159
     8  H    0.215508
 Sum of Mulliken charges =   0.00000

 Dipole moment (field-independent basis, Debye):
    X=              2.1086    Y=              1.7082    Z=              0.0243  Tot=              2.7138
 Quadrupole moment (field-independent basis, Debye-Ang):
   XX=            -23.3152   YY=            -21.7408   ZZ=            -24.3031
   XY=             -3.1429   XZ=              0.0290   YZ=              0.0311

 Normal termination of Gaussian 16 at Wed Jun  5 17:02:16 2019.
