 Gaussian 16, Revision A.03,
 Gaussian 16:  ES64L-G16RevA.03 25-Dec-2016

 ----------------
 # 6-31g(d) wb97x
 ----------------

 -----------------------
 tmpdir/M2_conf_2_44.gjf
 -----------------------
 Symbolic Z-matrix:
 Charge =  0 Multiplicity = 1

                         Standard orientation:
 ---------------------------------------------------------------------
 Center     Atomic      Atomic             Coordinates (Angstroms)
 Number     Number       Type             X           Y           Z
 ---------------------------------------------------------------------
      1          6           0        0.701314   -0.000103    0.011236
      2          7           0       -0.737913    0.001860   -0.113232
      3          1           0        1.128337    0.892172   -0.472414
      4          1           0        1.097754   -0.902719   -0.466505
      5          1           0        1.006249   -0.016281    1.075493
      6          1           0       -1.121323    0.849984    0.303274
      7          1           0       -1.153510   -0.835559    0.285359
 ---------------------------------------------------------------------

 SCF Done:  E(RwB97X) =  -95.8211558317     A.U. after   13 cycles

 The electronic state is 1-A.
 Alpha  occ. eigenvalues --  -14.37911 -10.27934  -0.99646  -0.77277  -0.60302
 Alpha  occ. eigenvalues --   -0.53655  -0.50673  -0.46956  -0.32047
 Alpha virt. eigenvalues --    0.18421   0.24329   0.25401   0.27612   0.29105
 Alpha virt. eigenvalues --    0.34534   0.66164   0.67876   0.69810   0.84828
 Alpha virt. eigenvalues --    0.87406   0.89523   0.97798   1.02560   1.04680

 Mulliken charges:
               1
     1  C   -0.326646
     2  N   -0.740906
     3  H    0.161984
     4  H    0.161844
     5  H    0.126634
     6  H    0.307306
     7  H    0.309785
 Sum of Mulliken charges =  -0.00000

 Dipole moment (field-independent basis, Debye):
    X=              0.1389    Y=             -0.0154    Z=              1.3437  Tot=              1.3510
 Quadrupole moment (field-independent basis, Debye-Ang):
   XX=            -13.6438   YY=            -12.1053   ZZ=            -15.2719
   XY=              0.0776   XZ=             -2.0447   YZ=              0.0223

 Normal termination of Gaussian 16 at Wed Jun  5 17:03:47 2019.
