 Gaussian 16, Revision A.03,
 Gaussian 16:  ES64L-G16RevA.03 25-Dec-2016

 ----------------
 # 6-31g(d) wb97x
 ----------------

 -----------------------
 tmpdir/M2_conf_0_89.gjf
 -----------------------
 Symbolic Z-matrix:
 Charge =  0 Multiplicity = 1

                         Standard orientation:
 ---------------------------------------------------------------------
 Center     Atomic      Atomic             Coordinates (Angstroms)
 Number     Number       Type             X           Y           Z
 ---------------------------------------------------------------------
      1          6           0       -0.761250    0.483921   -0.089399
      2          6           0        0.741586    0.473483    0.083630
      3          1           0       -1.288145    1.306837   -0.350007
      4          6           0       -1.435234   -0.722387    0.096758
      5          6           0        1.474188   -0.689497   -0.092990
      6          1           0        1.172404    1.420039    0.362013
 ---------------------------------------------------------------------

 SCF Done:  E(RwB97X) =  -153.250562952     A.U. after   18 cycles

 The electronic state is 1-A.
 Alpha  occ. eigenvalues --  -10.36559 -10.36534 -10.32109 -10.31514  -0.96283
 Alpha  occ. eigenvalues --   -0.85599  -0.71217  -0.62428  -0.58459  -0.44824
 Alpha  occ. eigenvalues --   -0.42197  -0.40619  -0.34914
 Alpha virt. eigenvalues --   -0.02091  -0.01006   0.04022   0.13881   0.22730
 Alpha virt. eigenvalues --    0.25043   0.36414   0.39842   0.46735   0.57837
 Alpha virt. eigenvalues --    0.61326   0.62392   0.63757   0.67169   0.69540

 Mulliken charges:
               1
     1  C   -0.271379
     2  C   -0.281117
     3  H    0.231946
     4  C    0.042308
     5  C    0.041978
     6  H    0.236263
 Sum of Mulliken charges =   0.00000

 Dipole moment (field-independent basis, Debye):
    X=             -0.1548    Y=              3.3217    Z=             -0.0023  Tot=              3.3253
 Quadrupole moment (field-independent basis, Debye-Ang):
   XX=            -24.5614   YY=            -23.6608   ZZ=            -25.1232
   XY=             -0.0009   XZ=              1.9779   YZ=              0.1097

 Normal termination of Gaussian 16 at Wed Jun  5 17:00:08 2019.
