 Gaussian 16, Revision A.03,
 Gaussian 16:  ES64L-G16RevA.03 25-Dec-2016

 ----------------
 # 6-31g(d) wb97x
 ----------------

 ------------------------
 tmpdir/M2_conf_0_142.gjf
 ------------------------
 Symbolic Z-matrix:
 Charge =  0 Multiplicity = 1

                         Standard orientation:
 ---------------------------------------------------------------------
 Center     Atomic      Atomic             Coordinates (Angstroms)
 Number     Number       Type             X           Y           Z
 ---------------------------------------------------------------------
      1          7           0        1.077050   -0.188459   -0.000548
      2          6           0       -0.146410    0.426014   -0.001914
      3          1           0        1.351796   -1.130921   -0.001883
      4          1           0        1.820287    0.493587    0.008525
      5          8           0       -1.219497   -0.260310    0.001078
      6          1           0       -0.076995    1.482938    0.000052
 ---------------------------------------------------------------------

 SCF Done:  E(RwB97X) =  -169.829253055     A.U. after   15 cycles

 The electronic state is 1-A.
 Alpha  occ. eigenvalues --  -19.17876 -14.44227 -10.37959  -1.13034  -1.03351
 Alpha  occ. eigenvalues --   -0.76738  -0.65386  -0.61097  -0.50449  -0.50172
 Alpha  occ. eigenvalues --   -0.36457  -0.35130
 Alpha virt. eigenvalues --    0.10970   0.17517   0.20666   0.27948   0.35386
 Alpha virt. eigenvalues --    0.43642   0.64559   0.65556   0.74444   0.75625
 Alpha virt. eigenvalues --    0.80339   0.82386   0.96223   0.98968   0.99906

 Mulliken charges:
               1
     1  N   -0.722116
     2  C    0.338644
     3  H    0.373418
     4  H    0.336636
     5  O   -0.481908
     6  H    0.155326
 Sum of Mulliken charges =  -0.00000

 Dipole moment (field-independent basis, Debye):
    X=              4.1091    Y=              1.1477    Z=              0.0068  Tot=              4.2664
 Quadrupole moment (field-independent basis, Debye-Ang):
   XX=            -17.6083   YY=            -14.3833   ZZ=            -18.4984
   XY=             -1.3914   XZ=              0.0296   YZ=              0.0142

 Normal termination of Gaussian 16 at Wed Jun  5 17:00:24 2019.
