 Gaussian 16, Revision A.03,
 Gaussian 16:  ES64L-G16RevA.03 25-Dec-2016

 ----------------
 # 6-31g(d) wb97x
 ----------------

 ------------------------
 tmpdir/M2_conf_0_145.gjf
 ------------------------
 Symbolic Z-matrix:
 Charge =  0 Multiplicity = 1

                         Standard orientation:
 ---------------------------------------------------------------------
 Center     Atomic      Atomic             Coordinates (Angstroms)
 Number     Number       Type             X           Y           Z
 ---------------------------------------------------------------------
      1          1           0        1.840470    0.476596    0.008578
      2          7           0        1.080237   -0.186458   -0.000544
      3          6           0       -0.148448    0.427629   -0.001943
      4          1           0        1.331232   -1.135530   -0.002017
      5          8           0       -1.220196   -0.260790    0.001097
      6          1           0       -0.081103    1.484684    0.000126
 ---------------------------------------------------------------------

 SCF Done:  E(RwB97X) =  -169.830501993     A.U. after   15 cycles

 The electronic state is 1-A.
 Alpha  occ. eigenvalues --  -19.17979 -14.44197 -10.38011  -1.13026  -1.03237
 Alpha  occ. eigenvalues --   -0.76617  -0.65480  -0.60941  -0.50571  -0.50108
 Alpha  occ. eigenvalues --   -0.36477  -0.35201
 Alpha virt. eigenvalues --    0.10898   0.17588   0.20868   0.27780   0.35334
 Alpha virt. eigenvalues --    0.43417   0.64594   0.65737   0.74468   0.75242
 Alpha virt. eigenvalues --    0.80316   0.82415   0.96383   0.98991   0.99780

 Mulliken charges:
               1
     1  H    0.338170
     2  N   -0.725741
     3  C    0.340940
     4  H    0.372235
     5  O   -0.481074
     6  H    0.155470
 Sum of Mulliken charges =  -0.00000

 Dipole moment (field-independent basis, Debye):
    X=              4.0824    Y=              1.1431    Z=              0.0068  Tot=              4.2394
 Quadrupole moment (field-independent basis, Debye-Ang):
   XX=            -17.5856   YY=            -14.4002   ZZ=            -18.5065
   XY=             -1.3655   XZ=              0.0301   YZ=              0.0143

 Normal termination of Gaussian 16 at Wed Jun  5 17:00:14 2019.
