 Gaussian 16, Revision A.03,
 Gaussian 16:  ES64L-G16RevA.03 25-Dec-2016

 ----------------
 # 6-31g(d) wb97x
 ----------------

 -----------------------
 tmpdir/M2_conf_2_18.gjf
 -----------------------
 Symbolic Z-matrix:
 Charge =  0 Multiplicity = 1

                         Standard orientation:
 ---------------------------------------------------------------------
 Center     Atomic      Atomic             Coordinates (Angstroms)
 Number     Number       Type             X           Y           Z
 ---------------------------------------------------------------------
      1          1           0       -0.983695   -0.026751    1.082452
      2          6           0       -0.705110    0.000555    0.009877
      3          7           0        0.742988    0.002029   -0.116428
      4          1           0       -1.150920    0.895937   -0.451716
      5          1           0       -1.115538   -0.898389   -0.465501
      6          1           0        1.151180   -0.833630    0.287121
      7          1           0        1.128718    0.845297    0.303371
 ---------------------------------------------------------------------

 SCF Done:  E(RwB97X) =  -95.8208807545     A.U. after   13 cycles

 The electronic state is 1-A.
 Alpha  occ. eigenvalues --  -14.37903 -10.28065  -0.99484  -0.77366  -0.60166
 Alpha  occ. eigenvalues --   -0.53412  -0.50777  -0.47076  -0.32043
 Alpha virt. eigenvalues --    0.18431   0.24230   0.25457   0.27512   0.29132
 Alpha virt. eigenvalues --    0.34232   0.66071   0.67770   0.69661   0.84781
 Alpha virt. eigenvalues --    0.87623   0.89240   0.97839   1.02637   1.04765

 Mulliken charges:
               1
     1  H    0.127144
     2  C   -0.328536
     3  N   -0.741982
     4  H    0.162985
     5  H    0.162751
     6  H    0.309998
     7  H    0.307641
 Sum of Mulliken charges =   0.00000

 Dipole moment (field-independent basis, Debye):
    X=             -0.1738    Y=             -0.0137    Z=              1.3672  Tot=              1.3783
 Quadrupole moment (field-independent basis, Debye-Ang):
   XX=            -13.6073   YY=            -12.1251   ZZ=            -15.2884
   XY=             -0.0749   XZ=              2.1007   YZ=              0.0210

 Normal termination of Gaussian 16 at Wed Jun  5 17:03:47 2019.
