 Gaussian 16, Revision A.03,
 Gaussian 16:  ES64L-G16RevA.03 25-Dec-2016

 ----------------
 # 6-31g(d) wb97x
 ----------------

 -----------------------
 tmpdir/M2_conf_2_96.gjf
 -----------------------
 Symbolic Z-matrix:
 Charge =  0 Multiplicity = 1

                         Standard orientation:
 ---------------------------------------------------------------------
 Center     Atomic      Atomic             Coordinates (Angstroms)
 Number     Number       Type             X           Y           Z
 ---------------------------------------------------------------------
      1          6           0       -0.862812   -0.596950    0.178883
      2          6           0        0.440140    0.141114    0.054844
      3          7           0        1.549669   -0.651569   -0.074313
      4          1           0       -0.942043   -1.531287    0.557654
      5          8           0       -1.880661   -0.009034   -0.180663
      6          8           0        0.476053    1.362286    0.056063
      7          1           0        1.374965   -1.628715   -0.255250
      8          1           0        2.492288   -0.370012   -0.187777
 ---------------------------------------------------------------------

 SCF Done:  E(RwB97X) =  -283.113939471     A.U. after   18 cycles

 The electronic state is 1-A.
 Alpha  occ. eigenvalues --  -19.24333 -19.19915 -14.45594 -10.39431 -10.37594
 Alpha  occ. eigenvalues --   -1.19657  -1.16160  -1.05554  -0.83589  -0.71784
 Alpha  occ. eigenvalues --   -0.67326  -0.64824  -0.56559  -0.54564  -0.53553
 Alpha  occ. eigenvalues --   -0.48562  -0.40131  -0.38826  -0.36081
 Alpha virt. eigenvalues --    0.01105   0.14562   0.17279   0.21629   0.24951
 Alpha virt. eigenvalues --    0.31540   0.37451   0.43812   0.48427   0.61853
 Alpha virt. eigenvalues --    0.63949   0.69574   0.71479   0.74581   0.77889

 Mulliken charges:
               1
     1  C    0.155307
     2  C    0.526352
     3  N   -0.781050
     4  H    0.165775
     5  O   -0.337971
     6  O   -0.450958
     7  H    0.347885
     8  H    0.374660
 Sum of Mulliken charges =  -0.00000

 Dipole moment (field-independent basis, Debye):
    X=              2.9607    Y=             -4.6224    Z=              0.1811  Tot=              5.4922
 Quadrupole moment (field-independent basis, Debye-Ang):
   XX=            -26.9418   YY=            -27.9275   ZZ=            -27.6203
   XY=             -1.5418   XZ=             -2.1142   YZ=              0.2725

 Normal termination of Gaussian 16 at Wed Jun  5 17:04:15 2019.
