 Gaussian 16, Revision A.03,
 Gaussian 16:  ES64L-G16RevA.03 25-Dec-2016

 ----------------
 # 6-31g(d) wb97x
 ----------------

 ------------------------
 tmpdir/M2_conf_2_169.gjf
 ------------------------
 Symbolic Z-matrix:
 Charge =  0 Multiplicity = 1

                         Standard orientation:
 ---------------------------------------------------------------------
 Center     Atomic      Atomic             Coordinates (Angstroms)
 Number     Number       Type             X           Y           Z
 ---------------------------------------------------------------------
      1          6           0       -0.697052   -0.003415   -0.002111
      2          6           0        0.694041   -0.007234   -0.000100
      3          1           0       -1.238185    0.925087    0.004200
      4          1           0       -1.169261   -0.897556    0.005987
      5          1           0        1.250098    0.924558    0.002303
      6          1           0        1.175414   -0.888196    0.000776
 ---------------------------------------------------------------------

 SCF Done:  E(RwB97X) =  -78.5426729826     A.U. after   11 cycles

 The electronic state is 1-A.
 Alpha  occ. eigenvalues --  -10.26480 -10.26423  -0.87886  -0.70945  -0.58772
 Alpha  occ. eigenvalues --   -0.50701  -0.47592  -0.35649
 Alpha virt. eigenvalues --    0.10029   0.22370   0.26345   0.27305   0.35186
 Alpha virt. eigenvalues --    0.40692   0.59491   0.66634   0.66720   0.74696
 Alpha virt. eigenvalues --    0.75512   0.77948   1.00366   1.00971   1.08270

 Mulliken charges:
               1
     1  C   -0.333706
     2  C   -0.333637
     3  H    0.165665
     4  H    0.169188
     5  H    0.162906
     6  H    0.169583
 Sum of Mulliken charges =   0.00000

 Dipole moment (field-independent basis, Debye):
    X=              0.0040    Y=             -0.0434    Z=              0.0129  Tot=              0.0455
 Quadrupole moment (field-independent basis, Debye-Ang):
   XX=            -11.9690   YY=            -11.8278   ZZ=            -15.0954
   XY=             -0.0156   XZ=             -0.0088   YZ=             -0.0003

 Normal termination of Gaussian 16 at Wed Jun  5 17:05:30 2019.
