 Gaussian 16, Revision A.03,
 Gaussian 16:  ES64L-G16RevA.03 25-Dec-2016

 ----------------
 # 6-31g(d) wb97x
 ----------------

 -----------------------
 tmpdir/M2_conf_2_25.gjf
 -----------------------
 Symbolic Z-matrix:
 Charge =  0 Multiplicity = 1

                         Standard orientation:
 ---------------------------------------------------------------------
 Center     Atomic      Atomic             Coordinates (Angstroms)
 Number     Number       Type             X           Y           Z
 ---------------------------------------------------------------------
      1          6           0        0.002301   -0.003732   -0.001408
      2          1           0       -0.218868    0.919376   -0.554669
      3          1           0        1.098641   -0.278385   -0.134266
      4          1           0       -0.684718   -0.794184   -0.361002
      5          1           0       -0.208860    0.175587    1.058382
 ---------------------------------------------------------------------

 SCF Done:  E(RwB97X) =  -40.4978049264     A.U. after   11 cycles

 The electronic state is 1-A.
 Alpha  occ. eigenvalues --  -10.25609  -0.81307  -0.49445  -0.49258  -0.48871
 Alpha virt. eigenvalues --    0.21140   0.26588   0.27127   0.27396   0.63941
 Alpha virt. eigenvalues --    0.64121   0.65632   0.99072   1.00823   1.01341
 Alpha virt. eigenvalues --    1.05476   1.20310   1.75982   1.76227   2.29852

 Mulliken charges:
               1
     1  C   -0.660094
     2  H    0.166823
     3  H    0.159660
     4  H    0.165898
     5  H    0.167712
 Sum of Mulliken charges =   0.00000

 Dipole moment (field-independent basis, Debye):
    X=             -0.0418    Y=              0.0313    Z=              0.0166  Tot=              0.0548
 Quadrupole moment (field-independent basis, Debye-Ang):
   XX=             -8.1600   YY=             -8.3643   ZZ=             -8.3605
   XY=              0.0130   XZ=              0.0049   YZ=             -0.0033

 Normal termination of Gaussian 16 at Wed Jun  5 17:03:28 2019.
