 Gaussian 16, Revision A.03,
 Gaussian 16:  ES64L-G16RevA.03 25-Dec-2016

 ----------------
 # 6-31g(d) wb97x
 ----------------

 ------------------------
 tmpdir/M2_conf_1_106.gjf
 ------------------------
 Symbolic Z-matrix:
 Charge =  0 Multiplicity = 1

                         Standard orientation:
 ---------------------------------------------------------------------
 Center     Atomic      Atomic             Coordinates (Angstroms)
 Number     Number       Type             X           Y           Z
 ---------------------------------------------------------------------
      1          7           0        1.618004   -0.550831   -0.017986
      2          6           0        0.385094    0.141889    0.006458
      3          6           0       -0.771527   -0.634207    0.014242
      4          1           0        2.476895   -0.241414    0.276005
      5          1           0        1.543926   -1.540787   -0.198491
      6          8           0        0.322575    1.369563   -0.017581
      7          1           0       -0.707570   -1.720074    0.037817
      8          8           0       -1.862660   -0.080563    0.003378
 ---------------------------------------------------------------------

 SCF Done:  E(RwB97X) =  -283.103797632     A.U. after   18 cycles

 The electronic state is 1-A.
 Alpha  occ. eigenvalues --  -19.24767 -19.20733 -14.45034 -10.39423 -10.37899
 Alpha  occ. eigenvalues --   -1.20723  -1.16080  -1.05048  -0.86128  -0.69858
 Alpha  occ. eigenvalues --   -0.66884  -0.65988  -0.57059  -0.55940  -0.53735
 Alpha  occ. eigenvalues --   -0.47762  -0.39873  -0.38553  -0.37405
 Alpha virt. eigenvalues --   -0.00896   0.15843   0.17565   0.21359   0.25657
 Alpha virt. eigenvalues --    0.30992   0.36669   0.45091   0.52760   0.60174
 Alpha virt. eigenvalues --    0.63909   0.70538   0.71199   0.73808   0.77933

 Mulliken charges:
               1
     1  N   -0.802297
     2  C    0.547532
     3  C    0.162723
     4  H    0.372420
     5  H    0.345677
     6  O   -0.439656
     7  H    0.147949
     8  O   -0.334348
 Sum of Mulliken charges =  -0.00000

 Dipole moment (field-independent basis, Debye):
    X=              3.1645    Y=             -4.2710    Z=              0.3232  Tot=              5.3254
 Quadrupole moment (field-independent basis, Debye-Ang):
   XX=            -27.2262   YY=            -28.0679   ZZ=            -27.5381
   XY=             -1.5588   XZ=              1.0745   YZ=              0.4965

 Normal termination of Gaussian 16 at Wed Jun  5 17:02:11 2019.
