 Gaussian 16, Revision A.03,
 Gaussian 16:  ES64L-G16RevA.03 25-Dec-2016

 ----------------
 # 6-31g(d) wb97x
 ----------------

 -----------------------
 tmpdir/M2_conf_1_86.gjf
 -----------------------
 Symbolic Z-matrix:
 Charge =  0 Multiplicity = 1

                         Standard orientation:
 ---------------------------------------------------------------------
 Center     Atomic      Atomic             Coordinates (Angstroms)
 Number     Number       Type             X           Y           Z
 ---------------------------------------------------------------------
      1          6           0        0.692496    0.502212    0.003775
      2          6           0       -0.696275    0.502056   -0.005132
      3          1           0       -1.251601    1.435658   -0.011573
      4          8           0        1.321932   -0.554506   -0.003130
      5          1           0        1.231413    1.447744    0.015866
      6          8           0       -1.316575   -0.559120    0.003612
 ---------------------------------------------------------------------

 SCF Done:  E(RwB97X) =  -227.737624989     A.U. after   14 cycles

 The electronic state is 1-A.
 Alpha  occ. eigenvalues --  -19.25489 -19.25448 -10.38081 -10.38009  -1.21568
 Alpha  occ. eigenvalues --   -1.17485  -0.88006  -0.69273  -0.67185  -0.58168
 Alpha  occ. eigenvalues --   -0.56326  -0.55169  -0.47838  -0.41081  -0.38195
 Alpha virt. eigenvalues --   -0.03774   0.14326   0.20582   0.23873   0.27205
 Alpha virt. eigenvalues --    0.41857   0.48929   0.58836   0.61258   0.67441
 Alpha virt. eigenvalues --    0.69482   0.77590   0.77904   0.86101   0.92795

 Mulliken charges:
               1
     1  C    0.179204
     2  C    0.176051
     3  H    0.157155
     4  O   -0.334117
     5  H    0.154623
     6  O   -0.332916
 Sum of Mulliken charges =  -0.00000

 Dipole moment (field-independent basis, Debye):
    X=             -0.0285    Y=              3.6360    Z=             -0.0012  Tot=              3.6361
 Quadrupole moment (field-independent basis, Debye-Ang):
   XX=            -25.5018   YY=            -21.2025   ZZ=            -20.8073
   XY=             -0.0391   XZ=              0.0280   YZ=              0.0013

 Normal termination of Gaussian 16 at Wed Jun  5 17:01:52 2019.
