 Gaussian 16, Revision A.03,
 Gaussian 16:  ES64L-G16RevA.03 25-Dec-2016

 ----------------
 # 6-31g(d) wb97x
 ----------------

 ----------------------
 tmpdir/M2_conf_0_9.gjf
 ----------------------
 Symbolic Z-matrix:
 Charge =  0 Multiplicity = 1

                         Standard orientation:
 ---------------------------------------------------------------------
 Center     Atomic      Atomic             Coordinates (Angstroms)
 Number     Number       Type             X           Y           Z
 ---------------------------------------------------------------------
      1          6           0        1.222438   -0.246939   -0.034455
      2          6           0       -0.051686    0.579452    0.063325
      3          7           0       -1.184508   -0.318237   -0.114663
      4          1           0        2.091637    0.400840    0.131113
      5          1           0        1.301768   -0.664366   -1.058287
      6          1           0        1.224817   -1.073786    0.754122
      7          1           0       -0.069863    1.098061    1.041158
      8          1           0       -0.053875    1.342898   -0.723728
      9          1           0       -1.159075   -1.054406    0.592053
     10          1           0       -2.068370    0.183344   -0.107013
 ---------------------------------------------------------------------

 SCF Done:  E(RwB97X) =  -135.127116680     A.U. after   13 cycles

 The electronic state is 1-A.
 Alpha  occ. eigenvalues --  -14.37916 -10.28469 -10.25811  -1.00042  -0.84821
 Alpha  occ. eigenvalues --   -0.71470  -0.60030  -0.56628  -0.52570  -0.46183
 Alpha  occ. eigenvalues --   -0.45784  -0.44449  -0.32340
 Alpha virt. eigenvalues --    0.18139   0.22319   0.23287   0.26190   0.27065
 Alpha virt. eigenvalues --    0.29062   0.29966   0.33699   0.35600   0.63465
 Alpha virt. eigenvalues --    0.67040   0.68178   0.69149   0.78565   0.79069

 Mulliken charges:
               1
     1  C   -0.460995
     2  C   -0.143240
     3  N   -0.741278
     4  H    0.152527
     5  H    0.170411
     6  H    0.135644
     7  H    0.121993
     8  H    0.153049
     9  H    0.302661
    10  H    0.309229
 Sum of Mulliken charges =  -0.00000

 Dipole moment (field-independent basis, Debye):
    X=             -0.2688    Y=              0.5455    Z=              1.1053  Tot=              1.2615
 Quadrupole moment (field-independent basis, Debye-Ang):
   XX=            -19.0807   YY=            -20.3018   ZZ=            -21.1622
   XY=             -0.5506   XZ=             -1.5376   YZ=             -1.8234

 Normal termination of Gaussian 16 at Wed Jun  5 16:59:40 2019.
