 Gaussian 16, Revision A.03,
 Gaussian 16:  ES64L-G16RevA.03 25-Dec-2016

 ----------------
 # 6-31g(d) wb97x
 ----------------

 ------------------------
 tmpdir/M2_conf_0_108.gjf
 ------------------------
 Symbolic Z-matrix:
 Charge =  0 Multiplicity = 1

                         Standard orientation:
 ---------------------------------------------------------------------
 Center     Atomic      Atomic             Coordinates (Angstroms)
 Number     Number       Type             X           Y           Z
 ---------------------------------------------------------------------
      1          6           0        0.549245   -0.011160   -0.000044
      2          1           0        1.110616    0.906207    0.000090
      3          8           0       -0.680115    0.007376    0.000010
      4          1           0        1.034834   -0.898250    0.000095
 ---------------------------------------------------------------------

 SCF Done:  E(RwB97X) =  -114.458620825     A.U. after   13 cycles

 The electronic state is 1-A.
 Alpha  occ. eigenvalues --  -19.23025 -10.35883  -1.16901  -0.77417  -0.62202
 Alpha  occ. eigenvalues --   -0.54963  -0.49412  -0.36903
 Alpha virt. eigenvalues --    0.05497   0.22005   0.29714   0.31636   0.62196
 Alpha virt. eigenvalues --    0.70779   0.74015   0.78327   0.96537   0.98305
 Alpha virt. eigenvalues --    1.05934   1.07903   1.17786   1.48279   1.60898

 Mulliken charges:
               1
     1  C    0.054964
     2  H    0.141722
     3  O   -0.352048
     4  H    0.155362
 Sum of Mulliken charges =  -0.00000

 Dipole moment (field-independent basis, Debye):
    X=              2.4664    Y=             -0.0852    Z=              0.0000  Tot=              2.4679
 Quadrupole moment (field-independent basis, Debye-Ang):
   XX=            -11.7468   YY=            -11.2527   ZZ=            -11.3382
   XY=             -0.0205   XZ=              0.0001   YZ=              0.0000

 Normal termination of Gaussian 16 at Wed Jun  5 17:00:17 2019.
