 Gaussian 16, Revision A.03,
 Gaussian 16:  ES64L-G16RevA.03 25-Dec-2016

 ----------------
 # 6-31g(d) wb97x
 ----------------

 ------------------------
 tmpdir/M2_conf_0_189.gjf
 ------------------------
 Symbolic Z-matrix:
 Charge =  0 Multiplicity = 1

                         Standard orientation:
 ---------------------------------------------------------------------
 Center     Atomic      Atomic             Coordinates (Angstroms)
 Number     Number       Type             X           Y           Z
 ---------------------------------------------------------------------
      1          7           0        0.699520   -0.136028   -0.001197
      2          6           0       -0.635169    0.041158   -0.002983
      3          1           0        1.231206    0.632873    0.010683
      4          1           0       -1.088243    0.945153    0.003546
      5          1           0       -1.228594   -0.872780    0.012048
 ---------------------------------------------------------------------

 SCF Done:  E(RwB97X) =  -94.5735556014     A.U. after   14 cycles

 The electronic state is 1-A.
 Alpha  occ. eigenvalues --  -14.40238 -10.31943  -1.00942  -0.76870  -0.61806
 Alpha  occ. eigenvalues --   -0.54206  -0.41347  -0.36612
 Alpha virt. eigenvalues --    0.06917   0.22075   0.24347   0.29472   0.39322
 Alpha virt. eigenvalues --    0.65648   0.67441   0.71486   0.77357   0.84151
 Alpha virt. eigenvalues --    0.87347   0.97127   1.07260   1.09087   1.17811

 Mulliken charges:
               1
     1  N   -0.508144
     2  C   -0.159165
     3  H    0.318916
     4  H    0.170504
     5  H    0.177888
 Sum of Mulliken charges =  -0.00000

 Dipole moment (field-independent basis, Debye):
    X=             -1.2606    Y=              1.6857    Z=              0.0269  Tot=              2.1051
 Quadrupole moment (field-independent basis, Debye-Ang):
   XX=            -11.2892   YY=            -12.1093   ZZ=            -13.3194
   XY=              2.0976   XZ=              0.0083   YZ=              0.0020

 Normal termination of Gaussian 16 at Wed Jun  5 17:01:07 2019.
