 Gaussian 16, Revision A.03,
 Gaussian 16:  ES64L-G16RevA.03 25-Dec-2016

 ----------------
 # 6-31g(d) wb97x
 ----------------

 ------------------------
 tmpdir/M2_conf_1_113.gjf
 ------------------------
 Symbolic Z-matrix:
 Charge =  0 Multiplicity = 1

                         Standard orientation:
 ---------------------------------------------------------------------
 Center     Atomic      Atomic             Coordinates (Angstroms)
 Number     Number       Type             X           Y           Z
 ---------------------------------------------------------------------
      1          6           0       -0.546580   -0.014012   -0.001079
      2          1           0       -1.112495    0.914987    0.002198
      3          1           0       -1.022438   -0.902953    0.002347
      4          8           0        0.676801    0.009005    0.000241
 ---------------------------------------------------------------------

 SCF Done:  E(RwB97X) =  -114.458710248     A.U. after   14 cycles

 The electronic state is 1-A.
 Alpha  occ. eigenvalues --  -19.22985 -10.35885  -1.17216  -0.77189  -0.62239
 Alpha  occ. eigenvalues --   -0.55005  -0.49609  -0.36853
 Alpha virt. eigenvalues --    0.05672   0.21802   0.29674   0.31756   0.62139
 Alpha virt. eigenvalues --    0.70802   0.74475   0.78779   0.96211   0.97942
 Alpha virt. eigenvalues --    1.06015   1.07918   1.17875   1.48459   1.60990

 Mulliken charges:
               1
     1  C    0.055609
     2  H    0.138136
     3  H    0.155292
     4  O   -0.349037
 Sum of Mulliken charges =   0.00000

 Dipole moment (field-independent basis, Debye):
    X=             -2.4369    Y=             -0.1073    Z=              0.0004  Tot=              2.4392
 Quadrupole moment (field-independent basis, Debye-Ang):
   XX=            -11.7852   YY=            -11.2410   ZZ=            -11.3359
   XY=              0.0303   XZ=             -0.0019   YZ=              0.0001

 Normal termination of Gaussian 16 at Wed Jun  5 17:02:18 2019.
