 Gaussian 16, Revision A.03,
 Gaussian 16:  ES64L-G16RevA.03 25-Dec-2016

 ----------------
 # 6-31g(d) wb97x
 ----------------

 ------------------------
 tmpdir/M2_conf_0_171.gjf
 ------------------------
 Symbolic Z-matrix:
 Charge =  0 Multiplicity = 1

                         Standard orientation:
 ---------------------------------------------------------------------
 Center     Atomic      Atomic             Coordinates (Angstroms)
 Number     Number       Type             X           Y           Z
 ---------------------------------------------------------------------
      1          6           0       -0.693115    0.353503    0.120792
      2          6           0        0.551220   -0.455966    0.093886
      3          6           0        1.795431    0.149168   -0.086740
      4          1           0       -0.580261    1.372957    0.360843
      5          8           0       -1.796563   -0.123792   -0.129849
      6          1           0        0.539409   -1.459236    0.219744
      7          1           0        1.874776    1.223568   -0.216420
      8          1           0        2.617371   -0.427188   -0.093005
 ---------------------------------------------------------------------

 SCF Done:  E(RwB97X) =  -191.835286932     A.U. after   16 cycles

 The electronic state is 1-A.
 Alpha  occ. eigenvalues --  -19.21535 -10.36195 -10.30020 -10.29218  -1.16158
 Alpha  occ. eigenvalues --   -0.92506  -0.77954  -0.70799  -0.60168  -0.58020
 Alpha  occ. eigenvalues --   -0.52597  -0.51632  -0.49333  -0.37783  -0.36012
 Alpha virt. eigenvalues --    0.02090   0.13989   0.21383   0.23588   0.25873
 Alpha virt. eigenvalues --    0.30250   0.35703   0.39558   0.44135   0.61617
 Alpha virt. eigenvalues --    0.63622   0.65107   0.68944   0.70887   0.74197

 Mulliken charges:
               1
     1  C    0.216647
     2  C   -0.174161
     3  C   -0.344060
     4  H    0.142573
     5  O   -0.401522
     6  H    0.189326
     7  H    0.180105
     8  H    0.191092
 Sum of Mulliken charges =   0.00000

 Dipole moment (field-independent basis, Debye):
    X=              3.0879    Y=              0.7182    Z=              0.4711  Tot=              3.2051
 Quadrupole moment (field-independent basis, Debye-Ang):
   XX=            -26.4040   YY=            -21.0342   ZZ=            -24.3242
   XY=             -1.0162   XZ=             -0.9741   YZ=             -0.3113

 Normal termination of Gaussian 16 at Wed Jun  5 17:00:43 2019.
