 Gaussian 16, Revision A.03,
 Gaussian 16:  ES64L-G16RevA.03 25-Dec-2016

 ----------------
 # 6-31g(d) wb97x
 ----------------

 -----------------------
 tmpdir/M2_conf_2_86.gjf
 -----------------------
 Symbolic Z-matrix:
 Charge =  0 Multiplicity = 1

                         Standard orientation:
 ---------------------------------------------------------------------
 Center     Atomic      Atomic             Coordinates (Angstroms)
 Number     Number       Type             X           Y           Z
 ---------------------------------------------------------------------
      1          6           0        0.692354    0.501916    0.003776
      2          6           0       -0.696418    0.502057   -0.005136
      3          1           0       -1.244032    1.440209   -0.011544
      4          8           0        1.321563   -0.554937   -0.003127
      5          1           0        1.231473    1.447332    0.015869
      6          8           0       -1.316945   -0.558985    0.003606
 ---------------------------------------------------------------------

 SCF Done:  E(RwB97X) =  -227.737699444     A.U. after   14 cycles

 The electronic state is 1-A.
 Alpha  occ. eigenvalues --  -19.25482 -19.25473 -10.38069 -10.38015  -1.21569
 Alpha  occ. eigenvalues --   -1.17486  -0.88032  -0.69262  -0.67168  -0.58175
 Alpha  occ. eigenvalues --   -0.56327  -0.55182  -0.47841  -0.41097  -0.38196
 Alpha virt. eigenvalues --   -0.03778   0.14326   0.20567   0.23903   0.27202
 Alpha virt. eigenvalues --    0.41808   0.48954   0.58834   0.61321   0.67445
 Alpha virt. eigenvalues --    0.69489   0.77524   0.77893   0.86066   0.92770

 Mulliken charges:
               1
     1  C    0.178890
     2  C    0.177100
     3  H    0.156664
     4  O   -0.334122
     5  H    0.154600
     6  O   -0.333132
 Sum of Mulliken charges =  -0.00000

 Dipole moment (field-independent basis, Debye):
    X=             -0.0259    Y=              3.6356    Z=             -0.0012  Tot=              3.6357
 Quadrupole moment (field-independent basis, Debye-Ang):
   XX=            -25.5168   YY=            -21.1962   ZZ=            -20.8068
   XY=             -0.0316   XZ=              0.0279   YZ=              0.0012

 Normal termination of Gaussian 16 at Wed Jun  5 17:03:58 2019.
