 Gaussian 16, Revision A.03,
 Gaussian 16:  ES64L-G16RevA.03 25-Dec-2016

 ----------------
 # 6-31g(d) wb97x
 ----------------

 ------------------------
 tmpdir/M2_conf_0_120.gjf
 ------------------------
 Symbolic Z-matrix:
 Charge =  0 Multiplicity = 1

                         Standard orientation:
 ---------------------------------------------------------------------
 Center     Atomic      Atomic             Coordinates (Angstroms)
 Number     Number       Type             X           Y           Z
 ---------------------------------------------------------------------
      1          6           0       -0.697072   -0.008944   -0.001039
      2          6           0        0.690928   -0.008768   -0.000354
      3          1           0        1.247749    0.925953   -0.000751
      4          1           0       -1.189331   -0.888915    0.000581
      5          1           0       -1.245624    0.930631    0.004734
      6          1           0        1.224074   -0.861398    0.003793
 ---------------------------------------------------------------------

 SCF Done:  E(RwB97X) =  -78.5434513390     A.U. after   12 cycles

 The electronic state is 1-A.
 Alpha  occ. eigenvalues --  -10.26623 -10.26523  -0.87818  -0.71134  -0.58372
 Alpha  occ. eigenvalues --   -0.51222  -0.47186  -0.35724
 Alpha virt. eigenvalues --    0.10042   0.22378   0.26313   0.26999   0.35107
 Alpha virt. eigenvalues --    0.41159   0.59742   0.65861   0.66570   0.74658
 Alpha virt. eigenvalues --    0.75782   0.77905   0.99868   1.00346   1.08690

 Mulliken charges:
               1
     1  C   -0.332340
     2  C   -0.333208
     3  H    0.160147
     4  H    0.170503
     5  H    0.163926
     6  H    0.170972
 Sum of Mulliken charges =   0.00000

 Dipole moment (field-independent basis, Debye):
    X=              0.0129    Y=             -0.0459    Z=              0.0080  Tot=              0.0484
 Quadrupole moment (field-independent basis, Debye-Ang):
   XX=            -11.8182   YY=            -11.9455   ZZ=            -15.0991
   XY=             -0.0411   XZ=             -0.0029   YZ=             -0.0000

 Normal termination of Gaussian 16 at Wed Jun  5 17:00:04 2019.
