 Gaussian 16, Revision A.03,
 Gaussian 16:  ES64L-G16RevA.03 25-Dec-2016

 ----------------
 # 6-31g(d) wb97x
 ----------------

 ------------------------
 tmpdir/M2_conf_0_100.gjf
 ------------------------
 Symbolic Z-matrix:
 Charge =  0 Multiplicity = 1

                         Standard orientation:
 ---------------------------------------------------------------------
 Center     Atomic      Atomic             Coordinates (Angstroms)
 Number     Number       Type             X           Y           Z
 ---------------------------------------------------------------------
      1          6           0       -0.166307    0.391873   -0.014712
      2          7           0        1.086993   -0.160636   -0.021824
      3          1           0        1.841832    0.486365    0.150493
      4          1           0       -0.187438    1.479340   -0.021856
      5          8           0       -1.199738   -0.259092    0.013806
      6          1           0        1.332405   -1.119750    0.001959
 ---------------------------------------------------------------------

 SCF Done:  E(RwB97X) =  -169.839677330     A.U. after   16 cycles

 The electronic state is 1-A.
 Alpha  occ. eigenvalues --  -19.18135 -14.43865 -10.37519  -1.15385  -1.03516
 Alpha  occ. eigenvalues --   -0.75299  -0.65798  -0.60385  -0.51706  -0.50802
 Alpha  occ. eigenvalues --   -0.37157  -0.35524
 Alpha virt. eigenvalues --    0.12324   0.17880   0.20817   0.27726   0.36514
 Alpha virt. eigenvalues --    0.44277   0.64264   0.65783   0.75446   0.79240
 Alpha virt. eigenvalues --    0.80954   0.83111   0.95728   0.98100   0.99626

 Mulliken charges:
               1
     1  C    0.343010
     2  N   -0.737726
     3  H    0.342363
     4  H    0.135208
     5  O   -0.449706
     6  H    0.366851
 Sum of Mulliken charges =   0.00000

 Dipole moment (field-independent basis, Debye):
    X=              3.7986    Y=              0.9837    Z=              0.2741  Tot=              3.9334
 Quadrupole moment (field-independent basis, Debye-Ang):
   XX=            -17.3937   YY=            -14.7284   ZZ=            -18.3907
   XY=             -1.4289   XZ=              0.6992   YZ=              0.1466

 Normal termination of Gaussian 16 at Wed Jun  5 16:59:46 2019.
