 Gaussian 16, Revision A.03,
 Gaussian 16:  ES64L-G16RevA.03 25-Dec-2016

 ----------------
 # 6-31g(d) wb97x
 ----------------

 -----------------------
 tmpdir/M2_conf_2_77.gjf
 -----------------------
 Symbolic Z-matrix:
 Charge =  0 Multiplicity = 1

                         Standard orientation:
 ---------------------------------------------------------------------
 Center     Atomic      Atomic             Coordinates (Angstroms)
 Number     Number       Type             X           Y           Z
 ---------------------------------------------------------------------
      1          6           0        1.418286   -0.463740   -0.000490
      2          6           0        0.581670    0.645409   -0.004646
      3          6           0       -0.806023    0.484430   -0.007651
      4          1           0        1.033416   -1.397856   -0.003395
      5          1           0        2.498625   -0.344529    0.002022
      6          1           0        1.022523    1.639603    0.035657
      7          8           0       -1.276319   -0.651171    0.005051
      8          1           0       -1.507619    1.315553    0.002026
 ---------------------------------------------------------------------

 SCF Done:  E(RwB97X) =  -191.837406055     A.U. after   15 cycles

 The electronic state is 1-A.
 Alpha  occ. eigenvalues --  -19.20352 -10.35124 -10.29890 -10.28871  -1.15810
 Alpha  occ. eigenvalues --   -0.92089  -0.79358  -0.66796  -0.63279  -0.55445
 Alpha  occ. eigenvalues --   -0.52622  -0.50452  -0.49073  -0.37027  -0.35606
 Alpha virt. eigenvalues --    0.01145   0.17282   0.20383   0.24242   0.26477
 Alpha virt. eigenvalues --    0.30348   0.34987   0.41393   0.46197   0.62032
 Alpha virt. eigenvalues --    0.62837   0.68543   0.68801   0.70723   0.74686

 Mulliken charges:
               1
     1  C   -0.299444
     2  C   -0.196364
     3  C    0.207125
     4  H    0.212810
     5  H    0.180627
     6  H    0.167895
     7  O   -0.413659
     8  H    0.141011
 Sum of Mulliken charges =  -0.00000

 Dipole moment (field-independent basis, Debye):
    X=              2.0384    Y=              1.7437    Z=              0.0089  Tot=              2.6825
 Quadrupole moment (field-independent basis, Debye-Ang):
   XX=            -22.9590   YY=            -21.9288   ZZ=            -24.3042
   XY=             -3.2991   XZ=              0.0569   YZ=              0.0619

 Normal termination of Gaussian 16 at Wed Jun  5 17:04:09 2019.
