 Gaussian 16, Revision A.03,
 Gaussian 16:  ES64L-G16RevA.03 25-Dec-2016

 ----------------
 # 6-31g(d) wb97x
 ----------------

 -----------------------
 tmpdir/M2_conf_0_85.gjf
 -----------------------
 Symbolic Z-matrix:
 Charge =  0 Multiplicity = 1

                         Standard orientation:
 ---------------------------------------------------------------------
 Center     Atomic      Atomic             Coordinates (Angstroms)
 Number     Number       Type             X           Y           Z
 ---------------------------------------------------------------------
      1          6           0       -0.697119   -0.011365    0.001197
      2          6           0        0.701574   -0.009776   -0.002956
      3          1           0       -1.203501   -0.879792   -0.004285
      4          1           0       -1.217542    0.942159    0.002261
      5          1           0        1.194607   -0.892659    0.009750
      6          1           0        1.199705    0.957134    0.002833
 ---------------------------------------------------------------------

 SCF Done:  E(RwB97X) =  -78.5416247910     A.U. after   12 cycles

 The electronic state is 1-A.
 Alpha  occ. eigenvalues --  -10.26688 -10.26559  -0.87700  -0.70834  -0.58848
 Alpha  occ. eigenvalues --   -0.50314  -0.47669  -0.35525
 Alpha virt. eigenvalues --    0.09880   0.21924   0.26505   0.27240   0.34961
 Alpha virt. eigenvalues --    0.40279   0.59676   0.66703   0.66894   0.74618
 Alpha virt. eigenvalues --    0.75531   0.77550   1.00104   1.00345   1.07873

 Mulliken charges:
               1
     1  C   -0.333891
     2  C   -0.333809
     3  H    0.170939
     4  H    0.161830
     5  H    0.171450
     6  H    0.163481
 Sum of Mulliken charges =  -0.00000

 Dipole moment (field-independent basis, Debye):
    X=             -0.0121    Y=             -0.0357    Z=              0.0104  Tot=              0.0391
 Quadrupole moment (field-independent basis, Debye-Ang):
   XX=            -12.0516   YY=            -11.7747   ZZ=            -15.1377
   XY=             -0.0015   XZ=              0.0184   YZ=             -0.0003

 Normal termination of Gaussian 16 at Wed Jun  5 16:59:40 2019.
