 Gaussian 16, Revision A.03,
 Gaussian 16:  ES64L-G16RevA.03 25-Dec-2016

 ----------------
 # 6-31g(d) wb97x
 ----------------

 -----------------------
 tmpdir/M2_conf_1_29.gjf
 -----------------------
 Symbolic Z-matrix:
 Charge =  0 Multiplicity = 1

                         Standard orientation:
 ---------------------------------------------------------------------
 Center     Atomic      Atomic             Coordinates (Angstroms)
 Number     Number       Type             X           Y           Z
 ---------------------------------------------------------------------
      1          7           0       -0.742343   -0.000437   -0.114893
      2          6           0        0.699855    0.000419    0.013479
      3          1           0        1.153151   -0.866670   -0.479047
      4          1           0       -1.151384   -0.840813    0.288063
      5          1           0       -1.154798    0.826915    0.311126
      6          1           0        1.036779   -0.013670    1.068181
      7          1           0        1.113523    0.894785   -0.464945
 ---------------------------------------------------------------------

 SCF Done:  E(RwB97X) =  -95.8221068352     A.U. after   13 cycles

 The electronic state is 1-A.
 Alpha  occ. eigenvalues --  -14.38092 -10.27923  -0.99569  -0.77590  -0.59932
 Alpha  occ. eigenvalues --   -0.53868  -0.50826  -0.46712  -0.32278
 Alpha virt. eigenvalues --    0.18586   0.24117   0.25392   0.27790   0.29109
 Alpha virt. eigenvalues --    0.34652   0.66211   0.67221   0.69869   0.84989
 Alpha virt. eigenvalues --    0.87430   0.90076   0.97833   1.03293   1.04302

 Mulliken charges:
               1
     1  N   -0.740238
     2  C   -0.328916
     3  H    0.162659
     4  H    0.308375
     5  H    0.309197
     6  H    0.126523
     7  H    0.162401
 Sum of Mulliken charges =   0.00000

 Dipole moment (field-independent basis, Debye):
    X=              0.1370    Y=             -0.0181    Z=              1.3542  Tot=              1.3612
 Quadrupole moment (field-independent basis, Debye-Ang):
   XX=            -13.4250   YY=            -12.2435   ZZ=            -15.2692
   XY=             -0.0114   XZ=             -2.0858   YZ=              0.0169

 Normal termination of Gaussian 16 at Wed Jun  5 17:01:40 2019.
