 Gaussian 16, Revision A.03,
 Gaussian 16:  ES64L-G16RevA.03 25-Dec-2016

 ----------------
 # 6-31g(d) wb97x
 ----------------

 ------------------------
 tmpdir/M2_conf_2_115.gjf
 ------------------------
 Symbolic Z-matrix:
 Charge =  0 Multiplicity = 1

                         Standard orientation:
 ---------------------------------------------------------------------
 Center     Atomic      Atomic             Coordinates (Angstroms)
 Number     Number       Type             X           Y           Z
 ---------------------------------------------------------------------
      1          6           0        0.690424    0.504419   -0.004715
      2          6           0       -0.702468    0.502234   -0.000416
      3          1           0       -1.263334    1.434498   -0.007016
      4          1           0        1.198842    1.492667    0.022823
      5          8           0        1.315383   -0.554385    0.000048
      6          8           0       -1.298288   -0.566501    0.001825
 ---------------------------------------------------------------------

 SCF Done:  E(RwB97X) =  -227.738435981     A.U. after   16 cycles

 The electronic state is 1-A.
 Alpha  occ. eigenvalues --  -19.25588 -19.25386 -10.38313 -10.37940  -1.21775
 Alpha  occ. eigenvalues --   -1.17584  -0.87819  -0.69036  -0.66840  -0.58223
 Alpha  occ. eigenvalues --   -0.56402  -0.55225  -0.47940  -0.41106  -0.38155
 Alpha virt. eigenvalues --   -0.03625   0.14316   0.20246   0.23546   0.27339
 Alpha virt. eigenvalues --    0.41395   0.48981   0.58837   0.61616   0.67332
 Alpha virt. eigenvalues --    0.69944   0.77584   0.77927   0.85724   0.92045

 Mulliken charges:
               1
     1  C    0.183400
     2  C    0.175568
     3  H    0.157272
     4  H    0.148261
     5  O   -0.334732
     6  O   -0.329770
 Sum of Mulliken charges =  -0.00000

 Dipole moment (field-independent basis, Debye):
    X=             -0.1000    Y=              3.6242    Z=             -0.0049  Tot=              3.6256
 Quadrupole moment (field-independent basis, Debye-Ang):
   XX=            -25.4963   YY=            -21.2005   ZZ=            -20.8233
   XY=             -0.1337   XZ=              0.0157   YZ=              0.0049

 Normal termination of Gaussian 16 at Wed Jun  5 17:04:11 2019.
