 Gaussian 16, Revision A.03,
 Gaussian 16:  ES64L-G16RevA.03 25-Dec-2016

 ----------------
 # 6-31g(d) wb97x
 ----------------

 ------------------------
 tmpdir/M2_conf_0_179.gjf
 ------------------------
 Symbolic Z-matrix:
 Charge =  0 Multiplicity = 1

                         Standard orientation:
 ---------------------------------------------------------------------
 Center     Atomic      Atomic             Coordinates (Angstroms)
 Number     Number       Type             X           Y           Z
 ---------------------------------------------------------------------
      1          6           0        0.547899    0.014332   -0.000685
      2          1           0        1.128315   -0.904615    0.001404
      3          1           0        1.010241    0.905427    0.001482
      4          8           0       -0.678244   -0.010851    0.000153
 ---------------------------------------------------------------------

 SCF Done:  E(RwB97X) =  -114.457824482     A.U. after   14 cycles

 The electronic state is 1-A.
 Alpha  occ. eigenvalues --  -19.23000 -10.35869  -1.17070  -0.77312  -0.62237
 Alpha  occ. eigenvalues --   -0.54976  -0.49515  -0.36874
 Alpha virt. eigenvalues --    0.05591   0.21872   0.29653   0.31766   0.62168
 Alpha virt. eigenvalues --    0.70757   0.74308   0.78547   0.96116   0.98150
 Alpha virt. eigenvalues --    1.06422   1.07913   1.17822   1.48373   1.60972

 Mulliken charges:
               1
     1  C    0.055685
     2  H    0.139151
     3  H    0.155955
     4  O   -0.350791
 Sum of Mulliken charges =  -0.00000

 Dipole moment (field-independent basis, Debye):
    X=              2.4497    Y=              0.1116    Z=              0.0003  Tot=              2.4522
 Quadrupole moment (field-independent basis, Debye-Ang):
   XX=            -11.7682   YY=            -11.2440   ZZ=            -11.3359
   XY=              0.0072   XZ=              0.0012   YZ=             -0.0000

 Normal termination of Gaussian 16 at Wed Jun  5 17:00:55 2019.
