 Gaussian 16, Revision A.03,
 Gaussian 16:  ES64L-G16RevA.03 25-Dec-2016

 ----------------
 # 6-31g(d) wb97x
 ----------------

 ------------------------
 tmpdir/M2_conf_0_117.gjf
 ------------------------
 Symbolic Z-matrix:
 Charge =  0 Multiplicity = 1

                         Standard orientation:
 ---------------------------------------------------------------------
 Center     Atomic      Atomic             Coordinates (Angstroms)
 Number     Number       Type             X           Y           Z
 ---------------------------------------------------------------------
      1          1           0       -1.223320    0.940352    0.004836
      2          6           0       -0.695549   -0.011051   -0.001059
      3          6           0        0.692450   -0.011345   -0.000376
      4          1           0       -1.207157   -0.879918    0.000646
      5          1           0        1.223774    0.938095   -0.000760
      6          1           0        1.225296   -0.864153    0.003890
 ---------------------------------------------------------------------

 SCF Done:  E(RwB97X) =  -78.5434352645     A.U. after   12 cycles

 The electronic state is 1-A.
 Alpha  occ. eigenvalues --  -10.26590 -10.26509  -0.87827  -0.71058  -0.58531
 Alpha  occ. eigenvalues --   -0.51037  -0.47255  -0.35719
 Alpha virt. eigenvalues --    0.10057   0.22209   0.26432   0.27107   0.35060
 Alpha virt. eigenvalues --    0.41048   0.59707   0.66044   0.66572   0.74675
 Alpha virt. eigenvalues --    0.75746   0.77954   0.99772   1.00384   1.08668

 Mulliken charges:
               1
     1  H    0.162355
     2  C   -0.332390
     3  C   -0.332564
     4  H    0.170998
     5  H    0.160226
     6  H    0.171374
 Sum of Mulliken charges =   0.00000

 Dipole moment (field-independent basis, Debye):
    X=              0.0071    Y=             -0.0395    Z=              0.0083  Tot=              0.0409
 Quadrupole moment (field-independent basis, Debye-Ang):
   XX=            -11.8789   YY=            -11.9047   ZZ=            -15.1007
   XY=             -0.0227   XZ=             -0.0028   YZ=             -0.0001

 Normal termination of Gaussian 16 at Wed Jun  5 17:00:11 2019.
