 Gaussian 16, Revision A.03,
 Gaussian 16:  ES64L-G16RevA.03 25-Dec-2016

 ----------------
 # 6-31g(d) wb97x
 ----------------

 -----------------------
 tmpdir/M2_conf_2_82.gjf
 -----------------------
 Symbolic Z-matrix:
 Charge =  0 Multiplicity = 1

                         Standard orientation:
 ---------------------------------------------------------------------
 Center     Atomic      Atomic             Coordinates (Angstroms)
 Number     Number       Type             X           Y           Z
 ---------------------------------------------------------------------
      1          6           0       -1.423135   -0.470566   -0.002968
      2          6           0       -0.582113    0.642527   -0.005895
      3          6           0        0.797229    0.481201    0.006685
      4          1           0       -2.512254   -0.349200    0.034525
      5          1           0       -1.010335   -1.392672    0.002410
      6          1           0       -1.014099    1.641469   -0.016971
      7          1           0        1.462970    1.339531    0.017068
      8          8           0        1.290229   -0.644762   -0.002996
 ---------------------------------------------------------------------

 SCF Done:  E(RwB97X) =  -191.836769832     A.U. after   15 cycles

 The electronic state is 1-A.
 Alpha  occ. eigenvalues --  -19.20395 -10.35015 -10.30183 -10.28842  -1.15779
 Alpha  occ. eigenvalues --   -0.92218  -0.79562  -0.66583  -0.63311  -0.55451
 Alpha  occ. eigenvalues --   -0.52603  -0.50485  -0.49167  -0.37010  -0.35657
 Alpha virt. eigenvalues --    0.00964   0.17400   0.20204   0.23999   0.26768
 Alpha virt. eigenvalues --    0.30222   0.34948   0.41149   0.46474   0.61980
 Alpha virt. eigenvalues --    0.63126   0.68419   0.68789   0.70463   0.74659

 Mulliken charges:
               1
     1  C   -0.300162
     2  C   -0.194557
     3  C    0.209759
     4  H    0.182458
     5  H    0.213508
     6  H    0.168261
     7  H    0.137511
     8  O   -0.416778
 Sum of Mulliken charges =  -0.00000

 Dipole moment (field-independent basis, Debye):
    X=             -2.1301    Y=              1.7267    Z=              0.0371  Tot=              2.7423
 Quadrupole moment (field-independent basis, Debye-Ang):
   XX=            -23.0983   YY=            -21.9113   ZZ=            -24.3115
   XY=              3.2177   XZ=             -0.0457   YZ=             -0.0283

 Normal termination of Gaussian 16 at Wed Jun  5 17:04:09 2019.
