 Gaussian 16, Revision A.03,
 Gaussian 16:  ES64L-G16RevA.03 25-Dec-2016

 ----------------
 # 6-31g(d) wb97x
 ----------------

 ------------------------
 tmpdir/M2_conf_1_177.gjf
 ------------------------
 Symbolic Z-matrix:
 Charge =  0 Multiplicity = 1

                         Standard orientation:
 ---------------------------------------------------------------------
 Center     Atomic      Atomic             Coordinates (Angstroms)
 Number     Number       Type             X           Y           Z
 ---------------------------------------------------------------------
      1          6           0       -1.385023   -0.479110   -0.001424
      2          6           0       -0.579491    0.660179   -0.001080
      3          6           0        0.796425    0.486794    0.000064
      4          1           0       -2.455821   -0.387845    0.004977
      5          1           0       -0.925084   -1.379608    0.007619
      6          1           0       -1.022012    1.650940    0.000256
      7          1           0        1.457325    1.348646    0.006585
      8          8           0        1.244266   -0.654914   -0.000599
 ---------------------------------------------------------------------

 SCF Done:  E(RwB97X) =  -191.834997253     A.U. after   15 cycles

 The electronic state is 1-A.
 Alpha  occ. eigenvalues --  -19.20318 -10.34961 -10.29694 -10.28527  -1.16022
 Alpha  occ. eigenvalues --   -0.92131  -0.79521  -0.66485  -0.63512  -0.55553
 Alpha  occ. eigenvalues --   -0.52378  -0.50623  -0.49235  -0.36812  -0.35697
 Alpha virt. eigenvalues --    0.01112   0.17416   0.20805   0.24165   0.26928
 Alpha virt. eigenvalues --    0.30771   0.34967   0.41048   0.46337   0.62083
 Alpha virt. eigenvalues --    0.63316   0.68835   0.69177   0.70433   0.75091

 Mulliken charges:
               1
     1  C   -0.297021
     2  C   -0.204514
     3  C    0.215939
     4  H    0.182355
     5  H    0.216498
     6  H    0.168330
     7  H    0.138108
     8  O   -0.419694
 Sum of Mulliken charges =  -0.00000

 Dipole moment (field-independent basis, Debye):
    X=             -1.9971    Y=              1.7559    Z=              0.0134  Tot=              2.6593
 Quadrupole moment (field-independent basis, Debye-Ang):
   XX=            -23.0822   YY=            -21.8592   ZZ=            -24.2667
   XY=              3.1670   XZ=             -0.0126   YZ=             -0.0080

 Normal termination of Gaussian 16 at Wed Jun  5 17:02:55 2019.
