 Gaussian 16, Revision A.03,
 Gaussian 16:  ES64L-G16RevA.03 25-Dec-2016

 ----------------
 # 6-31g(d) wb97x
 ----------------

 ------------------------
 tmpdir/M2_conf_2_173.gjf
 ------------------------
 Symbolic Z-matrix:
 Charge =  0 Multiplicity = 1

                         Standard orientation:
 ---------------------------------------------------------------------
 Center     Atomic      Atomic             Coordinates (Angstroms)
 Number     Number       Type             X           Y           Z
 ---------------------------------------------------------------------
      1          6           0        1.418734   -0.507428    0.002447
      2          6           0        0.630950    0.644170   -0.006582
      3          6           0       -0.758533    0.500519   -0.000713
      4          1           0        2.501540   -0.437283    0.009043
      5          1           0        0.965868   -1.403377    0.004577
      6          1           0        1.089073    1.616323   -0.001602
      7          8           0       -1.362514   -0.622232   -0.001528
      8          1           0       -1.403272    1.378624    0.029296
 ---------------------------------------------------------------------

 SCF Done:  E(RwB97X) =  -191.833791786     A.U. after   16 cycles

 The electronic state is 1-A.
 Alpha  occ. eigenvalues --  -19.20462 -10.35547 -10.30455 -10.29334  -1.13231
 Alpha  occ. eigenvalues --   -0.92790  -0.79852  -0.66914  -0.63342  -0.55276
 Alpha  occ. eigenvalues --   -0.52383  -0.49444  -0.49189  -0.37109  -0.35517
 Alpha virt. eigenvalues --    0.00374   0.16562   0.20103   0.24083   0.26749
 Alpha virt. eigenvalues --    0.29942   0.34241   0.41096   0.45547   0.62074
 Alpha virt. eigenvalues --    0.62252   0.68599   0.68918   0.69630   0.73757

 Mulliken charges:
               1
     1  C   -0.295971
     2  C   -0.191337
     3  C    0.201781
     4  H    0.185130
     5  H    0.217474
     6  H    0.178711
     7  O   -0.438668
     8  H    0.142880
 Sum of Mulliken charges =   0.00000

 Dipole moment (field-independent basis, Debye):
    X=              2.5242    Y=              1.7443    Z=              0.0230  Tot=              3.0684
 Quadrupole moment (field-independent basis, Debye-Ang):
   XX=            -23.5435   YY=            -21.6412   ZZ=            -24.3818
   XY=             -3.1876   XZ=              0.0079   YZ=              0.0017

 Normal termination of Gaussian 16 at Wed Jun  5 17:05:23 2019.
