 Gaussian 16, Revision A.03,
 Gaussian 16:  ES64L-G16RevA.03 25-Dec-2016

 ----------------
 # 6-31g(d) wb97x
 ----------------

 ------------------------
 tmpdir/M2_conf_2_172.gjf
 ------------------------
 Symbolic Z-matrix:
 Charge =  0 Multiplicity = 1

                         Standard orientation:
 ---------------------------------------------------------------------
 Center     Atomic      Atomic             Coordinates (Angstroms)
 Number     Number       Type             X           Y           Z
 ---------------------------------------------------------------------
      1          6           0       -1.452825    0.241376    0.138116
      2          6           0        0.016955    0.417064    0.023156
      3          6           0        0.864662   -0.692252    0.069270
      4          1           0       -1.997069    1.078910    0.472775
      5          8           0       -2.015890   -0.812254   -0.146587
      6          8           0        0.501973    1.541377   -0.094413
      7          8           0        2.134954   -0.627037   -0.017222
      8          1           0        0.456020   -1.692718    0.209749
 ---------------------------------------------------------------------

 SCF Done:  E(RwB97X) =  -341.019870215     A.U. after   20 cycles

 The electronic state is 1-A.
 Alpha  occ. eigenvalues --  -19.27989 -19.27723 -19.26374 -10.40584 -10.40545
 Alpha  occ. eigenvalues --  -10.39154  -1.23581  -1.21300  -1.17105  -0.91284
 Alpha  occ. eigenvalues --   -0.81722  -0.68642  -0.67102  -0.61727  -0.59804
 Alpha  occ. eigenvalues --   -0.57724  -0.56030  -0.52474  -0.48165  -0.45415
 Alpha  occ. eigenvalues --   -0.41696  -0.37975
 Alpha virt. eigenvalues --   -0.07226   0.01955   0.15622   0.21491   0.22868
 Alpha virt. eigenvalues --    0.26084   0.35701   0.37007   0.40312   0.47806
 Alpha virt. eigenvalues --    0.56653   0.61309   0.64131   0.67986   0.71310

 Mulliken charges:
               1
     1  C    0.172496
     2  C    0.348323
     3  C    0.155976
     4  H    0.190683
     5  O   -0.348300
     6  O   -0.361035
     7  O   -0.348017
     8  H    0.189875
 Sum of Mulliken charges =  -0.00000

 Dipole moment (field-independent basis, Debye):
    X=             -2.1166    Y=             -0.0490    Z=              0.9059  Tot=              2.3028
 Quadrupole moment (field-independent basis, Debye-Ang):
   XX=            -40.6572   YY=            -34.9840   ZZ=            -30.3294
   XY=             -4.0253   XZ=             -0.7759   YZ=              0.0498

 Normal termination of Gaussian 16 at Wed Jun  5 17:05:14 2019.
