 Gaussian 16, Revision A.03,
 Gaussian 16:  ES64L-G16RevA.03 25-Dec-2016

 ----------------
 # 6-31g(d) wb97x
 ----------------

 ------------------------
 tmpdir/M2_conf_2_119.gjf
 ------------------------
 Symbolic Z-matrix:
 Charge =  0 Multiplicity = 1

                         Standard orientation:
 ---------------------------------------------------------------------
 Center     Atomic      Atomic             Coordinates (Angstroms)
 Number     Number       Type             X           Y           Z
 ---------------------------------------------------------------------
      1          6           0       -0.686264    0.477631   -0.001473
      2          6           0        0.704826    0.494903    0.001091
      3          6           0       -1.407331   -0.708366    0.001107
      4          1           0       -1.221545    1.424846   -0.001967
      5          1           0        1.246308    1.442738    0.003074
      6          6           0        1.384641   -0.742100   -0.000910
 ---------------------------------------------------------------------

 SCF Done:  E(RwB97X) =  -153.244730198     A.U. after   19 cycles

 The electronic state is 1-A.
 Alpha  occ. eigenvalues --  -10.36648 -10.36008 -10.31468 -10.31017  -0.97942
 Alpha  occ. eigenvalues --   -0.84319  -0.72404  -0.60241  -0.59419  -0.46685
 Alpha  occ. eigenvalues --   -0.42535  -0.40061  -0.33121
 Alpha virt. eigenvalues --   -0.03440   0.00526   0.02427   0.16756   0.20825
 Alpha virt. eigenvalues --    0.25127   0.34964   0.45905   0.47767   0.58476
 Alpha virt. eigenvalues --    0.60932   0.63263   0.66108   0.66575   0.69230

 Mulliken charges:
               1
     1  C   -0.274692
     2  C   -0.264885
     3  C    0.032798
     4  H    0.236121
     5  H    0.233106
     6  C    0.037552
 Sum of Mulliken charges =   0.00000

 Dipole moment (field-independent basis, Debye):
    X=              0.1496    Y=              3.4583    Z=              0.0012  Tot=              3.4615
 Quadrupole moment (field-independent basis, Debye-Ang):
   XX=            -24.2344   YY=            -23.3828   ZZ=            -25.4968
   XY=             -0.1172   XZ=              0.0183   YZ=              0.0026

 Normal termination of Gaussian 16 at Wed Jun  5 17:04:36 2019.
