 Gaussian 16, Revision A.03,
 Gaussian 16:  ES64L-G16RevA.03 25-Dec-2016

 ----------------
 # 6-31g(d) wb97x
 ----------------

 -----------------------
 tmpdir/M2_conf_2_51.gjf
 -----------------------
 Symbolic Z-matrix:
 Charge =  0 Multiplicity = 1

                         Standard orientation:
 ---------------------------------------------------------------------
 Center     Atomic      Atomic             Coordinates (Angstroms)
 Number     Number       Type             X           Y           Z
 ---------------------------------------------------------------------
      1          7           0        0.734778   -0.007131   -0.115506
      2          6           0       -0.697803   -0.006446    0.011503
      3          1           0        1.149925    0.838645    0.274501
      4          1           0        1.154421   -0.831363    0.316444
      5          1           0       -1.018637   -0.129122    1.064919
      6          1           0       -1.058638    0.980422   -0.308796
      7          1           0       -1.183704   -0.769990   -0.607546
 ---------------------------------------------------------------------

 SCF Done:  E(RwB97X) =  -95.8210429871     A.U. after   13 cycles

 The electronic state is 1-A.
 Alpha  occ. eigenvalues --  -14.38017 -10.27907  -0.99739  -0.77402  -0.60014
 Alpha  occ. eigenvalues --   -0.53942  -0.51011  -0.46535  -0.32132
 Alpha virt. eigenvalues --    0.18427   0.24142   0.24845   0.28044   0.29447
 Alpha virt. eigenvalues --    0.34929   0.66334   0.67312   0.70117   0.85003
 Alpha virt. eigenvalues --    0.87408   0.90425   0.97809   1.02944   1.04202

 Mulliken charges:
               1
     1  N   -0.740125
     2  C   -0.324444
     3  H    0.309039
     4  H    0.307188
     5  H    0.126118
     6  H    0.158270
     7  H    0.163953
 Sum of Mulliken charges =  -0.00000

 Dipole moment (field-independent basis, Debye):
    X=             -0.1015    Y=              0.0838    Z=              1.3553  Tot=              1.3616
 Quadrupole moment (field-independent basis, Debye-Ang):
   XX=            -13.4828   YY=            -12.2279   ZZ=            -15.2610
   XY=              0.0535   XZ=              2.0646   YZ=             -0.0009

 Normal termination of Gaussian 16 at Wed Jun  5 17:03:35 2019.
