 Gaussian 16, Revision A.03,
 Gaussian 16:  ES64L-G16RevA.03 25-Dec-2016

 ----------------
 # 6-31g(d) wb97x
 ----------------

 ------------------------
 tmpdir/M2_conf_2_113.gjf
 ------------------------
 Symbolic Z-matrix:
 Charge =  0 Multiplicity = 1

                         Standard orientation:
 ---------------------------------------------------------------------
 Center     Atomic      Atomic             Coordinates (Angstroms)
 Number     Number       Type             X           Y           Z
 ---------------------------------------------------------------------
      1          6           0       -0.546651   -0.013649   -0.001078
      2          1           0       -1.111092    0.913906    0.002199
      3          1           0       -1.022926   -0.902367    0.002344
      4          8           0        0.676741    0.008794    0.000241
 ---------------------------------------------------------------------

 SCF Done:  E(RwB97X) =  -114.458665246     A.U. after   14 cycles

 The electronic state is 1-A.
 Alpha  occ. eigenvalues --  -19.22978 -10.35862  -1.17212  -0.77208  -0.62263
 Alpha  occ. eigenvalues --   -0.55003  -0.49605  -0.36852
 Alpha virt. eigenvalues --    0.05674   0.21843   0.29693   0.31759   0.62144
 Alpha virt. eigenvalues --    0.70800   0.74447   0.78787   0.96273   0.98017
 Alpha virt. eigenvalues --    1.06037   1.07922   1.17875   1.48461   1.60991

 Mulliken charges:
               1
     1  C    0.055577
     2  H    0.138487
     3  H    0.155146
     4  O   -0.349210
 Sum of Mulliken charges =  -0.00000

 Dipole moment (field-independent basis, Debye):
    X=             -2.4381    Y=             -0.1044    Z=              0.0004  Tot=              2.4403
 Quadrupole moment (field-independent basis, Debye-Ang):
   XX=            -11.7829   YY=            -11.2401   ZZ=            -11.3336
   XY=              0.0290   XZ=             -0.0018   YZ=              0.0001

 Normal termination of Gaussian 16 at Wed Jun  5 17:04:26 2019.
