 Gaussian 16, Revision A.03,
 Gaussian 16:  ES64L-G16RevA.03 25-Dec-2016

 ----------------
 # 6-31g(d) wb97x
 ----------------

 ------------------------
 tmpdir/M2_conf_1_168.gjf
 ------------------------
 Symbolic Z-matrix:
 Charge =  0 Multiplicity = 1

                         Standard orientation:
 ---------------------------------------------------------------------
 Center     Atomic      Atomic             Coordinates (Angstroms)
 Number     Number       Type             X           Y           Z
 ---------------------------------------------------------------------
      1          6           0        1.797032    0.146830   -0.083693
      2          6           0        0.548912   -0.444361    0.098352
      3          6           0       -0.688662    0.375509    0.122113
      4          1           0        2.589973   -0.472906   -0.082671
      5          1           0        1.917241    1.211988   -0.241692
      6          1           0        0.449528   -1.486512    0.215360
      7          8           0       -1.778204   -0.134804   -0.134076
      8          1           0       -0.674802    1.357994    0.360977
 ---------------------------------------------------------------------

 SCF Done:  E(RwB97X) =  -191.833798434     A.U. after   16 cycles

 The electronic state is 1-A.
 Alpha  occ. eigenvalues --  -19.21111 -10.35465 -10.29940 -10.29647  -1.15912
 Alpha  occ. eigenvalues --   -0.92183  -0.77882  -0.70914  -0.60411  -0.57775
 Alpha  occ. eigenvalues --   -0.52369  -0.51327  -0.49174  -0.37717  -0.35712
 Alpha virt. eigenvalues --    0.02256   0.13980   0.21690   0.23004   0.26070
 Alpha virt. eigenvalues --    0.30395   0.36048   0.39154   0.43625   0.61794
 Alpha virt. eigenvalues --    0.63649   0.64436   0.69066   0.71819   0.74243

 Mulliken charges:
               1
     1  C   -0.342068
     2  C   -0.183066
     3  C    0.214832
     4  H    0.188707
     5  H    0.184527
     6  H    0.194543
     7  O   -0.407061
     8  H    0.149586
 Sum of Mulliken charges =  -0.00000

 Dipole moment (field-independent basis, Debye):
    X=              3.0093    Y=              0.8225    Z=              0.4725  Tot=              3.1553
 Quadrupole moment (field-independent basis, Debye-Ang):
   XX=            -26.5025   YY=            -20.7824   ZZ=            -24.3262
   XY=             -1.0680   XZ=             -1.0843   YZ=             -0.3395

 Normal termination of Gaussian 16 at Wed Jun  5 17:03:21 2019.
