 Gaussian 16, Revision A.03,
 Gaussian 16:  ES64L-G16RevA.03 25-Dec-2016

 ----------------
 # 6-31g(d) wb97x
 ----------------

 -----------------------
 tmpdir/M2_conf_0_21.gjf
 -----------------------
 Symbolic Z-matrix:
 Charge =  0 Multiplicity = 1

                         Standard orientation:
 ---------------------------------------------------------------------
 Center     Atomic      Atomic             Coordinates (Angstroms)
 Number     Number       Type             X           Y           Z
 ---------------------------------------------------------------------
      1          6           0       -1.263575   -0.201065    0.020643
      2          7           0       -0.000098    0.496423   -0.152822
      3          6           0        1.255000   -0.204389    0.020417
      4          1           0       -2.108896    0.474607   -0.185303
      5          1           0       -1.296359   -1.049311   -0.673569
      6          1           0       -1.366421   -0.601534    1.049149
      7          1           0        0.037543    1.307496    0.461074
      8          1           0        1.385879   -0.603223    1.045061
      9          1           0        2.089439    0.472973   -0.191244
     10          1           0        1.310956   -1.043247   -0.681775
 ---------------------------------------------------------------------

 SCF Done:  E(RwB97X) =  -135.118529229     A.U. after   13 cycles

 The electronic state is 1-A.
 Alpha  occ. eigenvalues --  -14.38470 -10.28232 -10.27999  -1.01831  -0.82684
 Alpha  occ. eigenvalues --   -0.73862  -0.59350  -0.54561  -0.53751  -0.49100
 Alpha  occ. eigenvalues --   -0.47151  -0.45625  -0.30473
 Alpha virt. eigenvalues --    0.18174   0.23880   0.24863   0.24991   0.27064
 Alpha virt. eigenvalues --    0.28454   0.28923   0.31182   0.37223   0.60595
 Alpha virt. eigenvalues --    0.65430   0.68099   0.69971   0.70819   0.85105

 Mulliken charges:
               1
     1  C   -0.318461
     2  N   -0.555946
     3  C   -0.322812
     4  H    0.165568
     5  H    0.160149
     6  H    0.124615
     7  H    0.300421
     8  H    0.123378
     9  H    0.164736
    10  H    0.158352
 Sum of Mulliken charges =   0.00000

 Dipole moment (field-independent basis, Debye):
    X=              0.0052    Y=             -0.0813    Z=              0.9707  Tot=              0.9741
 Quadrupole moment (field-independent basis, Debye-Ang):
   XX=            -19.2882   YY=            -19.9244   ZZ=            -21.6881
   XY=              0.0540   XZ=              0.0338   YZ=              1.9009

 Normal termination of Gaussian 16 at Wed Jun  5 16:59:28 2019.
