 Gaussian 16, Revision A.03,
 Gaussian 16:  ES64L-G16RevA.03 25-Dec-2016

 ----------------
 # 6-31g(d) wb97x
 ----------------

 -----------------------
 tmpdir/M2_conf_0_65.gjf
 -----------------------
 Symbolic Z-matrix:
 Charge =  0 Multiplicity = 1

                         Standard orientation:
 ---------------------------------------------------------------------
 Center     Atomic      Atomic             Coordinates (Angstroms)
 Number     Number       Type             X           Y           Z
 ---------------------------------------------------------------------
      1          6           0       -0.698082   -0.009945   -0.005523
      2          6           0        0.697603   -0.007579    0.000475
      3          1           0       -1.259625    0.931358    0.025044
      4          1           0       -1.183479   -0.895983   -0.000110
      5          1           0        1.232670    0.940154   -0.010533
      6          1           0        1.213305   -0.870386    0.015888
 ---------------------------------------------------------------------

 SCF Done:  E(RwB97X) =  -78.5424570958     A.U. after   12 cycles

 The electronic state is 1-A.
 Alpha  occ. eigenvalues --  -10.26785 -10.26631  -0.87680  -0.70989  -0.58429
 Alpha  occ. eigenvalues --   -0.50846  -0.47361  -0.35589
 Alpha virt. eigenvalues --    0.09890   0.22161   0.26284   0.26948   0.35001
 Alpha virt. eigenvalues --    0.40728   0.59792   0.66242   0.66652   0.74586
 Alpha virt. eigenvalues --    0.75647   0.77510   0.99660   1.00152   1.08344

 Mulliken charges:
               1
     1  C   -0.333578
     2  C   -0.332905
     3  H    0.163240
     4  H    0.170045
     5  H    0.161530
     6  H    0.171667
 Sum of Mulliken charges =  -0.00000

 Dipole moment (field-independent basis, Debye):
    X=              0.0051    Y=             -0.0474    Z=              0.0292  Tot=              0.0559
 Quadrupole moment (field-independent basis, Debye-Ang):
   XX=            -11.8963   YY=            -11.8895   ZZ=            -15.1342
   XY=             -0.0544   XZ=             -0.0249   YZ=             -0.0006

 Normal termination of Gaussian 16 at Wed Jun  5 16:59:32 2019.
