 Gaussian 16, Revision A.03,
 Gaussian 16:  ES64L-G16RevA.03 25-Dec-2016

 ----------------
 # 6-31g(d) wb97x
 ----------------

 ------------------------
 tmpdir/M2_conf_0_138.gjf
 ------------------------
 Symbolic Z-matrix:
 Charge =  0 Multiplicity = 1

                         Standard orientation:
 ---------------------------------------------------------------------
 Center     Atomic      Atomic             Coordinates (Angstroms)
 Number     Number       Type             X           Y           Z
 ---------------------------------------------------------------------
      1          6           0       -0.810713    0.483727    0.001593
      2          6           0        0.576098    0.652946   -0.001408
      3          6           0        1.425898   -0.474077    0.000837
      4          8           0       -1.283281   -0.651327   -0.001650
      5          1           0       -1.456101    1.346545    0.006876
      6          1           0        1.059800    1.643223   -0.004414
      7          1           0        1.002463   -1.386162    0.005538
      8          1           0        2.512386   -0.368561   -0.000934
 ---------------------------------------------------------------------

 SCF Done:  E(RwB97X) =  -191.834305341     A.U. after   15 cycles

 The electronic state is 1-A.
 Alpha  occ. eigenvalues --  -19.20536 -10.35191 -10.30162 -10.29113  -1.15852
 Alpha  occ. eigenvalues --   -0.91754  -0.79516  -0.66789  -0.63155  -0.55272
 Alpha  occ. eigenvalues --   -0.52603  -0.50434  -0.49042  -0.36724  -0.35814
 Alpha virt. eigenvalues --    0.00871   0.17089   0.20291   0.24141   0.26561
 Alpha virt. eigenvalues --    0.30275   0.34450   0.41026   0.46504   0.62137
 Alpha virt. eigenvalues --    0.63002   0.68159   0.68836   0.70074   0.74391

 Mulliken charges:
               1
     1  C    0.215671
     2  C   -0.205542
     3  C   -0.297152
     4  O   -0.417192
     5  H    0.140224
     6  H    0.167848
     7  H    0.212880
     8  H    0.183264
 Sum of Mulliken charges =  -0.00000

 Dipole moment (field-independent basis, Debye):
    X=              2.0826    Y=              1.7395    Z=              0.0082  Tot=              2.7135
 Quadrupole moment (field-independent basis, Debye-Ang):
   XX=            -22.9531   YY=            -21.9461   ZZ=            -24.3644
   XY=             -3.2460   XZ=             -0.0093   YZ=             -0.0104

 Normal termination of Gaussian 16 at Wed Jun  5 17:00:27 2019.
