 Gaussian 16, Revision A.03,
 Gaussian 16:  ES64L-G16RevA.03 25-Dec-2016

 ----------------
 # 6-31g(d) wb97x
 ----------------

 ------------------------
 tmpdir/M2_conf_0_121.gjf
 ------------------------
 Symbolic Z-matrix:
 Charge =  0 Multiplicity = 1

                         Standard orientation:
 ---------------------------------------------------------------------
 Center     Atomic      Atomic             Coordinates (Angstroms)
 Number     Number       Type             X           Y           Z
 ---------------------------------------------------------------------
      1          6           0       -1.383962   -0.479770   -0.000419
      2          6           0       -0.583685    0.654292   -0.001956
      3          6           0        0.796717    0.498252    0.001493
      4          1           0       -0.948916   -1.389389    0.001003
      5          1           0       -2.467889   -0.386095    0.007456
      6          1           0       -1.053291    1.635729   -0.002160
      7          1           0        1.452123    1.371196    0.004506
      8          8           0        1.255444   -0.658511   -0.000690
 ---------------------------------------------------------------------

 SCF Done:  E(RwB97X) =  -191.835240987     A.U. after   15 cycles

 The electronic state is 1-A.
 Alpha  occ. eigenvalues --  -19.20417 -10.35318 -10.29766 -10.28632  -1.15105
 Alpha  occ. eigenvalues --   -0.92208  -0.79534  -0.66600  -0.63349  -0.55433
 Alpha  occ. eigenvalues --   -0.52195  -0.50172  -0.49073  -0.36860  -0.35747
 Alpha virt. eigenvalues --    0.00945   0.17159   0.20452   0.23977   0.26732
 Alpha virt. eigenvalues --    0.30579   0.34664   0.41261   0.46306   0.62089
 Alpha virt. eigenvalues --    0.63015   0.68816   0.69128   0.70460   0.74692

 Mulliken charges:
               1
     1  C   -0.293916
     2  C   -0.200165
     3  C    0.213316
     4  H    0.215909
     5  H    0.179701
     6  H    0.168772
     7  H    0.143371
     8  O   -0.426988
 Sum of Mulliken charges =  -0.00000

 Dipole moment (field-independent basis, Debye):
    X=             -2.0474    Y=              1.7974    Z=              0.0102  Tot=              2.7244
 Quadrupole moment (field-independent basis, Debye-Ang):
   XX=            -23.1297   YY=            -21.8040   ZZ=            -24.3098
   XY=              3.2545   XZ=             -0.0110   YZ=             -0.0034

 Normal termination of Gaussian 16 at Wed Jun  5 17:00:14 2019.
