 Gaussian 16, Revision A.03,
 Gaussian 16:  ES64L-G16RevA.03 25-Dec-2016

 ----------------
 # 6-31g(d) wb97x
 ----------------

 ------------------------
 tmpdir/M2_conf_1_149.gjf
 ------------------------
 Symbolic Z-matrix:
 Charge =  0 Multiplicity = 1

                         Standard orientation:
 ---------------------------------------------------------------------
 Center     Atomic      Atomic             Coordinates (Angstroms)
 Number     Number       Type             X           Y           Z
 ---------------------------------------------------------------------
      1          7           0       -1.531613   -0.585827   -0.002173
      2          6           0       -0.345736    0.107334   -0.000906
      3          7           0        0.749124   -0.678340    0.004511
      4          1           0       -2.471534   -0.302530   -0.005908
      5          1           0       -1.364859   -1.580699    0.007680
      6          8           0       -0.336333    1.381095    0.001825
      7          8           0        1.759862   -0.120047   -0.003412
 ---------------------------------------------------------------------

 SCF Done:  E(RwB97X) =  -299.067476164     A.U. after   20 cycles

 The electronic state is 1-A.
 Alpha  occ. eigenvalues --  -19.31368 -19.20789 -14.54441 -14.46702 -10.41618
 Alpha  occ. eigenvalues --   -1.36688  -1.16399  -1.06469  -0.93847  -0.72799
 Alpha  occ. eigenvalues --   -0.67833  -0.66753  -0.63740  -0.59340  -0.53401
 Alpha  occ. eigenvalues --   -0.51044  -0.39477  -0.38857  -0.34630
 Alpha virt. eigenvalues --   -0.04116   0.15466   0.17078   0.21814   0.32339
 Alpha virt. eigenvalues --    0.37723   0.45506   0.52080   0.63316   0.66958
 Alpha virt. eigenvalues --    0.68828   0.70790   0.76506   0.79672   0.80159

 Mulliken charges:
               1
     1  N   -0.760547
     2  C    0.661988
     3  N    0.004505
     4  H    0.386408
     5  H    0.360829
     6  O   -0.464325
     7  O   -0.188858
 Sum of Mulliken charges =  -0.00000

 Dipole moment (field-independent basis, Debye):
    X=             -2.8944    Y=             -3.0336    Z=             -0.0022  Tot=              4.1929
 Quadrupole moment (field-independent basis, Debye-Ang):
   XX=            -22.8559   YY=            -30.3798   ZZ=            -26.6118
   XY=              3.1000   XZ=              0.0030   YZ=             -0.0041

 Normal termination of Gaussian 16 at Wed Jun  5 17:02:57 2019.
