 Gaussian 16, Revision A.03,
 Gaussian 16:  ES64L-G16RevA.03 25-Dec-2016

 ----------------
 # 6-31g(d) wb97x
 ----------------

 -----------------------
 tmpdir/M2_conf_2_59.gjf
 -----------------------
 Symbolic Z-matrix:
 Charge =  0 Multiplicity = 1

                         Standard orientation:
 ---------------------------------------------------------------------
 Center     Atomic      Atomic             Coordinates (Angstroms)
 Number     Number       Type             X           Y           Z
 ---------------------------------------------------------------------
      1          7           0        0.743544   -0.005935   -0.115888
      2          6           0       -0.702379   -0.007297    0.011216
      3          1           0       -1.101957    0.963643   -0.311753
      4          1           0        1.156440    0.844699    0.265849
      5          1           0        1.164761   -0.824779    0.324685
      6          1           0       -1.023731   -0.120051    1.065578
      7          1           0       -1.186045   -0.778182   -0.600438
 ---------------------------------------------------------------------

 SCF Done:  E(RwB97X) =  -95.8212629352     A.U. after   12 cycles

 The electronic state is 1-A.
 Alpha  occ. eigenvalues --  -14.38119 -10.28029  -0.99376  -0.77570  -0.59752
 Alpha  occ. eigenvalues --   -0.53755  -0.50992  -0.46591  -0.32193
 Alpha virt. eigenvalues --    0.18496   0.23963   0.24874   0.28041   0.29420
 Alpha virt. eigenvalues --    0.34548   0.66200   0.66993   0.70022   0.84917
 Alpha virt. eigenvalues --    0.87849   0.90285   0.97820   1.03022   1.03930

 Mulliken charges:
               1
     1  N   -0.742496
     2  C   -0.327078
     3  H    0.159514
     4  H    0.309394
     5  H    0.308458
     6  H    0.127540
     7  H    0.164669
 Sum of Mulliken charges =   0.00000

 Dipole moment (field-independent basis, Debye):
    X=             -0.1352    Y=              0.0979    Z=              1.3619  Tot=              1.3721
 Quadrupole moment (field-independent basis, Debye-Ang):
   XX=            -13.3738   YY=            -12.2667   ZZ=            -15.2781
   XY=              0.0285   XZ=              2.0852   YZ=             -0.0118

 Normal termination of Gaussian 16 at Wed Jun  5 17:03:47 2019.
