 Gaussian 16, Revision A.03,
 Gaussian 16:  ES64L-G16RevA.03 25-Dec-2016

 ----------------
 # 6-31g(d) wb97x
 ----------------

 -----------------------
 tmpdir/M2_conf_1_96.gjf
 -----------------------
 Symbolic Z-matrix:
 Charge =  0 Multiplicity = 1

                         Standard orientation:
 ---------------------------------------------------------------------
 Center     Atomic      Atomic             Coordinates (Angstroms)
 Number     Number       Type             X           Y           Z
 ---------------------------------------------------------------------
      1          6           0       -0.861105   -0.596918    0.178993
      2          6           0        0.440816    0.142918    0.054698
      3          7           0        1.548095   -0.652931   -0.074250
      4          1           0       -0.939005   -1.531322    0.557877
      5          8           0       -1.879809   -0.010439   -0.180480
      6          8           0        0.475055    1.364139    0.055779
      7          1           0        1.370632   -1.629691   -0.254618
      8          1           0        2.491479   -0.374067   -0.188058
 ---------------------------------------------------------------------

 SCF Done:  E(RwB97X) =  -283.114001355     A.U. after   18 cycles

 The electronic state is 1-A.
 Alpha  occ. eigenvalues --  -19.24320 -19.19936 -14.45614 -10.39439 -10.37574
 Alpha  occ. eigenvalues --   -1.19651  -1.16155  -1.05591  -0.83587  -0.71793
 Alpha  occ. eigenvalues --   -0.67325  -0.64825  -0.56554  -0.54555  -0.53573
 Alpha  occ. eigenvalues --   -0.48557  -0.40138  -0.38848  -0.36079
 Alpha virt. eigenvalues --    0.01117   0.14554   0.17270   0.21618   0.24966
 Alpha virt. eigenvalues --    0.31544   0.37486   0.43770   0.48414   0.61866
 Alpha virt. eigenvalues --    0.64012   0.69559   0.71448   0.74575   0.77856

 Mulliken charges:
               1
     1  C    0.154929
     2  C    0.526932
     3  N   -0.781252
     4  H    0.165668
     5  O   -0.338162
     6  O   -0.450908
     7  H    0.348236
     8  H    0.374557
 Sum of Mulliken charges =  -0.00000

 Dipole moment (field-independent basis, Debye):
    X=              2.9667    Y=             -4.6228    Z=              0.1814  Tot=              5.4959
 Quadrupole moment (field-independent basis, Debye-Ang):
   XX=            -26.9519   YY=            -27.9280   ZZ=            -27.6205
   XY=             -1.5549   XZ=             -2.1111   YZ=              0.2736

 Normal termination of Gaussian 16 at Wed Jun  5 17:02:08 2019.
