 Gaussian 16, Revision A.03,
 Gaussian 16:  ES64L-G16RevA.03 25-Dec-2016

 ----------------
 # 6-31g(d) wb97x
 ----------------

 -----------------------
 tmpdir/M2_conf_0_81.gjf
 -----------------------
 Symbolic Z-matrix:
 Charge =  0 Multiplicity = 1

                         Standard orientation:
 ---------------------------------------------------------------------
 Center     Atomic      Atomic             Coordinates (Angstroms)
 Number     Number       Type             X           Y           Z
 ---------------------------------------------------------------------
      1          6           0       -0.698444   -0.009370   -0.005528
      2          6           0        0.696642   -0.007399    0.000464
      3          1           0        1.242524    0.934149   -0.010467
      4          1           0       -1.259721    0.932087    0.024989
      5          1           0       -1.184091   -0.895269   -0.000063
      6          1           0        1.212100   -0.870351    0.015926
 ---------------------------------------------------------------------

 SCF Done:  E(RwB97X) =  -78.5425848468     A.U. after   12 cycles

 The electronic state is 1-A.
 Alpha  occ. eigenvalues --  -10.26792 -10.26628  -0.87684  -0.71019  -0.58378
 Alpha  occ. eigenvalues --   -0.50920  -0.47329  -0.35601
 Alpha virt. eigenvalues --    0.09896   0.22208   0.26266   0.26912   0.35019
 Alpha virt. eigenvalues --    0.40795   0.59801   0.66156   0.66644   0.74585
 Alpha virt. eigenvalues --    0.75677   0.77513   0.99659   1.00150   1.08369

 Mulliken charges:
               1
     1  C   -0.333401
     2  C   -0.333028
     3  H    0.161573
     4  H    0.163288
     5  H    0.170215
     6  H    0.171353
 Sum of Mulliken charges =   0.00000

 Dipole moment (field-independent basis, Debye):
    X=              0.0081    Y=             -0.0488    Z=              0.0293  Tot=              0.0575
 Quadrupole moment (field-independent basis, Debye-Ang):
   XX=            -11.8738   YY=            -11.9054   ZZ=            -15.1318
   XY=             -0.0440   XZ=             -0.0250   YZ=             -0.0005

 Normal termination of Gaussian 16 at Wed Jun  5 16:59:48 2019.
