 Gaussian 16, Revision A.03,
 Gaussian 16:  ES64L-G16RevA.03 25-Dec-2016

 ----------------
 # 6-31g(d) wb97x
 ----------------

 -----------------------
 tmpdir/M2_conf_2_60.gjf
 -----------------------
 Symbolic Z-matrix:
 Charge =  0 Multiplicity = 1

                         Standard orientation:
 ---------------------------------------------------------------------
 Center     Atomic      Atomic             Coordinates (Angstroms)
 Number     Number       Type             X           Y           Z
 ---------------------------------------------------------------------
      1          7           0       -1.688758   -0.297700   -0.068325
      2          6           0       -0.490829    0.502093    0.110981
      3          6           0        0.763278   -0.338125    0.235736
      4          1           0       -2.535737    0.250455    0.079775
      5          1           0       -1.717032   -0.739202   -0.988274
      6          1           0       -0.361463    1.240049   -0.705325
      7          1           0       -0.614778    1.082301    1.035479
      8          1           0        0.741697   -1.219939    0.728330
      9          8           0        1.834241    0.060804   -0.219001
 ---------------------------------------------------------------------

 SCF Done:  E(RwB97X) =  -209.103773488     A.U. after   16 cycles

 The electronic state is 1-A.
 Alpha  occ. eigenvalues --  -19.21382 -14.40361 -10.35215 -10.30667  -1.15981
 Alpha  occ. eigenvalues --   -1.02187  -0.83373  -0.71818  -0.62767  -0.58445
 Alpha  occ. eigenvalues --   -0.55094  -0.53529  -0.51263  -0.46119  -0.35952
 Alpha  occ. eigenvalues --   -0.34438
 Alpha virt. eigenvalues --    0.06514   0.17747   0.22617   0.24652   0.25710
 Alpha virt. eigenvalues --    0.28235   0.32505   0.36302   0.40691   0.63825
 Alpha virt. eigenvalues --    0.66897   0.67671   0.74331   0.76147   0.78025

 Mulliken charges:
               1
     1  N   -0.758272
     2  C   -0.241226
     3  C    0.239208
     4  H    0.322561
     5  H    0.318346
     6  H    0.168243
     7  H    0.187632
     8  H    0.159344
     9  O   -0.395836
 Sum of Mulliken charges =  -0.00000

 Dipole moment (field-independent basis, Debye):
    X=             -2.8173    Y=              0.3580    Z=             -0.0322  Tot=              2.8402
 Quadrupole moment (field-independent basis, Debye-Ang):
   XX=            -27.3555   YY=            -23.5801   ZZ=            -22.5619
   XY=             -2.9367   XZ=              3.1136   YZ=              1.5554

 Normal termination of Gaussian 16 at Wed Jun  5 17:03:51 2019.
