 Gaussian 16, Revision A.03,
 Gaussian 16:  ES64L-G16RevA.03 25-Dec-2016

 ----------------
 # 6-31g(d) wb97x
 ----------------

 ------------------------
 tmpdir/M2_conf_1_169.gjf
 ------------------------
 Symbolic Z-matrix:
 Charge =  0 Multiplicity = 1

                         Standard orientation:
 ---------------------------------------------------------------------
 Center     Atomic      Atomic             Coordinates (Angstroms)
 Number     Number       Type             X           Y           Z
 ---------------------------------------------------------------------
      1          6           0       -0.698152   -0.003417   -0.002111
      2          6           0        0.695141   -0.007232   -0.000100
      3          1           0       -1.239291    0.925081    0.004201
      4          1           0       -1.170355   -0.897561    0.005988
      5          1           0        1.251192    0.924564    0.002302
      6          1           0        1.176520   -0.888191    0.000775
 ---------------------------------------------------------------------

 SCF Done:  E(RwB97X) =  -78.5424055834     A.U. after   11 cycles

 The electronic state is 1-A.
 Alpha  occ. eigenvalues --  -10.26512 -10.26456  -0.87843  -0.70967  -0.58750
 Alpha  occ. eigenvalues --   -0.50675  -0.47621  -0.35612
 Alpha virt. eigenvalues --    0.09981   0.22371   0.26357   0.27286   0.35169
 Alpha virt. eigenvalues --    0.40627   0.59547   0.66657   0.66666   0.74673
 Alpha virt. eigenvalues --    0.75519   0.77797   1.00386   1.00979   1.08238

 Mulliken charges:
               1
     1  C   -0.333969
     2  C   -0.333899
     3  H    0.165790
     4  H    0.169326
     5  H    0.163031
     6  H    0.169720
 Sum of Mulliken charges =  -0.00000

 Dipole moment (field-independent basis, Debye):
    X=              0.0040    Y=             -0.0433    Z=              0.0129  Tot=              0.0453
 Quadrupole moment (field-independent basis, Debye-Ang):
   XX=            -11.9632   YY=            -11.8293   ZZ=            -15.1016
   XY=             -0.0156   XZ=             -0.0088   YZ=             -0.0003

 Normal termination of Gaussian 16 at Wed Jun  5 17:03:25 2019.
