 Gaussian 16, Revision A.03,
 Gaussian 16:  ES64L-G16RevA.03 25-Dec-2016

 ----------------
 # 6-31g(d) wb97x
 ----------------

 ------------------------
 tmpdir/M2_conf_2_166.gjf
 ------------------------
 Symbolic Z-matrix:
 Charge =  0 Multiplicity = 1

                         Standard orientation:
 ---------------------------------------------------------------------
 Center     Atomic      Atomic             Coordinates (Angstroms)
 Number     Number       Type             X           Y           Z
 ---------------------------------------------------------------------
      1          7           0        0.810295    0.517494    0.002292
      2          6           0       -0.524833    0.632670   -0.003809
      3          6           0       -1.370351   -0.474378   -0.002830
      4          8           0        1.248629   -0.556063    0.000986
      5          1           0       -0.915226    1.633952   -0.001325
      6          1           0       -0.925443   -1.377053   -0.011250
      7          1           0       -2.449327   -0.380601    0.028476
 ---------------------------------------------------------------------

 SCF Done:  E(RwB97X) =  -207.792912187     A.U. after   21 cycles

 The electronic state is 1-A.
 Alpha  occ. eigenvalues --  -19.26129 -14.50642 -10.31220 -10.30923  -1.31892
 Alpha  occ. eigenvalues --   -0.96730  -0.84471  -0.68383  -0.64564  -0.59989
 Alpha  occ. eigenvalues --   -0.58821  -0.54075  -0.49780  -0.38866  -0.31145
 Alpha virt. eigenvalues --   -0.01690   0.15052   0.21189   0.24745   0.28452
 Alpha virt. eigenvalues --    0.37576   0.38628   0.48328   0.62925   0.64757
 Alpha virt. eigenvalues --    0.69826   0.71445   0.72940   0.76363   0.80840

 Mulliken charges:
               1
     1  N    0.046133
     2  C   -0.048122
     3  C   -0.303736
     4  O   -0.288145
     5  H    0.185695
     6  H    0.209206
     7  H    0.198969
 Sum of Mulliken charges =  -0.00000

 Dipole moment (field-independent basis, Debye):
    X=             -3.0199    Y=              0.0473    Z=              0.0040  Tot=              3.0203
 Quadrupole moment (field-independent basis, Debye-Ang):
   XX=            -22.8254   YY=            -22.1069   ZZ=            -22.9787
   XY=              0.1945   XZ=             -0.0750   YZ=             -0.0113

 Normal termination of Gaussian 16 at Wed Jun  5 17:04:56 2019.
