 Gaussian 16, Revision A.03,
 Gaussian 16:  ES64L-G16RevA.03 25-Dec-2016

 ----------------
 # 6-31g(d) wb97x
 ----------------

 ------------------------
 tmpdir/M2_conf_0_169.gjf
 ------------------------
 Symbolic Z-matrix:
 Charge =  0 Multiplicity = 1

                         Standard orientation:
 ---------------------------------------------------------------------
 Center     Atomic      Atomic             Coordinates (Angstroms)
 Number     Number       Type             X           Y           Z
 ---------------------------------------------------------------------
      1          6           0       -0.698452   -0.003417   -0.002111
      2          6           0        0.695441   -0.007232   -0.000100
      3          1           0       -1.239593    0.925080    0.004201
      4          1           0       -1.170653   -0.897562    0.005988
      5          1           0        1.251490    0.924565    0.002302
      6          1           0        1.176821   -0.888189    0.000774
 ---------------------------------------------------------------------

 SCF Done:  E(RwB97X) =  -78.5423312102     A.U. after   11 cycles

 The electronic state is 1-A.
 Alpha  occ. eigenvalues --  -10.26521 -10.26465  -0.87831  -0.70973  -0.58744
 Alpha  occ. eigenvalues --   -0.50668  -0.47629  -0.35602
 Alpha virt. eigenvalues --    0.09967   0.22371   0.26361   0.27281   0.35164
 Alpha virt. eigenvalues --    0.40609   0.59563   0.66649   0.66667   0.74667
 Alpha virt. eigenvalues --    0.75521   0.77756   1.00390   1.00982   1.08230

 Mulliken charges:
               1
     1  C   -0.334041
     2  C   -0.333970
     3  H    0.165824
     4  H    0.169364
     5  H    0.163065
     6  H    0.169758
 Sum of Mulliken charges =   0.00000

 Dipole moment (field-independent basis, Debye):
    X=              0.0040    Y=             -0.0432    Z=              0.0129  Tot=              0.0453
 Quadrupole moment (field-independent basis, Debye-Ang):
   XX=            -11.9616   YY=            -11.8298   ZZ=            -15.1033
   XY=             -0.0156   XZ=             -0.0088   YZ=             -0.0003

 Normal termination of Gaussian 16 at Wed Jun  5 17:01:18 2019.
