 Gaussian 16, Revision A.03,
 Gaussian 16:  ES64L-G16RevA.03 25-Dec-2016

 ----------------
 # 6-31g(d) wb97x
 ----------------

 ------------------------
 tmpdir/M2_conf_1_140.gjf
 ------------------------
 Symbolic Z-matrix:
 Charge =  0 Multiplicity = 1

                         Standard orientation:
 ---------------------------------------------------------------------
 Center     Atomic      Atomic             Coordinates (Angstroms)
 Number     Number       Type             X           Y           Z
 ---------------------------------------------------------------------
      1          6           0       -1.235395   -0.235549    0.002328
      2          6           0       -0.057146    0.541646   -0.002999
      3          7           0        1.148205   -0.174596    0.000055
      4          1           0       -2.119048    0.244439    0.002353
      5          1           0       -1.198437   -1.326508    0.007787
      6          1           0       -0.105848    1.551763   -0.007583
      7          1           0        1.070391   -1.180026   -0.027055
      8          1           0        2.070752    0.095920    0.028136
 ---------------------------------------------------------------------

 SCF Done:  E(RwB97X) =  -133.873297586     A.U. after   15 cycles

 The electronic state is 1-A.
 Alpha  occ. eigenvalues --  -14.40386 -10.30310 -10.22749  -1.02303  -0.84128
 Alpha  occ. eigenvalues --   -0.70813  -0.64236  -0.56828  -0.49430  -0.48329
 Alpha  occ. eigenvalues --   -0.43327  -0.27418
 Alpha virt. eigenvalues --    0.13328   0.19599   0.23391   0.25509   0.29124
 Alpha virt. eigenvalues --    0.32412   0.42091   0.44005   0.61928   0.68373
 Alpha virt. eigenvalues --    0.68953   0.73729   0.76195   0.77702   0.85553

 Mulliken charges:
               1
     1  C   -0.445772
     2  C    0.089842
     3  N   -0.783265
     4  H    0.151182
     5  H    0.133344
     6  H    0.176769
     7  H    0.337061
     8  H    0.340839
 Sum of Mulliken charges =  -0.00000

 Dipole moment (field-independent basis, Debye):
    X=              1.6549    Y=              0.0295    Z=              0.0051  Tot=              1.6551
 Quadrupole moment (field-independent basis, Debye-Ang):
   XX=            -15.9931   YY=            -15.5735   ZZ=            -22.2639
   XY=             -0.7575   XZ=              0.0701   YZ=              0.0592

 Normal termination of Gaussian 16 at Wed Jun  5 17:02:22 2019.
