 Gaussian 16, Revision A.03,
 Gaussian 16:  ES64L-G16RevA.03 25-Dec-2016

 ----------------
 # 6-31g(d) wb97x
 ----------------

 ------------------------
 tmpdir/M2_conf_2_162.gjf
 ------------------------
 Symbolic Z-matrix:
 Charge =  0 Multiplicity = 1

                         Standard orientation:
 ---------------------------------------------------------------------
 Center     Atomic      Atomic             Coordinates (Angstroms)
 Number     Number       Type             X           Y           Z
 ---------------------------------------------------------------------
      1          6           0       -0.649283    0.520306   -0.003911
      2          6           0        0.740840    0.505925   -0.001193
      3          1           0        1.314519    1.424774    0.022893
      4          8           0       -1.358991   -0.530935    0.003156
      5          1           0       -1.194260    1.463586   -0.006732
      6          8           0        1.275291   -0.599782   -0.001348
 ---------------------------------------------------------------------

 SCF Done:  E(RwB97X) =  -227.731831001     A.U. after   16 cycles

 The electronic state is 1-A.
 Alpha  occ. eigenvalues --  -19.25726 -19.25368 -10.38470 -10.38226  -1.21133
 Alpha  occ. eigenvalues --   -1.16094  -0.88087  -0.69704  -0.66844  -0.57960
 Alpha  occ. eigenvalues --   -0.55904  -0.54734  -0.47100  -0.40840  -0.38357
 Alpha virt. eigenvalues --   -0.04213   0.13670   0.20462   0.23642   0.26518
 Alpha virt. eigenvalues --    0.41433   0.48324   0.58923   0.60802   0.67589
 Alpha virt. eigenvalues --    0.68072   0.76233   0.77486   0.86392   0.92951

 Mulliken charges:
               1
     1  C    0.174848
     2  C    0.174832
     3  H    0.170036
     4  O   -0.349285
     5  H    0.155905
     6  O   -0.326336
 Sum of Mulliken charges =  -0.00000

 Dipole moment (field-independent basis, Debye):
    X=              0.4460    Y=              3.7439    Z=             -0.0023  Tot=              3.7703
 Quadrupole moment (field-independent basis, Debye-Ang):
   XX=            -25.4435   YY=            -21.1046   ZZ=            -20.8947
   XY=              0.3314   XZ=              0.0248   YZ=              0.0081

 Normal termination of Gaussian 16 at Wed Jun  5 17:04:45 2019.
