 Gaussian 16, Revision A.03,
 Gaussian 16:  ES64L-G16RevA.03 25-Dec-2016

 ----------------
 # 6-31g(d) wb97x
 ----------------

 ------------------------
 tmpdir/M2_conf_2_185.gjf
 ------------------------
 Symbolic Z-matrix:
 Charge =  0 Multiplicity = 1

                         Standard orientation:
 ---------------------------------------------------------------------
 Center     Atomic      Atomic             Coordinates (Angstroms)
 Number     Number       Type             X           Y           Z
 ---------------------------------------------------------------------
      1          6           0        0.634636    0.491741    0.001448
      2          7           0       -0.707920    0.541987   -0.001633
      3          8           0        1.275188   -0.554080   -0.000666
      4          1           0        1.145374    1.453774    0.001441
      5          8           0       -1.274907   -0.470687    0.000829
 ---------------------------------------------------------------------

 SCF Done:  E(RwB97X) =  -243.700368432     A.U. after   24 cycles

 The electronic state is 1-A.
 Alpha  occ. eigenvalues --  -19.32006 -19.27175 -14.54092 -10.40694  -1.36660
 Alpha  occ. eigenvalues --   -1.20955  -0.96304  -0.72244  -0.68005  -0.63727
 Alpha  occ. eigenvalues --   -0.62083  -0.55510  -0.51424  -0.42962  -0.35048
 Alpha virt. eigenvalues --   -0.06665   0.11552   0.21786   0.30443   0.38050
 Alpha virt. eigenvalues --    0.49157   0.59366   0.64478   0.71355   0.77811
 Alpha virt. eigenvalues --    0.79393   0.80059   0.84618   0.90374   0.93857

 Mulliken charges:
               1
     1  C    0.283584
     2  N    0.037799
     3  O   -0.314300
     4  H    0.182973
     5  O   -0.190056
 Sum of Mulliken charges =  -0.00000

 Dipole moment (field-independent basis, Debye):
    X=              0.6188    Y=              1.8482    Z=              0.0082  Tot=              1.9490
 Quadrupole moment (field-independent basis, Debye-Ang):
   XX=            -24.5308   YY=            -21.9014   ZZ=            -19.5887
   XY=              2.8204   XZ=             -0.0064   YZ=              0.0141

 Normal termination of Gaussian 16 at Wed Jun  5 17:04:55 2019.
