 Gaussian 16, Revision A.03,
 Gaussian 16:  ES64L-G16RevA.03 25-Dec-2016

 ----------------
 # 6-31g(d) wb97x
 ----------------

 ------------------------
 tmpdir/M2_conf_0_129.gjf
 ------------------------
 Symbolic Z-matrix:
 Charge =  0 Multiplicity = 1

                         Standard orientation:
 ---------------------------------------------------------------------
 Center     Atomic      Atomic             Coordinates (Angstroms)
 Number     Number       Type             X           Y           Z
 ---------------------------------------------------------------------
      1          6           0       -0.011177    0.000246   -0.004174
      2          1           0        0.474863    0.910187   -0.382504
      3          1           0       -1.088903    0.008782   -0.177474
      4          1           0        0.204096   -0.060178    1.066119
      5          1           0        0.477006   -0.860268   -0.481096
 ---------------------------------------------------------------------

 SCF Done:  E(RwB97X) =  -40.4990246547     A.U. after   11 cycles

 The electronic state is 1-A.
 Alpha  occ. eigenvalues --  -10.24987  -0.81714  -0.50226  -0.49082  -0.49031
 Alpha virt. eigenvalues --    0.21584   0.27273   0.27364   0.27794   0.63851
 Alpha virt. eigenvalues --    0.64060   0.64474   1.01178   1.01299   1.02430
 Alpha virt. eigenvalues --    1.06909   1.20870   1.75806   1.75890   2.34214

 Mulliken charges:
               1
     1  C   -0.666986
     2  H    0.165308
     3  H    0.170455
     4  H    0.165806
     5  H    0.165416
 Sum of Mulliken charges =  -0.00000

 Dipole moment (field-independent basis, Debye):
    X=              0.0344    Y=             -0.0017    Z=              0.0202  Tot=              0.0400
 Quadrupole moment (field-independent basis, Debye-Ang):
   XX=             -8.1079   YY=             -8.3169   ZZ=             -8.3491
   XY=             -0.0009   XZ=              0.0092   YZ=             -0.0001

 Normal termination of Gaussian 16 at Wed Jun  5 17:00:41 2019.
