 Gaussian 16, Revision A.03,
 Gaussian 16:  ES64L-G16RevA.03 25-Dec-2016

 ----------------
 # 6-31g(d) wb97x
 ----------------

 ------------------------
 tmpdir/M2_conf_1_152.gjf
 ------------------------
 Symbolic Z-matrix:
 Charge =  0 Multiplicity = 1

                         Standard orientation:
 ---------------------------------------------------------------------
 Center     Atomic      Atomic             Coordinates (Angstroms)
 Number     Number       Type             X           Y           Z
 ---------------------------------------------------------------------
      1          6           0       -1.354584   -0.372571   -0.000128
      2          7           0       -0.568909    0.701305   -0.000879
      3          6           0        0.753083    0.481742    0.002424
      4          1           0       -2.429376   -0.269845   -0.004583
      5          1           0       -1.037003   -1.382984    0.010262
      6          8           0        1.209768   -0.658281   -0.001738
      7          1           0        1.379609    1.354917    0.000607
 ---------------------------------------------------------------------

 SCF Done:  E(RwB97X) =  -207.878542589     A.U. after   16 cycles

 The electronic state is 1-A.
 Alpha  occ. eigenvalues --  -19.21449 -14.42981 -10.37794 -10.35607  -1.18317
 Alpha  occ. eigenvalues --   -1.05087  -0.83733  -0.70317  -0.63928  -0.57235
 Alpha  occ. eigenvalues --   -0.54516  -0.53796  -0.41605  -0.40473  -0.36571
 Alpha virt. eigenvalues --   -0.00967   0.15212   0.21928   0.23992   0.27606
 Alpha virt. eigenvalues --    0.33401   0.37219   0.46513   0.60163   0.64132
 Alpha virt. eigenvalues --    0.66674   0.68457   0.75225   0.77394   0.80409

 Mulliken charges:
               1
     1  C   -0.103215
     2  N   -0.359503
     3  C    0.295478
     4  H    0.195579
     5  H    0.210234
     6  O   -0.404572
     7  H    0.165999
 Sum of Mulliken charges =  -0.00000

 Dipole moment (field-independent basis, Debye):
    X=             -1.7832    Y=             -0.0574    Z=              0.0147  Tot=              1.7842
 Quadrupole moment (field-independent basis, Debye-Ang):
   XX=            -21.2309   YY=            -23.7685   ZZ=            -22.5508
   XY=              5.7944   XZ=              0.0018   YZ=             -0.0014

 Normal termination of Gaussian 16 at Wed Jun  5 17:02:49 2019.
