 Gaussian 16, Revision A.03,
 Gaussian 16:  ES64L-G16RevA.03 25-Dec-2016

 ----------------
 # 6-31g(d) wb97x
 ----------------

 ------------------------
 tmpdir/M2_conf_0_172.gjf
 ------------------------
 Symbolic Z-matrix:
 Charge =  0 Multiplicity = 1

                         Standard orientation:
 ---------------------------------------------------------------------
 Center     Atomic      Atomic             Coordinates (Angstroms)
 Number     Number       Type             X           Y           Z
 ---------------------------------------------------------------------
      1          6           0       -1.452000    0.240781    0.138166
      2          6           0        0.017510    0.418589    0.023022
      3          6           0        0.863526   -0.692022    0.069234
      4          1           0       -1.997388    1.077470    0.473078
      5          8           0       -2.013605   -0.813593   -0.146667
      6          8           0        0.500906    1.543616   -0.094390
      7          8           0        2.133928   -0.628735   -0.017101
      8          1           0        0.453340   -1.691863    0.209656
 ---------------------------------------------------------------------

 SCF Done:  E(RwB97X) =  -341.019940464     A.U. after   20 cycles

 The electronic state is 1-A.
 Alpha  occ. eigenvalues --  -19.27997 -19.27723 -19.26379 -10.40578 -10.40547
 Alpha  occ. eigenvalues --  -10.39154  -1.23578  -1.21299  -1.17115  -0.91304
 Alpha  occ. eigenvalues --   -0.81709  -0.68641  -0.67098  -0.61730  -0.59805
 Alpha  occ. eigenvalues --   -0.57728  -0.56029  -0.52471  -0.48173  -0.45426
 Alpha  occ. eigenvalues --   -0.41710  -0.37966
 Alpha virt. eigenvalues --   -0.07233   0.01960   0.15623   0.21486   0.22876
 Alpha virt. eigenvalues --    0.26094   0.35709   0.37019   0.40307   0.47784
 Alpha virt. eigenvalues --    0.56655   0.61354   0.64133   0.67990   0.71295

 Mulliken charges:
               1
     1  C    0.172332
     2  C    0.348576
     3  C    0.155903
     4  H    0.190621
     5  O   -0.348351
     6  O   -0.361209
     7  O   -0.348052
     8  H    0.190180
 Sum of Mulliken charges =  -0.00000

 Dipole moment (field-independent basis, Debye):
    X=             -2.1160    Y=             -0.0478    Z=              0.9057  Tot=              2.3022
 Quadrupole moment (field-independent basis, Debye-Ang):
   XX=            -40.6432   YY=            -34.9979   ZZ=            -30.3294
   XY=             -4.0163   XZ=             -0.7760   YZ=              0.0488

 Normal termination of Gaussian 16 at Wed Jun  5 17:01:00 2019.
