 Gaussian 16, Revision A.03,
 Gaussian 16:  ES64L-G16RevA.03 25-Dec-2016

 ----------------
 # 6-31g(d) wb97x
 ----------------

 ------------------------
 tmpdir/M2_conf_0_146.gjf
 ------------------------
 Symbolic Z-matrix:
 Charge =  0 Multiplicity = 1

                         Standard orientation:
 ---------------------------------------------------------------------
 Center     Atomic      Atomic             Coordinates (Angstroms)
 Number     Number       Type             X           Y           Z
 ---------------------------------------------------------------------
      1          6           0        0.631346    0.027805   -0.000845
      2          7           0       -0.713337   -0.133290    0.000624
      3          1           0        1.289548   -0.828066    0.000359
      4          1           0        1.153381    0.949414    0.002626
      5          1           0       -1.237644    0.644853   -0.002284
 ---------------------------------------------------------------------

 SCF Done:  E(RwB97X) =  -94.5759290415     A.U. after   13 cycles

 The electronic state is 1-A.
 Alpha  occ. eigenvalues --  -14.40675 -10.32625  -1.00676  -0.76931  -0.60949
 Alpha  occ. eigenvalues --   -0.54283  -0.41285  -0.36709
 Alpha virt. eigenvalues --    0.06607   0.21944   0.23759   0.28902   0.39214
 Alpha virt. eigenvalues --    0.65568   0.67594   0.70000   0.78138   0.83617
 Alpha virt. eigenvalues --    0.87155   0.96475   1.05306   1.08911   1.15510

 Mulliken charges:
               1
     1  C   -0.154687
     2  N   -0.508473
     3  H    0.179112
     4  H    0.160800
     5  H    0.323248
 Sum of Mulliken charges =   0.00000

 Dipole moment (field-independent basis, Debye):
    X=              1.3016    Y=              1.6496    Z=             -0.0021  Tot=              2.1013
 Quadrupole moment (field-independent basis, Debye-Ang):
   XX=            -11.0968   YY=            -12.3237   ZZ=            -13.3796
   XY=             -2.1745   XZ=              0.0077   YZ=             -0.0002

 Normal termination of Gaussian 16 at Wed Jun  5 17:00:18 2019.
