 Gaussian 16, Revision A.03,
 Gaussian 16:  ES64L-G16RevA.03 25-Dec-2016

 ----------------
 # 6-31g(d) wb97x
 ----------------

 -----------------------
 tmpdir/M2_conf_1_82.gjf
 -----------------------
 Symbolic Z-matrix:
 Charge =  0 Multiplicity = 1

                         Standard orientation:
 ---------------------------------------------------------------------
 Center     Atomic      Atomic             Coordinates (Angstroms)
 Number     Number       Type             X           Y           Z
 ---------------------------------------------------------------------
      1          6           0       -1.427362   -0.468746   -0.002976
      2          6           0       -0.581134    0.640395   -0.005887
      3          6           0        0.798380    0.480553    0.006667
      4          1           0       -2.515902   -0.342277    0.034489
      5          1           0       -1.018889   -1.392776    0.002418
      6          1           0       -1.008434    1.641350   -0.016979
      7          1           0        1.463203    1.339592    0.016989
      8          8           0        1.292590   -0.644887   -0.002968
 ---------------------------------------------------------------------

 SCF Done:  E(RwB97X) =  -191.836792258     A.U. after   15 cycles

 The electronic state is 1-A.
 Alpha  occ. eigenvalues --  -19.20405 -10.35016 -10.30198 -10.28847  -1.15778
 Alpha  occ. eigenvalues --   -0.92215  -0.79588  -0.66587  -0.63292  -0.55451
 Alpha  occ. eigenvalues --   -0.52656  -0.50484  -0.49147  -0.37017  -0.35658
 Alpha virt. eigenvalues --    0.00953   0.17409   0.20180   0.23987   0.26776
 Alpha virt. eigenvalues --    0.30204   0.34948   0.41136   0.46501   0.61971
 Alpha virt. eigenvalues --    0.63135   0.68302   0.68784   0.70494   0.74637

 Mulliken charges:
               1
     1  C   -0.300527
     2  C   -0.193645
     3  C    0.209342
     4  H    0.182713
     5  H    0.213199
     6  H    0.167707
     7  H    0.137620
     8  O   -0.416409
 Sum of Mulliken charges =  -0.00000

 Dipole moment (field-independent basis, Debye):
    X=             -2.1323    Y=              1.7272    Z=              0.0370  Tot=              2.7443
 Quadrupole moment (field-independent basis, Debye-Ang):
   XX=            -23.0927   YY=            -21.9188   ZZ=            -24.3124
   XY=              3.2290   XZ=             -0.0461   YZ=             -0.0280

 Normal termination of Gaussian 16 at Wed Jun  5 17:02:03 2019.
