 Gaussian 16, Revision A.03,
 Gaussian 16:  ES64L-G16RevA.03 25-Dec-2016

 ----------------
 # 6-31g(d) wb97x
 ----------------

 ------------------------
 tmpdir/M2_conf_1_159.gjf
 ------------------------
 Symbolic Z-matrix:
 Charge =  0 Multiplicity = 1

                         Standard orientation:
 ---------------------------------------------------------------------
 Center     Atomic      Atomic             Coordinates (Angstroms)
 Number     Number       Type             X           Y           Z
 ---------------------------------------------------------------------
      1          1           0       -1.180358    1.466168   -0.006755
      2          6           0       -0.646657    0.516458   -0.003891
      3          6           0        0.743485    0.504187   -0.001216
      4          8           0       -1.368831   -0.526253    0.003128
      5          1           0        1.313039    1.425608    0.022820
      6          8           0        1.279625   -0.600703   -0.001306
 ---------------------------------------------------------------------

 SCF Done:  E(RwB97X) =  -227.731777615     A.U. after   16 cycles

 The electronic state is 1-A.
 Alpha  occ. eigenvalues --  -19.25784 -19.25408 -10.38508 -10.38237  -1.21144
 Alpha  occ. eigenvalues --   -1.16137  -0.88178  -0.69712  -0.66797  -0.57996
 Alpha  occ. eigenvalues --   -0.55923  -0.54778  -0.47142  -0.40939  -0.38327
 Alpha virt. eigenvalues --   -0.04255   0.13675   0.20387   0.23714   0.26497
 Alpha virt. eigenvalues --    0.41459   0.48250   0.58900   0.60896   0.67613
 Alpha virt. eigenvalues --    0.68081   0.76251   0.77246   0.86312   0.92907

 Mulliken charges:
               1
     1  H    0.153595
     2  C    0.177181
     3  C    0.174585
     4  O   -0.349996
     5  H    0.170813
     6  O   -0.326178
 Sum of Mulliken charges =  -0.00000

 Dipole moment (field-independent basis, Debye):
    X=              0.4778    Y=              3.7249    Z=             -0.0022  Tot=              3.7554
 Quadrupole moment (field-independent basis, Debye-Ang):
   XX=            -25.5137   YY=            -21.1149   ZZ=            -20.8943
   XY=              0.3752   XZ=              0.0245   YZ=              0.0083

 Normal termination of Gaussian 16 at Wed Jun  5 17:02:54 2019.
