 Gaussian 16, Revision A.03,
 Gaussian 16:  ES64L-G16RevA.03 25-Dec-2016

 ----------------
 # 6-31g(d) wb97x
 ----------------

 -----------------------
 tmpdir/M2_conf_1_45.gjf
 -----------------------
 Symbolic Z-matrix:
 Charge =  0 Multiplicity = 1

                         Standard orientation:
 ---------------------------------------------------------------------
 Center     Atomic      Atomic             Coordinates (Angstroms)
 Number     Number       Type             X           Y           Z
 ---------------------------------------------------------------------
      1          6           0       -0.762642    0.001758    0.005137
      2          6           0        0.758525   -0.000975   -0.004546
      3          1           0        1.164816   -0.639742    0.787300
      4          1           0       -1.166720    0.701003   -0.803277
      5          1           0       -1.130834   -1.012481   -0.189987
      6          1           0       -1.116110    0.301415    1.012351
      7          1           0        1.113956   -0.414955   -0.967966
      8          1           0        1.159595    1.060064    0.158037
 ---------------------------------------------------------------------

 SCF Done:  E(RwB97X) =  -79.7973372754     A.U. after   12 cycles

 The electronic state is 1-A.
 Alpha  occ. eigenvalues --  -10.26122 -10.26077  -0.87845  -0.72522  -0.54365
 Alpha  occ. eigenvalues --   -0.53962  -0.46209  -0.43931  -0.43654
 Alpha virt. eigenvalues --    0.19285   0.25093   0.25217   0.25854   0.28177
 Alpha virt. eigenvalues --    0.28416   0.33734   0.61398   0.65864   0.66161
 Alpha virt. eigenvalues --    0.73913   0.75033   0.78893   0.97421   0.98842

 Mulliken charges:
               1
     1  C   -0.457361
     2  C   -0.459123
     3  H    0.157594
     4  H    0.147811
     5  H    0.156969
     6  H    0.154682
     7  H    0.154215
     8  H    0.145212
 Sum of Mulliken charges =   0.00000

 Dipole moment (field-independent basis, Debye):
    X=              0.0032    Y=             -0.0813    Z=              0.0255  Tot=              0.0852
 Quadrupole moment (field-independent basis, Debye-Ang):
   XX=            -15.6545   YY=            -14.6997   ZZ=            -14.6790
   XY=             -0.0213   XZ=              0.0814   YZ=              0.0113

 Normal termination of Gaussian 16 at Wed Jun  5 17:01:25 2019.
