 Gaussian 16, Revision A.03,
 Gaussian 16:  ES64L-G16RevA.03 25-Dec-2016

 ----------------
 # 6-31g(d) wb97x
 ----------------

 -----------------------
 tmpdir/M2_conf_2_64.gjf
 -----------------------
 Symbolic Z-matrix:
 Charge =  0 Multiplicity = 1

                         Standard orientation:
 ---------------------------------------------------------------------
 Center     Atomic      Atomic             Coordinates (Angstroms)
 Number     Number       Type             X           Y           Z
 ---------------------------------------------------------------------
      1          6           0        0.703725    0.486283   -0.005851
      2          6           0       -0.692064    0.483933   -0.000884
      3          1           0        1.257781    1.431960    0.026320
      4          6           0        1.378119   -0.734966    0.000497
      5          1           0       -1.215472    1.436503   -0.003690
      6          6           0       -1.396832   -0.713327    0.002466
 ---------------------------------------------------------------------

 SCF Done:  E(RwB97X) =  -153.247320569     A.U. after   18 cycles

 The electronic state is 1-A.
 Alpha  occ. eigenvalues --  -10.36276 -10.36105 -10.31322 -10.31127  -0.98046
 Alpha  occ. eigenvalues --   -0.84479  -0.72406  -0.60138  -0.59479  -0.46759
 Alpha  occ. eigenvalues --   -0.42520  -0.40060  -0.33267
 Alpha virt. eigenvalues --   -0.03432   0.00588   0.02645   0.16824   0.20824
 Alpha virt. eigenvalues --    0.25046   0.35333   0.45723   0.48020   0.58312
 Alpha virt. eigenvalues --    0.60898   0.63483   0.65970   0.66647   0.69177

 Mulliken charges:
               1
     1  C   -0.266711
     2  C   -0.270918
     3  H    0.234902
     4  C    0.034012
     5  H    0.235982
     6  C    0.032734
 Sum of Mulliken charges =  -0.00000

 Dipole moment (field-independent basis, Debye):
    X=              0.0879    Y=              3.4970    Z=              0.0240  Tot=              3.4982
 Quadrupole moment (field-independent basis, Debye-Ang):
   XX=            -24.1490   YY=            -23.4074   ZZ=            -25.4677
   XY=             -0.0197   XZ=              0.0801   YZ=              0.0565

 Normal termination of Gaussian 16 at Wed Jun  5 17:04:17 2019.
