 Gaussian 16, Revision A.03,
 Gaussian 16:  ES64L-G16RevA.03 25-Dec-2016

 ----------------
 # 6-31g(d) wb97x
 ----------------

 ------------------------
 tmpdir/M2_conf_1_107.gjf
 ------------------------
 Symbolic Z-matrix:
 Charge =  0 Multiplicity = 1

                         Standard orientation:
 ---------------------------------------------------------------------
 Center     Atomic      Atomic             Coordinates (Angstroms)
 Number     Number       Type             X           Y           Z
 ---------------------------------------------------------------------
      1          6           0        1.429206   -0.461436   -0.000482
      2          6           0        0.574937    0.640885   -0.005263
      3          6           0       -0.808176    0.476118   -0.000254
      4          1           0        2.498246   -0.326852    0.005959
      5          1           0        1.039517   -1.394640   -0.002792
      6          1           0        0.955012    1.685229    0.022279
      7          1           0       -1.467267    1.341744   -0.006491
      8          8           0       -1.275164   -0.654860    0.002130
 ---------------------------------------------------------------------

 SCF Done:  E(RwB97X) =  -191.836612804     A.U. after   15 cycles

 The electronic state is 1-A.
 Alpha  occ. eigenvalues --  -19.20456 -10.34992 -10.29965 -10.29018  -1.16125
 Alpha  occ. eigenvalues --   -0.92007  -0.79698  -0.66506  -0.62915  -0.55633
 Alpha  occ. eigenvalues --   -0.52820  -0.50636  -0.49037  -0.36988  -0.35667
 Alpha virt. eigenvalues --    0.01062   0.17435   0.20119   0.24016   0.26577
 Alpha virt. eigenvalues --    0.30420   0.35136   0.40925   0.46115   0.61981
 Alpha virt. eigenvalues --    0.63583   0.68078   0.68785   0.70726   0.74656

 Mulliken charges:
               1
     1  C   -0.302476
     2  C   -0.193576
     3  C    0.211152
     4  H    0.183531
     5  H    0.213422
     6  H    0.162963
     7  H    0.137084
     8  O   -0.412101
 Sum of Mulliken charges =  -0.00000

 Dipole moment (field-independent basis, Debye):
    X=              2.0248    Y=              1.7240    Z=              0.0147  Tot=              2.6594
 Quadrupole moment (field-independent basis, Debye-Ang):
   XX=            -23.1012   YY=            -21.8855   ZZ=            -24.3157
   XY=             -3.3373   XZ=              0.0437   YZ=              0.0377

 Normal termination of Gaussian 16 at Wed Jun  5 17:02:20 2019.
