 Gaussian 16, Revision A.03,
 Gaussian 16:  ES64L-G16RevA.03 25-Dec-2016

 ----------------
 # 6-31g(d) wb97x
 ----------------

 -----------------------
 tmpdir/M2_conf_0_22.gjf
 -----------------------
 Symbolic Z-matrix:
 Charge =  0 Multiplicity = 1

                         Standard orientation:
 ---------------------------------------------------------------------
 Center     Atomic      Atomic             Coordinates (Angstroms)
 Number     Number       Type             X           Y           Z
 ---------------------------------------------------------------------
      1          6           0        1.258158   -0.205649    0.021743
      2          7           0        0.000929    0.501290   -0.158719
      3          6           0       -1.253087   -0.212224    0.019781
      4          1           0        1.318011   -1.067356   -0.661930
      5          1           0        2.084117    0.484700   -0.187404
      6          1           0        1.373686   -0.565473    1.063835
      7          1           0       -0.054675    1.317544    0.439976
      8          1           0       -2.081899    0.473432   -0.192992
      9          1           0       -1.369803   -0.569702    1.062760
     10          1           0       -1.306367   -1.074934   -0.662358
 ---------------------------------------------------------------------

 SCF Done:  E(RwB97X) =  -135.118428287     A.U. after   13 cycles

 The electronic state is 1-A.
 Alpha  occ. eigenvalues --  -14.38405 -10.28203 -10.28068  -1.01749  -0.82579
 Alpha  occ. eigenvalues --   -0.73824  -0.59330  -0.54472  -0.53669  -0.49151
 Alpha  occ. eigenvalues --   -0.46786  -0.45980  -0.30396
 Alpha virt. eigenvalues --    0.18118   0.23718   0.24858   0.25277   0.26950
 Alpha virt. eigenvalues --    0.28432   0.28878   0.31191   0.37028   0.60904
 Alpha virt. eigenvalues --    0.65197   0.67827   0.70326   0.71024   0.85090

 Mulliken charges:
               1
     1  C   -0.317965
     2  N   -0.557330
     3  C   -0.322446
     4  H    0.160574
     5  H    0.165180
     6  H    0.124192
     7  H    0.302365
     8  H    0.163652
     9  H    0.123301
    10  H    0.158476
 Sum of Mulliken charges =  -0.00000

 Dipole moment (field-independent basis, Debye):
    X=             -0.0144    Y=             -0.0668    Z=              0.9791  Tot=              0.9815
 Quadrupole moment (field-independent basis, Debye-Ang):
   XX=            -19.3987   YY=            -19.8065   ZZ=            -21.7295
   XY=             -0.1302   XZ=             -0.0508   YZ=              1.9597

 Normal termination of Gaussian 16 at Wed Jun  5 16:59:38 2019.
