 Gaussian 16, Revision A.03,
 Gaussian 16:  ES64L-G16RevA.03 25-Dec-2016

 ----------------
 # 6-31g(d) wb97x
 ----------------

 ------------------------
 tmpdir/M2_conf_0_143.gjf
 ------------------------
 Symbolic Z-matrix:
 Charge =  0 Multiplicity = 1

                         Standard orientation:
 ---------------------------------------------------------------------
 Center     Atomic      Atomic             Coordinates (Angstroms)
 Number     Number       Type             X           Y           Z
 ---------------------------------------------------------------------
      1          6           0       -0.185307    0.467009   -0.003481
      2          7           0        1.083247   -0.130184    0.000043
      3          1           0        1.156828   -1.136008   -0.024018
      4          1           0       -0.322214    1.468978   -0.010201
      5          8           0       -1.160134   -0.306432    0.003507
      6          1           0        1.975571    0.227717    0.026752
 ---------------------------------------------------------------------

 SCF Done:  E(RwB97X) =  -169.823690515     A.U. after   15 cycles

 The electronic state is 1-A.
 Alpha  occ. eigenvalues --  -19.18111 -14.43075 -10.37670  -1.14562  -1.02114
 Alpha  occ. eigenvalues --   -0.76254  -0.66900  -0.59632  -0.51323  -0.50209
 Alpha  occ. eigenvalues --   -0.36312  -0.35629
 Alpha virt. eigenvalues --    0.10975   0.18857   0.23347   0.26884   0.35391
 Alpha virt. eigenvalues --    0.42116   0.64479   0.64605   0.74254   0.77717
 Alpha virt. eigenvalues --    0.82871   0.86393   0.98504   1.00683   1.02479

 Mulliken charges:
               1
     1  C    0.358804
     2  N   -0.765071
     3  H    0.358002
     4  H    0.167944
     5  O   -0.464345
     6  H    0.344665
 Sum of Mulliken charges =  -0.00000

 Dipole moment (field-independent basis, Debye):
    X=              3.5550    Y=              1.1982    Z=             -0.0081  Tot=              3.7515
 Quadrupole moment (field-independent basis, Debye-Ang):
   XX=            -16.9096   YY=            -14.6150   ZZ=            -18.4149
   XY=             -2.0169   XZ=              0.0689   YZ=              0.0723

 Normal termination of Gaussian 16 at Wed Jun  5 17:00:30 2019.
