 Gaussian 16, Revision A.03,
 Gaussian 16:  ES64L-G16RevA.03 25-Dec-2016

 ----------------
 # 6-31g(d) wb97x
 ----------------

 -----------------------
 tmpdir/M2_conf_1_95.gjf
 -----------------------
 Symbolic Z-matrix:
 Charge =  0 Multiplicity = 1

                         Standard orientation:
 ---------------------------------------------------------------------
 Center     Atomic      Atomic             Coordinates (Angstroms)
 Number     Number       Type             X           Y           Z
 ---------------------------------------------------------------------
      1          6           0       -0.754881    0.504685   -0.088876
      2          6           0        0.737847    0.493245    0.082699
      3          8           0        1.376677   -0.536365   -0.073382
      4          1           0       -1.281120    1.327729   -0.350399
      5          8           0       -1.349956   -0.558025    0.076857
      6          1           0        1.169555    1.439812    0.359662
 ---------------------------------------------------------------------

 SCF Done:  E(RwB97X) =  -227.740758265     A.U. after   16 cycles

 The electronic state is 1-A.
 Alpha  occ. eigenvalues --  -19.25442 -19.24973 -10.38715 -10.37800  -1.20904
 Alpha  occ. eigenvalues --   -1.17707  -0.85422  -0.71406  -0.65934  -0.57691
 Alpha  occ. eigenvalues --   -0.56624  -0.54047  -0.48589  -0.41982  -0.36889
 Alpha virt. eigenvalues --   -0.01770   0.11282   0.22077   0.23746   0.28892
 Alpha virt. eigenvalues --    0.39143   0.42870   0.60148   0.63728   0.66989
 Alpha virt. eigenvalues --    0.72525   0.75875   0.76974   0.84413   0.94332

 Mulliken charges:
               1
     1  C    0.166094
     2  C    0.183702
     3  O   -0.334951
     4  H    0.170566
     5  O   -0.337294
     6  H    0.151884
 Sum of Mulliken charges =  -0.00000

 Dipole moment (field-independent basis, Debye):
    X=             -0.1468    Y=              3.7539    Z=             -0.0436  Tot=              3.7570
 Quadrupole moment (field-independent basis, Debye-Ang):
   XX=            -25.6754   YY=            -21.0176   ZZ=            -20.7985
   XY=             -0.3029   XZ=              0.7288   YZ=             -0.0187

 Normal termination of Gaussian 16 at Wed Jun  5 17:01:54 2019.
