 Gaussian 16, Revision A.03,
 Gaussian 16:  ES64L-G16RevA.03 25-Dec-2016

 ----------------
 # 6-31g(d) wb97x
 ----------------

 ------------------------
 tmpdir/M2_conf_2_127.gjf
 ------------------------
 Symbolic Z-matrix:
 Charge =  0 Multiplicity = 1

                         Standard orientation:
 ---------------------------------------------------------------------
 Center     Atomic      Atomic             Coordinates (Angstroms)
 Number     Number       Type             X           Y           Z
 ---------------------------------------------------------------------
      1          6           0        1.236088   -0.169817   -0.000115
      2          6           0       -0.113712    0.502570    0.000173
      3          6           0       -1.319264   -0.231575    0.000213
      4          1           0        2.035345    0.576282   -0.006539
      5          1           0        1.379318   -0.806775   -0.882938
      6          1           0        1.385708   -0.796165    0.889583
      7          1           0       -0.183336    1.505756   -0.001014
      8          1           0       -2.212111    0.243350   -0.000051
      9          1           0       -1.223588   -1.329518   -0.000668
 ---------------------------------------------------------------------

 SCF Done:  E(RwB97X) =  -117.846711601     A.U. after   14 cycles

 The electronic state is 1-A.
 Alpha  occ. eigenvalues --  -10.27137 -10.26264 -10.25770  -0.90319  -0.80262
 Alpha  occ. eigenvalues --   -0.68151  -0.57811  -0.51578  -0.51548  -0.46559
 Alpha  occ. eigenvalues --   -0.45686  -0.33362
 Alpha virt. eigenvalues --    0.09781   0.21300   0.23617   0.25238   0.28999
 Alpha virt. eigenvalues --    0.29903   0.30522   0.38960   0.41709   0.61145
 Alpha virt. eigenvalues --    0.62971   0.66424   0.70052   0.72473   0.76443

 Mulliken charges:
               1
     1  C   -0.518327
     2  C   -0.115736
     3  C   -0.360932
     4  H    0.163107
     5  H    0.177449
     6  H    0.177453
     7  H    0.161074
     8  H    0.166525
     9  H    0.149387
 Sum of Mulliken charges =   0.00000

 Dipole moment (field-independent basis, Debye):
    X=              0.3571    Y=              0.0728    Z=             -0.0011  Tot=              0.3644
 Quadrupole moment (field-independent basis, Debye-Ang):
   XX=            -18.7863   YY=            -18.4339   ZZ=            -21.3537
   XY=             -0.1448   XZ=              0.0036   YZ=              0.0004

 Normal termination of Gaussian 16 at Wed Jun  5 17:04:47 2019.
