 Gaussian 16, Revision A.03,
 Gaussian 16:  ES64L-G16RevA.03 25-Dec-2016

 ----------------
 # 6-31g(d) wb97x
 ----------------

 ------------------------
 tmpdir/M2_conf_1_166.gjf
 ------------------------
 Symbolic Z-matrix:
 Charge =  0 Multiplicity = 1

                         Standard orientation:
 ---------------------------------------------------------------------
 Center     Atomic      Atomic             Coordinates (Angstroms)
 Number     Number       Type             X           Y           Z
 ---------------------------------------------------------------------
      1          7           0        0.808903    0.517907    0.002315
      2          6           0       -0.526043    0.635161   -0.003811
      3          6           0       -1.365737   -0.476313   -0.002840
      4          8           0        1.245566   -0.556331    0.000974
      5          1           0       -0.914878    1.637049   -0.001293
      6          1           0       -0.916095   -1.376634   -0.011274
      7          1           0       -2.445192   -0.388201    0.028475
 ---------------------------------------------------------------------

 SCF Done:  E(RwB97X) =  -207.792854840     A.U. after   21 cycles

 The electronic state is 1-A.
 Alpha  occ. eigenvalues --  -19.26107 -14.50622 -10.31210 -10.30923  -1.31882
 Alpha  occ. eigenvalues --   -0.96737  -0.84445  -0.68372  -0.64574  -0.59985
 Alpha  occ. eigenvalues --   -0.58814  -0.54025  -0.49826  -0.38860  -0.31127
 Alpha virt. eigenvalues --   -0.01679   0.15047   0.21230   0.24717   0.28468
 Alpha virt. eigenvalues --    0.37545   0.38680   0.48338   0.62930   0.64717
 Alpha virt. eigenvalues --    0.69818   0.71433   0.72928   0.76416   0.80888

 Mulliken charges:
               1
     1  N    0.046619
     2  C   -0.048776
     3  C   -0.303842
     4  O   -0.288639
     5  H    0.186195
     6  H    0.209708
     7  H    0.198735
 Sum of Mulliken charges =  -0.00000

 Dipole moment (field-independent basis, Debye):
    X=             -3.0168    Y=              0.0500    Z=              0.0040  Tot=              3.0172
 Quadrupole moment (field-independent basis, Debye-Ang):
   XX=            -22.8470   YY=            -22.0856   ZZ=            -22.9775
   XY=              0.1929   XZ=             -0.0749   YZ=             -0.0115

 Normal termination of Gaussian 16 at Wed Jun  5 17:02:50 2019.
