 Gaussian 16, Revision A.03,
 Gaussian 16:  ES64L-G16RevA.03 25-Dec-2016

 ----------------
 # 6-31g(d) wb97x
 ----------------

 ------------------------
 tmpdir/M2_conf_1_122.gjf
 ------------------------
 Symbolic Z-matrix:
 Charge =  0 Multiplicity = 1

                         Standard orientation:
 ---------------------------------------------------------------------
 Center     Atomic      Atomic             Coordinates (Angstroms)
 Number     Number       Type             X           Y           Z
 ---------------------------------------------------------------------
      1          1           0       -1.236839    1.439791   -0.001942
      2          6           0       -0.688537    0.500053   -0.001427
      3          6           0        0.700549    0.517798    0.001055
      4          8           0       -1.309889   -0.554040    0.000861
      5          1           0        1.241685    1.465825    0.002973
      6          8           0        1.300274   -0.572550   -0.000711
 ---------------------------------------------------------------------

 SCF Done:  E(RwB97X) =  -227.736420945     A.U. after   14 cycles

 The electronic state is 1-A.
 Alpha  occ. eigenvalues --  -19.25594 -19.25311 -10.38288 -10.37896  -1.21437
 Alpha  occ. eigenvalues --   -1.17112  -0.87974  -0.69256  -0.67045  -0.58074
 Alpha  occ. eigenvalues --   -0.56194  -0.55080  -0.47615  -0.40921  -0.38273
 Alpha virt. eigenvalues --   -0.03831   0.14163   0.20495   0.23763   0.27054
 Alpha virt. eigenvalues --    0.41447   0.49045   0.58883   0.61300   0.67436
 Alpha virt. eigenvalues --    0.69139   0.76990   0.78165   0.85994   0.92656

 Mulliken charges:
               1
     1  H    0.149857
     2  C    0.182749
     3  C    0.171724
     4  O   -0.331724
     5  H    0.164645
     6  O   -0.337251
 Sum of Mulliken charges =  -0.00000

 Dipole moment (field-independent basis, Debye):
    X=              0.0731    Y=              3.6906    Z=             -0.0002  Tot=              3.6913
 Quadrupole moment (field-independent basis, Debye-Ang):
   XX=            -25.4407   YY=            -21.1319   ZZ=            -20.8326
   XY=              0.1694   XZ=              0.0059   YZ=              0.0009

 Normal termination of Gaussian 16 at Wed Jun  5 17:02:28 2019.
