 Gaussian 16, Revision A.03,
 Gaussian 16:  ES64L-G16RevA.03 25-Dec-2016

 ----------------
 # 6-31g(d) wb97x
 ----------------

 ------------------------
 tmpdir/M2_conf_0_150.gjf
 ------------------------
 Symbolic Z-matrix:
 Charge =  0 Multiplicity = 1

                         Standard orientation:
 ---------------------------------------------------------------------
 Center     Atomic      Atomic             Coordinates (Angstroms)
 Number     Number       Type             X           Y           Z
 ---------------------------------------------------------------------
      1          7           0       -1.306058   -0.527713   -0.001407
      2          6           0       -0.608383    0.605304    0.002720
      3          7           0        0.738236    0.554472   -0.004095
      4          1           0       -0.819479   -1.329993   -0.001758
      5          1           0       -1.109382    1.561726    0.005129
      6          8           0        1.194239   -0.506358    0.002353
 ---------------------------------------------------------------------

 SCF Done:  E(RwB97X) =  -223.820779052     A.U. after   22 cycles

 The electronic state is 1-A.
 Alpha  occ. eigenvalues --  -19.29899 -14.53258 -14.44108 -10.36137  -1.35751
 Alpha  occ. eigenvalues --   -1.06360  -0.92483  -0.73402  -0.67287  -0.63384
 Alpha  occ. eigenvalues --   -0.62205  -0.54428  -0.44352  -0.41506  -0.34004
 Alpha virt. eigenvalues --   -0.04621   0.12491   0.21892   0.24604   0.35854
 Alpha virt. eigenvalues --    0.37815   0.52288   0.62557   0.65797   0.68496
 Alpha virt. eigenvalues --    0.76793   0.79227   0.80507   0.80897   0.84268

 Mulliken charges:
               1
     1  N   -0.465649
     2  C    0.095358
     3  N    0.057943
     4  H    0.347328
     5  H    0.215695
     6  O   -0.250675
 Sum of Mulliken charges =  -0.00000

 Dipole moment (field-independent basis, Debye):
    X=             -0.3855    Y=              0.4670    Z=              0.0113  Tot=              0.6057
 Quadrupole moment (field-independent basis, Debye-Ang):
   XX=            -28.3328   YY=            -19.7712   ZZ=            -21.3610
   XY=             -1.7970   XZ=              0.0113   YZ=              0.0350

 Normal termination of Gaussian 16 at Wed Jun  5 17:00:20 2019.
