 Gaussian 16, Revision A.03,
 Gaussian 16:  ES64L-G16RevA.03 25-Dec-2016

 ----------------
 # 6-31g(d) wb97x
 ----------------

 -----------------------
 tmpdir/M2_conf_0_53.gjf
 -----------------------
 Symbolic Z-matrix:
 Charge =  0 Multiplicity = 1

                         Standard orientation:
 ---------------------------------------------------------------------
 Center     Atomic      Atomic             Coordinates (Angstroms)
 Number     Number       Type             X           Y           Z
 ---------------------------------------------------------------------
      1          6           0       -1.253497   -0.207400    0.018745
      2          7           0        0.000153    0.514231   -0.149837
      3          6           0        1.251812   -0.201106    0.018952
      4          1           0       -1.354307   -0.608223    1.045699
      5          1           0       -1.269058   -1.054596   -0.677188
      6          1           0       -2.106807    0.456771   -0.191660
      7          1           0        0.019807    1.326111    0.468630
      8          1           0        1.430377   -0.476042    1.077347
      9          1           0        1.171626   -1.145367   -0.536602
     10          1           0        2.117398    0.352762   -0.363552
 ---------------------------------------------------------------------

 SCF Done:  E(RwB97X) =  -135.118066195     A.U. after   13 cycles

 The electronic state is 1-A.
 Alpha  occ. eigenvalues --  -14.38497 -10.28259 -10.28061  -1.01703  -0.82480
 Alpha  occ. eigenvalues --   -0.74017  -0.59319  -0.54575  -0.53481  -0.48967
 Alpha  occ. eigenvalues --   -0.47240  -0.45745  -0.30440
 Alpha virt. eigenvalues --    0.18210   0.23668   0.24386   0.25108   0.26791
 Alpha virt. eigenvalues --    0.28429   0.29325   0.31548   0.37082   0.61208
 Alpha virt. eigenvalues --    0.65176   0.67609   0.69852   0.71180   0.84976

 Mulliken charges:
               1
     1  C   -0.319068
     2  N   -0.558316
     3  C   -0.321369
     4  H    0.125545
     5  H    0.160034
     6  H    0.165513
     7  H    0.300635
     8  H    0.125114
     9  H    0.154655
    10  H    0.167258
 Sum of Mulliken charges =  -0.00000

 Dipole moment (field-independent basis, Debye):
    X=             -0.0179    Y=             -0.1485    Z=              0.9832  Tot=              0.9945
 Quadrupole moment (field-independent basis, Debye-Ang):
   XX=            -19.3120   YY=            -19.9274   ZZ=            -21.6974
   XY=             -0.0059   XZ=             -0.0220   YZ=              1.8749

 Normal termination of Gaussian 16 at Wed Jun  5 16:59:38 2019.
