 Gaussian 16, Revision A.03,
 Gaussian 16:  ES64L-G16RevA.03 25-Dec-2016

 ----------------
 # 6-31g(d) wb97x
 ----------------

 -----------------------
 tmpdir/M2_conf_0_90.gjf
 -----------------------
 Symbolic Z-matrix:
 Charge =  0 Multiplicity = 1

                         Standard orientation:
 ---------------------------------------------------------------------
 Center     Atomic      Atomic             Coordinates (Angstroms)
 Number     Number       Type             X           Y           Z
 ---------------------------------------------------------------------
      1          6           0        0.798979    0.483160   -0.003688
      2          6           0       -0.588769    0.643598   -0.008475
      3          6           0       -1.413164   -0.480814    0.004002
      4          8           0        1.293377   -0.637525   -0.000054
      5          1           0        1.455583    1.350057    0.038089
      6          1           0       -1.081860    1.613062    0.001145
      7          1           0       -1.013372   -1.403151   -0.004516
      8          1           0       -2.489643   -0.335435    0.014677
 ---------------------------------------------------------------------

 SCF Done:  E(RwB97X) =  -191.837022797     A.U. after   15 cycles

 The electronic state is 1-A.
 Alpha  occ. eigenvalues --  -19.20508 -10.35170 -10.29876 -10.28803  -1.16059
 Alpha  occ. eigenvalues --   -0.92170  -0.79370  -0.66700  -0.63519  -0.55457
 Alpha  occ. eigenvalues --   -0.52324  -0.50574  -0.49390  -0.37041  -0.35737
 Alpha virt. eigenvalues --    0.01130   0.17313   0.20298   0.24169   0.26782
 Alpha virt. eigenvalues --    0.30422   0.34858   0.41155   0.46364   0.62038
 Alpha virt. eigenvalues --    0.62936   0.68685   0.68854   0.70564   0.74434

 Mulliken charges:
               1
     1  C    0.213252
     2  C   -0.201820
     3  C   -0.296369
     4  O   -0.413712
     5  H    0.135389
     6  H    0.170567
     7  H    0.212925
     8  H    0.179769
 Sum of Mulliken charges =  -0.00000

 Dipole moment (field-independent basis, Debye):
    X=             -2.1268    Y=              1.7109    Z=              0.0172  Tot=              2.7296
 Quadrupole moment (field-independent basis, Debye-Ang):
   XX=            -23.1274   YY=            -21.8983   ZZ=            -24.3014
   XY=              3.0551   XZ=             -0.0212   YZ=              0.0209

 Normal termination of Gaussian 16 at Wed Jun  5 16:59:45 2019.
