 Gaussian 16, Revision A.03,
 Gaussian 16:  ES64L-G16RevA.03 25-Dec-2016

 ----------------
 # 6-31g(d) wb97x
 ----------------

 ------------------------
 tmpdir/M2_conf_1_112.gjf
 ------------------------
 Symbolic Z-matrix:
 Charge =  0 Multiplicity = 1

                         Standard orientation:
 ---------------------------------------------------------------------
 Center     Atomic      Atomic             Coordinates (Angstroms)
 Number     Number       Type             X           Y           Z
 ---------------------------------------------------------------------
      1          1           0       -1.270386    1.433738    0.005820
      2          6           0       -0.714110    0.510947    0.001283
      3          6           0        0.682985    0.513451   -0.001520
      4          8           0       -1.297332   -0.571418   -0.001181
      5          8           0        1.319298   -0.555963    0.001270
      6          1           0        1.281410    1.438923   -0.005107
 ---------------------------------------------------------------------

 SCF Done:  E(RwB97X) =  -227.736648382     A.U. after   14 cycles

 The electronic state is 1-A.
 Alpha  occ. eigenvalues --  -19.25520 -19.25274 -10.38259 -10.38205  -1.21258
 Alpha  occ. eigenvalues --   -1.16930  -0.87592  -0.69482  -0.67002  -0.57967
 Alpha  occ. eigenvalues --   -0.56019  -0.54926  -0.47518  -0.40816  -0.38249
 Alpha virt. eigenvalues --   -0.03785   0.13927   0.20642   0.23399   0.26978
 Alpha virt. eigenvalues --    0.41691   0.48306   0.58981   0.60887   0.67401
 Alpha virt. eigenvalues --    0.69077   0.76956   0.78132   0.86255   0.92877

 Mulliken charges:
               1
     1  H    0.162682
     2  C    0.178443
     3  C    0.168957
     4  O   -0.330982
     5  O   -0.337898
     6  H    0.158798
 Sum of Mulliken charges =  -0.00000

 Dipole moment (field-independent basis, Debye):
    X=             -0.1422    Y=              3.7185    Z=              0.0000  Tot=              3.7212
 Quadrupole moment (field-independent basis, Debye-Ang):
   XX=            -25.3162   YY=            -21.1711   ZZ=            -20.8616
   XY=             -0.0784   XZ=             -0.0110   YZ=              0.0007

 Normal termination of Gaussian 16 at Wed Jun  5 17:02:15 2019.
