 Gaussian 16, Revision A.03,
 Gaussian 16:  ES64L-G16RevA.03 25-Dec-2016

 ----------------
 # 6-31g(d) wb97x
 ----------------

 -----------------------
 tmpdir/M2_conf_0_58.gjf
 -----------------------
 Symbolic Z-matrix:
 Charge =  0 Multiplicity = 1

                         Standard orientation:
 ---------------------------------------------------------------------
 Center     Atomic      Atomic             Coordinates (Angstroms)
 Number     Number       Type             X           Y           Z
 ---------------------------------------------------------------------
      1          7           0        0.738695   -0.006299   -0.118356
      2          6           0       -0.706859   -0.006703    0.012894
      3          1           0       -0.981060   -0.135054    1.078732
      4          1           0        1.154285    0.838345    0.273616
      5          1           0        1.159625   -0.831788    0.309919
      6          1           0       -1.068820    0.981070   -0.303317
      7          1           0       -1.193739   -0.768262   -0.607819
 ---------------------------------------------------------------------

 SCF Done:  E(RwB97X) =  -95.8204453082     A.U. after   12 cycles

 The electronic state is 1-A.
 Alpha  occ. eigenvalues --  -14.37936 -10.28038  -0.99372  -0.77412  -0.59787
 Alpha  occ. eigenvalues --   -0.53553  -0.51169  -0.46683  -0.32022
 Alpha virt. eigenvalues --    0.18368   0.24109   0.24916   0.27998   0.29387
 Alpha virt. eigenvalues --    0.34330   0.66184   0.67105   0.70179   0.84965
 Alpha virt. eigenvalues --    0.87538   0.89996   0.97844   1.03079   1.04122

 Mulliken charges:
               1
     1  N   -0.744640
     2  C   -0.324530
     3  H    0.128822
     4  H    0.308414
     5  H    0.306674
     6  H    0.159647
     7  H    0.165613
 Sum of Mulliken charges =  -0.00000

 Dipole moment (field-independent basis, Debye):
    X=             -0.1407    Y=              0.0775    Z=              1.3648  Tot=              1.3742
 Quadrupole moment (field-independent basis, Debye-Ang):
   XX=            -13.4891   YY=            -12.2305   ZZ=            -15.2381
   XY=              0.0432   XZ=              2.1148   YZ=              0.0058

 Normal termination of Gaussian 16 at Wed Jun  5 16:59:26 2019.
