 Gaussian 16, Revision A.03,
 Gaussian 16:  ES64L-G16RevA.03 25-Dec-2016

 ----------------
 # 6-31g(d) wb97x
 ----------------

 -----------------------
 tmpdir/M2_conf_1_94.gjf
 -----------------------
 Symbolic Z-matrix:
 Charge =  0 Multiplicity = 1

                         Standard orientation:
 ---------------------------------------------------------------------
 Center     Atomic      Atomic             Coordinates (Angstroms)
 Number     Number       Type             X           Y           Z
 ---------------------------------------------------------------------
      1          6           0       -0.164152    0.391563   -0.014518
      2          7           0        1.082960   -0.159859   -0.021798
      3          1           0       -0.184081    1.479058   -0.021217
      4          8           0       -1.198302   -0.258276    0.013713
      5          1           0        1.847376    0.476041    0.149608
      6          1           0        1.327312   -1.119256    0.001596
 ---------------------------------------------------------------------

 SCF Done:  E(RwB97X) =  -169.839852027     A.U. after   16 cycles

 The electronic state is 1-A.
 Alpha  occ. eigenvalues --  -19.18041 -14.43897 -10.37442  -1.15382  -1.03637
 Alpha  occ. eigenvalues --   -0.75397  -0.65931  -0.60323  -0.51689  -0.50818
 Alpha  occ. eigenvalues --   -0.37155  -0.35472
 Alpha virt. eigenvalues --    0.12426   0.17878   0.20819   0.27717   0.36566
 Alpha virt. eigenvalues --    0.44669   0.64244   0.65642   0.75379   0.79438
 Alpha virt. eigenvalues --    0.81120   0.83159   0.95725   0.98175   0.99582

 Mulliken charges:
               1
     1  C    0.343183
     2  N   -0.735497
     3  H    0.134410
     4  O   -0.451375
     5  H    0.342750
     6  H    0.366530
 Sum of Mulliken charges =   0.00000

 Dipole moment (field-independent basis, Debye):
    X=              3.8348    Y=              0.9675    Z=              0.2725  Tot=              3.9643
 Quadrupole moment (field-independent basis, Debye-Ang):
   XX=            -17.3440   YY=            -14.7585   ZZ=            -18.3780
   XY=             -1.4369   XZ=              0.6952   YZ=              0.1434

 Normal termination of Gaussian 16 at Wed Jun  5 17:02:34 2019.
