 Gaussian 16, Revision A.03,
 Gaussian 16:  ES64L-G16RevA.03 25-Dec-2016

 ----------------
 # 6-31g(d) wb97x
 ----------------

 ------------------------
 tmpdir/M2_conf_0_180.gjf
 ------------------------
 Symbolic Z-matrix:
 Charge =  0 Multiplicity = 1

                         Standard orientation:
 ---------------------------------------------------------------------
 Center     Atomic      Atomic             Coordinates (Angstroms)
 Number     Number       Type             X           Y           Z
 ---------------------------------------------------------------------
      1          6           0       -0.703152   -0.013205   -0.000659
      2          6           0        0.691594   -0.000977   -0.000497
      3          1           0       -1.175967   -0.898791   -0.002790
      4          1           0       -1.272294    0.911807    0.006496
      5          1           0        1.237141    0.941741   -0.003135
      6          1           0        1.280471   -0.869666    0.006363
 ---------------------------------------------------------------------

 SCF Done:  E(RwB97X) =  -78.5458783775     A.U. after   13 cycles

 The electronic state is 1-A.
 Alpha  occ. eigenvalues --  -10.27151 -10.26708  -0.87538  -0.70956  -0.57975
 Alpha  occ. eigenvalues --   -0.51269  -0.46954  -0.35633
 Alpha virt. eigenvalues --    0.09878   0.22380   0.25488   0.26886   0.34856
 Alpha virt. eigenvalues --    0.40983   0.60119   0.65658   0.66599   0.74516
 Alpha virt. eigenvalues --    0.75825   0.77443   0.99247   1.00478   1.06960

 Mulliken charges:
               1
     1  C   -0.330256
     2  C   -0.336213
     3  H    0.171090
     4  H    0.166144
     5  H    0.159869
     6  H    0.169367
 Sum of Mulliken charges =  -0.00000

 Dipole moment (field-independent basis, Debye):
    X=              0.0077    Y=             -0.0343    Z=              0.0066  Tot=              0.0358
 Quadrupole moment (field-independent basis, Debye-Ang):
   XX=            -11.7602   YY=            -12.0026   ZZ=            -15.1639
   XY=             -0.1006   XZ=             -0.0005   YZ=              0.0004

 Normal termination of Gaussian 16 at Wed Jun  5 17:00:34 2019.
