 Gaussian 16, Revision A.03,
 Gaussian 16:  ES64L-G16RevA.03 25-Dec-2016

 ----------------
 # 6-31g(d) wb97x
 ----------------

 ------------------------
 tmpdir/M2_conf_0_125.gjf
 ------------------------
 Symbolic Z-matrix:
 Charge =  0 Multiplicity = 1

                         Standard orientation:
 ---------------------------------------------------------------------
 Center     Atomic      Atomic             Coordinates (Angstroms)
 Number     Number       Type             X           Y           Z
 ---------------------------------------------------------------------
      1          6           0        0.769310   -0.635766   -0.002118
      2          6           0       -0.369178    0.160298   -0.000017
      3          6           0       -1.710207   -0.529415    0.000739
      4          8           0        1.895408   -0.157135    0.001671
      5          1           0        0.651758   -1.717397   -0.003630
      6          8           0       -0.220060    1.395727   -0.000598
      7          1           0       -1.582129   -1.615274   -0.005379
      8          1           0       -2.308860   -0.268052   -0.881813
      9          1           0       -2.303101   -0.278715    0.890621
 ---------------------------------------------------------------------

 SCF Done:  E(RwB97X) =  -267.053255359     A.U. after   15 cycles

 The electronic state is 1-A.
 Alpha  occ. eigenvalues --  -19.24683 -19.23780 -10.37874 -10.37130 -10.29673
 Alpha  occ. eigenvalues --   -1.20598  -1.16208  -0.92363  -0.82304  -0.67520
 Alpha  occ. eigenvalues --   -0.62275  -0.58586  -0.58453  -0.53567  -0.52205
 Alpha  occ. eigenvalues --   -0.52078  -0.45818  -0.40078  -0.37052
 Alpha virt. eigenvalues --   -0.02956   0.14819   0.18092   0.21350   0.25932
 Alpha virt. eigenvalues --    0.26575   0.30530   0.31728   0.44126   0.52688
 Alpha virt. eigenvalues --    0.57549   0.60456   0.66708   0.69549   0.73005

 Mulliken charges:
               1
     1  C    0.165587
     2  C    0.400649
     3  C   -0.592907
     4  O   -0.334348
     5  H    0.142671
     6  O   -0.393221
     7  H    0.176273
     8  H    0.217705
     9  H    0.217591
 Sum of Mulliken charges =  -0.00000

 Dipole moment (field-independent basis, Debye):
    X=             -2.8937    Y=             -3.1353    Z=             -0.0029  Tot=              4.2666
 Quadrupole moment (field-independent basis, Debye-Ang):
   XX=            -30.9965   YY=            -30.5877   ZZ=            -26.8481
   XY=              0.4341   XZ=             -0.0114   YZ=             -0.0007

 Normal termination of Gaussian 16 at Wed Jun  5 17:00:17 2019.
