 Gaussian 16, Revision A.03,
 Gaussian 16:  ES64L-G16RevA.03 25-Dec-2016

 ----------------
 # 6-31g(d) wb97x
 ----------------

 ------------------------
 tmpdir/M2_conf_2_143.gjf
 ------------------------
 Symbolic Z-matrix:
 Charge =  0 Multiplicity = 1

                         Standard orientation:
 ---------------------------------------------------------------------
 Center     Atomic      Atomic             Coordinates (Angstroms)
 Number     Number       Type             X           Y           Z
 ---------------------------------------------------------------------
      1          6           0       -0.181350    0.467723   -0.003530
      2          7           0        1.085203   -0.133705    0.000088
      3          1           0        1.097908   -1.142119   -0.024680
      4          1           0       -0.314908    1.470142   -0.010438
      5          8           0       -1.158755   -0.302456    0.003621
      6          1           0        1.978718    0.221219    0.026715
 ---------------------------------------------------------------------

 SCF Done:  E(RwB97X) =  -169.825321129     A.U. after   15 cycles

 The electronic state is 1-A.
 Alpha  occ. eigenvalues --  -19.18150 -14.43082 -10.37610  -1.14628  -1.02086
 Alpha  occ. eigenvalues --   -0.76030  -0.67205  -0.59555  -0.51404  -0.50240
 Alpha  occ. eigenvalues --   -0.36336  -0.35682
 Alpha virt. eigenvalues --    0.10982   0.19035   0.23486   0.26776   0.35394
 Alpha virt. eigenvalues --    0.41973   0.64566   0.64622   0.74900   0.77938
 Alpha virt. eigenvalues --    0.82879   0.84222   0.98778   1.00358   1.02548

 Mulliken charges:
               1
     1  C    0.357072
     2  N   -0.762971
     3  H    0.358020
     4  H    0.166885
     5  O   -0.465764
     6  H    0.346757
 Sum of Mulliken charges =  -0.00000

 Dipole moment (field-independent basis, Debye):
    X=              3.5179    Y=              1.1925    Z=             -0.0088  Tot=              3.7145
 Quadrupole moment (field-independent basis, Debye-Ang):
   XX=            -17.0296   YY=            -14.6035   ZZ=            -18.4153
   XY=             -1.8683   XZ=              0.0718   YZ=              0.0739

 Normal termination of Gaussian 16 at Wed Jun  5 17:04:41 2019.
