 Gaussian 16, Revision A.03,
 Gaussian 16:  ES64L-G16RevA.03 25-Dec-2016

 ----------------
 # 6-31g(d) wb97x
 ----------------

 ------------------------
 tmpdir/M2_conf_0_107.gjf
 ------------------------
 Symbolic Z-matrix:
 Charge =  0 Multiplicity = 1

                         Standard orientation:
 ---------------------------------------------------------------------
 Center     Atomic      Atomic             Coordinates (Angstroms)
 Number     Number       Type             X           Y           Z
 ---------------------------------------------------------------------
      1          6           0        1.409888   -0.469908   -0.000500
      2          6           0        0.579412    0.650447   -0.005317
      3          6           0       -0.802896    0.479079   -0.000196
      4          1           0        2.481564   -0.358240    0.006026
      5          1           0        1.000312   -1.394556   -0.002865
      6          1           0        0.981754    1.686416    0.022280
      7          1           0       -1.466108    1.341553   -0.006285
      8          8           0       -1.264494   -0.654111    0.002116
 ---------------------------------------------------------------------

 SCF Done:  E(RwB97X) =  -191.836547224     A.U. after   15 cycles

 The electronic state is 1-A.
 Alpha  occ. eigenvalues --  -19.20405 -10.34984 -10.29894 -10.28991  -1.16125
 Alpha  occ. eigenvalues --   -0.92017  -0.79576  -0.66479  -0.63007  -0.55634
 Alpha  occ. eigenvalues --   -0.52576  -0.50639  -0.49128  -0.36952  -0.35666
 Alpha virt. eigenvalues --    0.01116   0.17399   0.20223   0.24077   0.26543
 Alpha virt. eigenvalues --    0.30502   0.35150   0.40982   0.46000   0.62024
 Alpha virt. eigenvalues --    0.63545   0.68599   0.68805   0.70576   0.74744

 Mulliken charges:
               1
     1  C   -0.300626
     2  C   -0.198166
     3  C    0.213197
     4  H    0.182357
     5  H    0.214849
     6  H    0.165670
     7  H    0.136611
     8  O   -0.413891
 Sum of Mulliken charges =  -0.00000

 Dipole moment (field-independent basis, Debye):
    X=              2.0150    Y=              1.7230    Z=              0.0154  Tot=              2.6513
 Quadrupole moment (field-independent basis, Debye-Ang):
   XX=            -23.1329   YY=            -21.8433   ZZ=            -24.3112
   XY=             -3.2817   XZ=              0.0444   YZ=              0.0383

 Normal termination of Gaussian 16 at Wed Jun  5 17:00:14 2019.
