 Gaussian 16, Revision A.03,
 Gaussian 16:  ES64L-G16RevA.03 25-Dec-2016

 ----------------
 # 6-31g(d) wb97x
 ----------------

 ------------------------
 tmpdir/M2_conf_1_181.gjf
 ------------------------
 Symbolic Z-matrix:
 Charge =  0 Multiplicity = 1

                         Standard orientation:
 ---------------------------------------------------------------------
 Center     Atomic      Atomic             Coordinates (Angstroms)
 Number     Number       Type             X           Y           Z
 ---------------------------------------------------------------------
      1          6           0       -0.691173    0.513759   -0.000792
      2          6           0        0.695624    0.511025   -0.000477
      3          1           0        1.257976    1.440195    0.004517
      4          8           0       -1.286087   -0.562913    0.000586
      5          1           0       -1.240549    1.449504   -0.000429
      6          8           0        1.280570   -0.566886   -0.000145
 ---------------------------------------------------------------------

 SCF Done:  E(RwB97X) =  -227.736149474     A.U. after   14 cycles

 The electronic state is 1-A.
 Alpha  occ. eigenvalues --  -19.25280 -19.25246 -10.37881 -10.37820  -1.21729
 Alpha  occ. eigenvalues --   -1.17240  -0.87770  -0.69297  -0.67245  -0.58045
 Alpha  occ. eigenvalues --   -0.56343  -0.55076  -0.47650  -0.40693  -0.38261
 Alpha virt. eigenvalues --   -0.03560   0.14348   0.20818   0.23814   0.27273
 Alpha virt. eigenvalues --    0.41467   0.49457   0.58889   0.61071   0.67366
 Alpha virt. eigenvalues --    0.69811   0.77718   0.78487   0.86486   0.92862

 Mulliken charges:
               1
     1  C    0.176112
     2  C    0.174939
     3  H    0.157213
     4  O   -0.333710
     5  H    0.156954
     6  O   -0.331508
 Sum of Mulliken charges =  -0.00000

 Dipole moment (field-independent basis, Debye):
    X=              0.0249    Y=              3.7063    Z=             -0.0009  Tot=              3.7064
 Quadrupole moment (field-independent basis, Debye-Ang):
   XX=            -25.2543   YY=            -21.1286   ZZ=            -20.7923
   XY=              0.0163   XZ=              0.0039   YZ=              0.0014

 Normal termination of Gaussian 16 at Wed Jun  5 17:02:49 2019.
