 Gaussian 16, Revision A.03,
 Gaussian 16:  ES64L-G16RevA.03 25-Dec-2016

 ----------------
 # 6-31g(d) wb97x
 ----------------

 ------------------------
 tmpdir/M2_conf_2_149.gjf
 ------------------------
 Symbolic Z-matrix:
 Charge =  0 Multiplicity = 1

                         Standard orientation:
 ---------------------------------------------------------------------
 Center     Atomic      Atomic             Coordinates (Angstroms)
 Number     Number       Type             X           Y           Z
 ---------------------------------------------------------------------
      1          7           0       -1.535569   -0.581260   -0.002177
      2          6           0       -0.346168    0.105836   -0.000901
      3          7           0        0.748659   -0.679878    0.004515
      4          1           0       -2.474031   -0.293167   -0.005917
      5          1           0       -1.373899   -1.576970    0.007674
      6          8           0       -0.330259    1.379532    0.001834
      7          8           0        1.759423   -0.121646   -0.003424
 ---------------------------------------------------------------------

 SCF Done:  E(RwB97X) =  -299.067339748     A.U. after   20 cycles

 The electronic state is 1-A.
 Alpha  occ. eigenvalues --  -19.31352 -19.20774 -14.54423 -14.46715 -10.41614
 Alpha  occ. eigenvalues --   -1.36672  -1.16394  -1.06456  -0.93843  -0.72812
 Alpha  occ. eigenvalues --   -0.67832  -0.66744  -0.63725  -0.59349  -0.53383
 Alpha  occ. eigenvalues --   -0.51042  -0.39448  -0.38857  -0.34615
 Alpha virt. eigenvalues --   -0.04107   0.15477   0.17056   0.21799   0.32394
 Alpha virt. eigenvalues --    0.37636   0.45544   0.52155   0.63317   0.66947
 Alpha virt. eigenvalues --    0.68888   0.70786   0.76491   0.79703   0.80145

 Mulliken charges:
               1
     1  N   -0.760873
     2  C    0.661790
     3  N    0.004300
     4  H    0.386589
     5  H    0.360724
     6  O   -0.464046
     7  O   -0.188485
 Sum of Mulliken charges =  -0.00000

 Dipole moment (field-independent basis, Debye):
    X=             -2.9147    Y=             -3.0237    Z=             -0.0023  Tot=              4.1998
 Quadrupole moment (field-independent basis, Debye-Ang):
   XX=            -22.8219   YY=            -30.3865   ZZ=            -26.6118
   XY=              3.0759   XZ=              0.0029   YZ=             -0.0040

 Normal termination of Gaussian 16 at Wed Jun  5 17:05:03 2019.
