 Gaussian 16, Revision A.03,
 Gaussian 16:  ES64L-G16RevA.03 25-Dec-2016

 ----------------
 # 6-31g(d) wb97x
 ----------------

 -----------------------
 tmpdir/M2_conf_2_17.gjf
 -----------------------
 Symbolic Z-matrix:
 Charge =  0 Multiplicity = 1

                         Standard orientation:
 ---------------------------------------------------------------------
 Center     Atomic      Atomic             Coordinates (Angstroms)
 Number     Number       Type             X           Y           Z
 ---------------------------------------------------------------------
      1          1           0       -1.112310   -0.894189   -0.475573
      2          6           0       -0.704925    0.000161    0.010953
      3          7           0        0.743284    0.001135   -0.114120
      4          1           0       -1.127842    0.900401   -0.462584
      5          1           0       -1.013078   -0.023764    1.075491
      6          1           0        1.150768   -0.835137    0.288876
      7          1           0        1.129024    0.843777    0.306911
 ---------------------------------------------------------------------

 SCF Done:  E(RwB97X) =  -95.8215123796     A.U. after   13 cycles

 The electronic state is 1-A.
 Alpha  occ. eigenvalues --  -14.37947 -10.28050  -0.99492  -0.77373  -0.60196
 Alpha  occ. eigenvalues --   -0.53546  -0.50571  -0.47043  -0.32157
 Alpha virt. eigenvalues --    0.18452   0.24250   0.25481   0.27558   0.29067
 Alpha virt. eigenvalues --    0.34241   0.66061   0.67778   0.69745   0.84845
 Alpha virt. eigenvalues --    0.87358   0.89494   0.97744   1.02599   1.04788

 Mulliken charges:
               1
     1  H    0.162586
     2  C   -0.328279
     3  N   -0.741664
     4  H    0.162378
     5  H    0.127356
     6  H    0.309799
     7  H    0.307825
 Sum of Mulliken charges =  -0.00000

 Dipole moment (field-independent basis, Debye):
    X=             -0.1634    Y=             -0.0139    Z=              1.3606  Tot=              1.3705
 Quadrupole moment (field-independent basis, Debye-Ang):
   XX=            -13.6201   YY=            -12.1305   ZZ=            -15.2697
   XY=             -0.0569   XZ=              2.0644   YZ=              0.0213

 Normal termination of Gaussian 16 at Wed Jun  5 17:03:42 2019.
