 Gaussian 16, Revision A.03,
 Gaussian 16:  ES64L-G16RevA.03 25-Dec-2016

 ----------------
 # 6-31g(d) wb97x
 ----------------

 -----------------------
 tmpdir/M2_conf_1_37.gjf
 -----------------------
 Symbolic Z-matrix:
 Charge =  0 Multiplicity = 1

                         Standard orientation:
 ---------------------------------------------------------------------
 Center     Atomic      Atomic             Coordinates (Angstroms)
 Number     Number       Type             X           Y           Z
 ---------------------------------------------------------------------
      1          7           0       -0.739704    0.002300   -0.117606
      2          6           0        0.708185    0.000676    0.013355
      3          1           0        0.960836   -0.033204    1.092348
      4          1           0       -1.126856    0.844288    0.303212
      5          1           0       -1.149421   -0.834236    0.282548
      6          1           0        1.105361   -0.895381   -0.478215
      7          1           0        1.138899    0.898376   -0.456782
 ---------------------------------------------------------------------

 SCF Done:  E(RwB97X) =  -95.8203335380     A.U. after   13 cycles

 The electronic state is 1-A.
 Alpha  occ. eigenvalues --  -14.37782 -10.28057  -0.99473  -0.77272  -0.60147
 Alpha  occ. eigenvalues --   -0.53398  -0.50859  -0.47034  -0.31967
 Alpha virt. eigenvalues --    0.18368   0.24349   0.25501   0.27492   0.29041
 Alpha virt. eigenvalues --    0.34069   0.66055   0.67718   0.69946   0.84843
 Alpha virt. eigenvalues --    0.87345   0.89099   0.97808   1.02886   1.04854

 Mulliken charges:
               1
     1  N   -0.743613
     2  C   -0.327469
     3  H    0.128649
     4  H    0.306700
     5  H    0.309042
     6  H    0.163174
     7  H    0.163518
 Sum of Mulliken charges =   0.00000

 Dipole moment (field-independent basis, Debye):
    X=              0.1749    Y=             -0.0167    Z=              1.3629  Tot=              1.3742
 Quadrupole moment (field-independent basis, Debye-Ang):
   XX=            -13.6817   YY=            -12.1259   ZZ=            -15.2331
   XY=              0.0818   XZ=             -2.1164   YZ=              0.0252

 Normal termination of Gaussian 16 at Wed Jun  5 17:01:34 2019.
