 Gaussian 16, Revision A.03,
 Gaussian 16:  ES64L-G16RevA.03 25-Dec-2016

 ----------------
 # 6-31g(d) wb97x
 ----------------

 ------------------------
 tmpdir/M2_conf_2_102.gjf
 ------------------------
 Symbolic Z-matrix:
 Charge =  0 Multiplicity = 1

                         Standard orientation:
 ---------------------------------------------------------------------
 Center     Atomic      Atomic             Coordinates (Angstroms)
 Number     Number       Type             X           Y           Z
 ---------------------------------------------------------------------
      1          1           0       -1.843881    0.508229   -0.167130
      2          7           0       -1.107715   -0.166595   -0.023073
      3          6           0        0.182997    0.408796    0.036264
      4          1           0       -1.390755   -1.050936    0.217128
      5          8           0        1.206465   -0.269677   -0.025785
      6          1           0        0.238935    1.413516    0.100208
 ---------------------------------------------------------------------

 SCF Done:  E(RwB97X) =  -169.824621875     A.U. after   15 cycles

 The electronic state is 1-A.
 Alpha  occ. eigenvalues --  -19.18677 -14.43053 -10.37437  -1.15110  -1.02619
 Alpha  occ. eigenvalues --   -0.76224  -0.64788  -0.62077  -0.52087  -0.49856
 Alpha  occ. eigenvalues --   -0.36827  -0.35867
 Alpha virt. eigenvalues --    0.10867   0.18363   0.22509   0.28732   0.36100
 Alpha virt. eigenvalues --    0.41622   0.64450   0.66911   0.74604   0.78326
 Alpha virt. eigenvalues --    0.81029   0.83548   0.97334   0.99911   1.02558

 Mulliken charges:
               1
     1  H    0.336847
     2  N   -0.761619
     3  C    0.345033
     4  H    0.365922
     5  O   -0.440075
     6  H    0.153893
 Sum of Mulliken charges =  -0.00000

 Dipole moment (field-independent basis, Debye):
    X=             -3.5894    Y=              1.2934    Z=              0.3788  Tot=              3.8341
 Quadrupole moment (field-independent basis, Debye-Ang):
   XX=            -17.3229   YY=            -14.7583   ZZ=            -18.2300
   XY=              1.4024   XZ=             -0.0703   YZ=             -0.7167

 Normal termination of Gaussian 16 at Wed Jun  5 17:04:18 2019.
