 Gaussian 16, Revision A.03,
 Gaussian 16:  ES64L-G16RevA.03 25-Dec-2016

 ----------------
 # 6-31g(d) wb97x
 ----------------

 ------------------------
 tmpdir/M2_conf_1_126.gjf
 ------------------------
 Symbolic Z-matrix:
 Charge =  0 Multiplicity = 1

                         Standard orientation:
 ---------------------------------------------------------------------
 Center     Atomic      Atomic             Coordinates (Angstroms)
 Number     Number       Type             X           Y           Z
 ---------------------------------------------------------------------
      1          6           0        0.788095    0.476170    0.001603
      2          6           0       -0.589983    0.651588   -0.001050
      3          6           0       -1.414741   -0.493883    0.000392
      4          8           0        1.300485   -0.634976   -0.001037
      5          1           0        1.427822    1.356226    0.002505
      6          1           0       -1.019934    1.654952   -0.002695
      7          1           0       -1.009936   -1.420627    0.002381
      8          1           0       -2.502060   -0.313989    0.000438
 ---------------------------------------------------------------------

 SCF Done:  E(RwB97X) =  -191.835052287     A.U. after   15 cycles

 The electronic state is 1-A.
 Alpha  occ. eigenvalues --  -19.20376 -10.34858 -10.30585 -10.29039  -1.15958
 Alpha  occ. eigenvalues --   -0.92105  -0.79530  -0.66355  -0.63270  -0.55716
 Alpha  occ. eigenvalues --   -0.51783  -0.50528  -0.49786  -0.36896  -0.35590
 Alpha virt. eigenvalues --    0.00873   0.17367   0.20018   0.23615   0.26863
 Alpha virt. eigenvalues --    0.30225   0.34863   0.40560   0.46002   0.62064
 Alpha virt. eigenvalues --    0.63656   0.68686   0.68803   0.70572   0.73779

 Mulliken charges:
               1
     1  C    0.215493
     2  C   -0.200588
     3  C   -0.297505
     4  O   -0.416810
     5  H    0.129408
     6  H    0.172829
     7  H    0.217705
     8  H    0.179468
 Sum of Mulliken charges =  -0.00000

 Dipole moment (field-independent basis, Debye):
    X=             -2.2156    Y=              1.6855    Z=              0.0054  Tot=              2.7839
 Quadrupole moment (field-independent basis, Debye-Ang):
   XX=            -23.4024   YY=            -21.7441   ZZ=            -24.3556
   XY=              2.9895   XZ=              0.0034   YZ=             -0.0065

 Normal termination of Gaussian 16 at Wed Jun  5 17:02:33 2019.
