 Gaussian 16, Revision A.03,
 Gaussian 16:  ES64L-G16RevA.03 25-Dec-2016

 ----------------
 # 6-31g(d) wb97x
 ----------------

 ------------------------
 tmpdir/M2_conf_2_117.gjf
 ------------------------
 Symbolic Z-matrix:
 Charge =  0 Multiplicity = 1

                         Standard orientation:
 ---------------------------------------------------------------------
 Center     Atomic      Atomic             Coordinates (Angstroms)
 Number     Number       Type             X           Y           Z
 ---------------------------------------------------------------------
      1          1           0       -1.236926    0.933084    0.004809
      2          6           0       -0.695479   -0.010602   -0.001050
      3          6           0        0.692523   -0.010003   -0.000374
      4          1           0       -1.194493   -0.886762    0.000604
      5          1           0        1.223230    0.939777   -0.000745
      6          1           0        1.225921   -0.862470    0.003875
 ---------------------------------------------------------------------

 SCF Done:  E(RwB97X) =  -78.5434267401     A.U. after   12 cycles

 The electronic state is 1-A.
 Alpha  occ. eigenvalues --  -10.26589 -10.26508  -0.87832  -0.71051  -0.58516
 Alpha  occ. eigenvalues --   -0.51052  -0.47254  -0.35719
 Alpha virt. eigenvalues --    0.10058   0.22243   0.26388   0.27098   0.35072
 Alpha virt. eigenvalues --    0.41045   0.59686   0.66080   0.66573   0.74674
 Alpha virt. eigenvalues --    0.75713   0.77975   0.99824   1.00370   1.08654

 Mulliken charges:
               1
     1  H    0.163213
     2  C   -0.332516
     3  C   -0.332606
     4  H    0.170353
     5  H    0.160023
     6  H    0.171533
 Sum of Mulliken charges =   0.00000

 Dipole moment (field-independent basis, Debye):
    X=              0.0062    Y=             -0.0415    Z=              0.0082  Tot=              0.0428
 Quadrupole moment (field-independent basis, Debye-Ang):
   XX=            -11.8775   YY=            -11.9049   ZZ=            -15.1008
   XY=             -0.0504   XZ=             -0.0027   YZ=             -0.0001

 Normal termination of Gaussian 16 at Wed Jun  5 17:04:24 2019.
