 Gaussian 16, Revision A.03,
 Gaussian 16:  ES64L-G16RevA.03 25-Dec-2016

 ----------------
 # 6-31g(d) wb97x
 ----------------

 -----------------------
 tmpdir/M2_conf_0_66.gjf
 -----------------------
 Symbolic Z-matrix:
 Charge =  0 Multiplicity = 1

                         Standard orientation:
 ---------------------------------------------------------------------
 Center     Atomic      Atomic             Coordinates (Angstroms)
 Number     Number       Type             X           Y           Z
 ---------------------------------------------------------------------
      1          6           0       -1.750112   -0.492424    0.002559
      2          6           0       -0.364182    0.118310   -0.020190
      3          6           0        0.800790   -0.650229   -0.007155
      4          1           0       -1.823486   -1.455494   -0.604697
      5          1           0       -2.489668    0.262489   -0.330339
      6          1           0       -2.004142   -0.736268    1.043097
      7          8           0       -0.215626    1.339214   -0.004907
      8          1           0        0.711471   -1.733395   -0.018618
      9          8           0        1.901482   -0.113123    0.012315
 ---------------------------------------------------------------------

 SCF Done:  E(RwB97X) =  -267.054011393     A.U. after   17 cycles

 The electronic state is 1-A.
 Alpha  occ. eigenvalues --  -19.24648 -19.23374 -10.37584 -10.37288 -10.30169
 Alpha  occ. eigenvalues --   -1.20920  -1.16439  -0.91239  -0.82371  -0.67336
 Alpha  occ. eigenvalues --   -0.62046  -0.58388  -0.58237  -0.53353  -0.52332
 Alpha  occ. eigenvalues --   -0.51786  -0.45911  -0.39678  -0.37023
 Alpha virt. eigenvalues --   -0.02277   0.14128   0.18246   0.22462   0.23242
 Alpha virt. eigenvalues --    0.25903   0.30823   0.31946   0.44351   0.49711
 Alpha virt. eigenvalues --    0.58750   0.59196   0.66979   0.68000   0.73637

 Mulliken charges:
               1
     1  C   -0.579598
     2  C    0.392955
     3  C    0.167843
     4  H    0.174509
     5  H    0.215145
     6  H    0.204953
     7  O   -0.384431
     8  H    0.144364
     9  O   -0.335740
 Sum of Mulliken charges =  -0.00000

 Dipole moment (field-independent basis, Debye):
    X=             -2.7793    Y=             -3.1726    Z=              0.0648  Tot=              4.2183
 Quadrupole moment (field-independent basis, Debye-Ang):
   XX=            -31.2901   YY=            -30.1277   ZZ=            -27.0151
   XY=              0.0746   XZ=             -0.2698   YZ=             -0.0110

 Normal termination of Gaussian 16 at Wed Jun  5 16:59:47 2019.
