 Gaussian 16, Revision A.03,
 Gaussian 16:  ES64L-G16RevA.03 25-Dec-2016

 ----------------
 # 6-31g(d) wb97x
 ----------------

 -----------------------
 tmpdir/M2_conf_0_60.gjf
 -----------------------
 Symbolic Z-matrix:
 Charge =  0 Multiplicity = 1

                         Standard orientation:
 ---------------------------------------------------------------------
 Center     Atomic      Atomic             Coordinates (Angstroms)
 Number     Number       Type             X           Y           Z
 ---------------------------------------------------------------------
      1          7           0       -1.717241   -0.279830   -0.073284
      2          6           0       -0.489778    0.469593    0.123059
      3          6           0        0.779814   -0.349998    0.226629
      4          1           0       -2.542714    0.294602    0.095255
      5          1           0       -1.765686   -0.692700   -1.005604
      6          1           0       -0.336578    1.225996   -0.671959
      7          1           0       -0.588295    1.026497    1.064788
      8          1           0        0.775489   -1.242933    0.699230
      9          8           0        1.842283    0.078722   -0.220856
 ---------------------------------------------------------------------

 SCF Done:  E(RwB97X) =  -209.103213892     A.U. after   15 cycles

 The electronic state is 1-A.
 Alpha  occ. eigenvalues --  -19.21463 -14.40420 -10.35309 -10.30679  -1.16057
 Alpha  occ. eigenvalues --   -1.02128  -0.83565  -0.71771  -0.62739  -0.58651
 Alpha  occ. eigenvalues --   -0.54922  -0.53473  -0.51484  -0.46070  -0.36042
 Alpha  occ. eigenvalues --   -0.34390
 Alpha virt. eigenvalues --    0.06514   0.17689   0.22575   0.24686   0.25844
 Alpha virt. eigenvalues --    0.28065   0.32603   0.36139   0.40998   0.63662
 Alpha virt. eigenvalues --    0.66687   0.68069   0.74354   0.76074   0.78061

 Mulliken charges:
               1
     1  N   -0.756105
     2  C   -0.240709
     3  C    0.238577
     4  H    0.323543
     5  H    0.318585
     6  H    0.166737
     7  H    0.187283
     8  H    0.157777
     9  O   -0.395689
 Sum of Mulliken charges =  -0.00000

 Dipole moment (field-independent basis, Debye):
    X=             -2.7727    Y=              0.3270    Z=             -0.0091  Tot=              2.7919
 Quadrupole moment (field-independent basis, Debye-Ang):
   XX=            -27.4120   YY=            -23.6877   ZZ=            -22.4868
   XY=             -3.1575   XZ=              3.1214   YZ=              1.5366

 Normal termination of Gaussian 16 at Wed Jun  5 16:59:39 2019.
