 Gaussian 16, Revision A.03,
 Gaussian 16:  ES64L-G16RevA.03 25-Dec-2016

 ----------------
 # 6-31g(d) wb97x
 ----------------

 -----------------------
 tmpdir/M2_conf_1_46.gjf
 -----------------------
 Symbolic Z-matrix:
 Charge =  0 Multiplicity = 1

                         Standard orientation:
 ---------------------------------------------------------------------
 Center     Atomic      Atomic             Coordinates (Angstroms)
 Number     Number       Type             X           Y           Z
 ---------------------------------------------------------------------
      1          6           0        0.761268    0.001199   -0.003921
      2          6           0       -0.759911    0.000576    0.004037
      3          1           0       -1.126445    0.062105    1.046992
      4          1           0        1.163190    0.989511    0.405297
      5          1           0        1.130024   -0.817042    0.626021
      6          1           0        1.116349   -0.182361   -1.038054
      7          1           0       -1.129615   -0.938045   -0.423089
      8          1           0       -1.161648    0.875186   -0.617863
 ---------------------------------------------------------------------

 SCF Done:  E(RwB97X) =  -79.7973322390     A.U. after   12 cycles

 The electronic state is 1-A.
 Alpha  occ. eigenvalues --  -10.26098 -10.26078  -0.87873  -0.72457  -0.54374
 Alpha  occ. eigenvalues --   -0.54053  -0.46066  -0.43966  -0.43702
 Alpha virt. eigenvalues --    0.19249   0.25206   0.25257   0.25801   0.28136
 Alpha virt. eigenvalues --    0.28404   0.33654   0.61343   0.66032   0.66194
 Alpha virt. eigenvalues --    0.73970   0.74707   0.78880   0.97470   0.98825

 Mulliken charges:
               1
     1  C   -0.457679
     2  C   -0.458059
     3  H    0.154668
     4  H    0.146999
     5  H    0.156786
     6  H    0.154593
     7  H    0.157109
     8  H    0.145584
 Sum of Mulliken charges =  -0.00000

 Dipole moment (field-independent basis, Debye):
    X=             -0.0006    Y=             -0.0853    Z=              0.0125  Tot=              0.0862
 Quadrupole moment (field-independent basis, Debye-Ang):
   XX=            -15.7059   YY=            -14.6768   ZZ=            -14.6732
   XY=              0.0092   XZ=              0.0297   YZ=              0.0126

 Normal termination of Gaussian 16 at Wed Jun  5 17:01:30 2019.
