 Gaussian 16, Revision A.03,
 Gaussian 16:  ES64L-G16RevA.03 25-Dec-2016

 ----------------
 # 6-31g(d) wb97x
 ----------------

 -----------------------
 tmpdir/M2_conf_2_54.gjf
 -----------------------
 Symbolic Z-matrix:
 Charge =  0 Multiplicity = 1

                         Standard orientation:
 ---------------------------------------------------------------------
 Center     Atomic      Atomic             Coordinates (Angstroms)
 Number     Number       Type             X           Y           Z
 ---------------------------------------------------------------------
      1          6           0        1.262284   -0.206600    0.021107
      2          7           0        0.000987    0.502100   -0.157933
      3          6           0       -1.250607   -0.212019    0.016408
      4          1           0        2.110468    0.461369   -0.195272
      5          1           0        1.287092   -1.064685   -0.659480
      6          1           0        1.357408   -0.589544    1.055611
      7          1           0       -0.026865    1.320376    0.449875
      8          1           0       -1.299088   -0.726291    0.996630
      9          1           0       -2.059306    0.531425    0.016832
     10          1           0       -1.446684   -0.935631   -0.783752
 ---------------------------------------------------------------------

 SCF Done:  E(RwB97X) =  -135.118411124     A.U. after   13 cycles

 The electronic state is 1-A.
 Alpha  occ. eigenvalues --  -14.38534 -10.28150 -10.28083  -1.01669  -0.82594
 Alpha  occ. eigenvalues --   -0.73830  -0.59226  -0.54572  -0.53706  -0.49216
 Alpha  occ. eigenvalues --   -0.46784  -0.45776  -0.30497
 Alpha virt. eigenvalues --    0.18016   0.23600   0.24815   0.25367   0.26968
 Alpha virt. eigenvalues --    0.28250   0.29014   0.31438   0.37055   0.60904
 Alpha virt. eigenvalues --    0.65312   0.68589   0.69763   0.70641   0.84733

 Mulliken charges:
               1
     1  C   -0.319432
     2  N   -0.557265
     3  C   -0.321499
     4  H    0.164896
     5  H    0.161400
     6  H    0.125114
     7  H    0.301736
     8  H    0.122883
     9  H    0.160068
    10  H    0.162100
 Sum of Mulliken charges =  -0.00000

 Dipole moment (field-independent basis, Debye):
    X=             -0.0164    Y=             -0.0540    Z=              0.9957  Tot=              0.9973
 Quadrupole moment (field-independent basis, Debye-Ang):
   XX=            -19.2989   YY=            -19.9031   ZZ=            -21.6824
   XY=             -0.0320   XZ=             -0.0667   YZ=              1.9850

 Normal termination of Gaussian 16 at Wed Jun  5 17:04:03 2019.
