 Gaussian 16, Revision A.03,
 Gaussian 16:  ES64L-G16RevA.03 25-Dec-2016

 ----------------
 # 6-31g(d) wb97x
 ----------------

 ------------------------
 tmpdir/M2_conf_0_127.gjf
 ------------------------
 Symbolic Z-matrix:
 Charge =  0 Multiplicity = 1

                         Standard orientation:
 ---------------------------------------------------------------------
 Center     Atomic      Atomic             Coordinates (Angstroms)
 Number     Number       Type             X           Y           Z
 ---------------------------------------------------------------------
      1          6           0        1.231123   -0.171718   -0.000115
      2          6           0       -0.114267    0.509450    0.000175
      3          6           0       -1.314184   -0.233867    0.000213
      4          1           0        2.035225    0.569158   -0.006541
      5          1           0        1.370199   -0.809596   -0.882938
      6          1           0        1.376660   -0.799027    0.889583
      7          1           0       -0.177353    1.513068   -0.001013
      8          1           0       -2.210622    0.234244   -0.000052
      9          1           0       -1.210143   -1.331043   -0.000670
 ---------------------------------------------------------------------

 SCF Done:  E(RwB97X) =  -117.846648339     A.U. after   14 cycles

 The electronic state is 1-A.
 Alpha  occ. eigenvalues --  -10.27143 -10.26222 -10.25771  -0.90338  -0.80198
 Alpha  occ. eigenvalues --   -0.68196  -0.57828  -0.51561  -0.51526  -0.46441
 Alpha  occ. eigenvalues --   -0.45801  -0.33353
 Alpha virt. eigenvalues --    0.09758   0.21325   0.23637   0.25193   0.29018
 Alpha virt. eigenvalues --    0.29949   0.30528   0.38941   0.41606   0.61259
 Alpha virt. eigenvalues --    0.63070   0.66449   0.69984   0.72466   0.76472

 Mulliken charges:
               1
     1  C   -0.518297
     2  C   -0.115625
     3  C   -0.360767
     4  H    0.162489
     5  H    0.177210
     6  H    0.177213
     7  H    0.161753
     8  H    0.166360
     9  H    0.149663
 Sum of Mulliken charges =  -0.00000

 Dipole moment (field-independent basis, Debye):
    X=              0.3501    Y=              0.0724    Z=             -0.0011  Tot=              0.3575
 Quadrupole moment (field-independent basis, Debye-Ang):
   XX=            -18.8209   YY=            -18.4125   ZZ=            -21.3541
   XY=             -0.1279   XZ=              0.0036   YZ=              0.0004

 Normal termination of Gaussian 16 at Wed Jun  5 17:00:35 2019.
