 Gaussian 16, Revision A.03,
 Gaussian 16:  ES64L-G16RevA.03 25-Dec-2016

 ----------------
 # 6-31g(d) wb97x
 ----------------

 -----------------------
 tmpdir/M2_conf_2_76.gjf
 -----------------------
 Symbolic Z-matrix:
 Charge =  0 Multiplicity = 1

                         Standard orientation:
 ---------------------------------------------------------------------
 Center     Atomic      Atomic             Coordinates (Angstroms)
 Number     Number       Type             X           Y           Z
 ---------------------------------------------------------------------
      1          6           0        0.693000   -0.009236    0.001003
      2          6           0       -0.696284   -0.008467   -0.005475
      3          1           0       -1.227158    0.941206    0.020979
      4          1           0        1.206459   -0.879278    0.010750
      5          1           0        1.248966    0.924660   -0.008216
      6          1           0       -1.208563   -0.880369    0.003316
 ---------------------------------------------------------------------

 SCF Done:  E(RwB97X) =  -78.5442745753     A.U. after   12 cycles

 The electronic state is 1-A.
 Alpha  occ. eigenvalues --  -10.26648 -10.26572  -0.87781  -0.71005  -0.58428
 Alpha  occ. eigenvalues --   -0.51043  -0.47251  -0.35697
 Alpha virt. eigenvalues --    0.10022   0.22286   0.26262   0.27007   0.35057
 Alpha virt. eigenvalues --    0.41005   0.59725   0.66095   0.66582   0.74648
 Alpha virt. eigenvalues --    0.75701   0.77876   0.99860   1.00335   1.08413

 Mulliken charges:
               1
     1  C   -0.333038
     2  C   -0.332551
     3  H    0.162221
     4  H    0.170066
     5  H    0.162176
     6  H    0.171127
 Sum of Mulliken charges =  -0.00000

 Dipole moment (field-independent basis, Debye):
    X=              0.0091    Y=             -0.0422    Z=              0.0258  Tot=              0.0503
 Quadrupole moment (field-independent basis, Debye-Ang):
   XX=            -11.8707   YY=            -11.9125   ZZ=            -15.1118
   XY=              0.0218   XZ=             -0.0274   YZ=             -0.0002

 Normal termination of Gaussian 16 at Wed Jun  5 17:04:00 2019.
