 Gaussian 16, Revision A.03,
 Gaussian 16:  ES64L-G16RevA.03 25-Dec-2016

 ----------------
 # 6-31g(d) wb97x
 ----------------

 -----------------------
 tmpdir/M2_conf_1_59.gjf
 -----------------------
 Symbolic Z-matrix:
 Charge =  0 Multiplicity = 1

                         Standard orientation:
 ---------------------------------------------------------------------
 Center     Atomic      Atomic             Coordinates (Angstroms)
 Number     Number       Type             X           Y           Z
 ---------------------------------------------------------------------
      1          7           0        0.743387   -0.006016   -0.115845
      2          6           0       -0.702539   -0.007245    0.011230
      3          1           0       -1.099104    0.964995   -0.311555
      4          1           0        1.156415    0.844237    0.266599
      5          1           0        1.164461   -0.825291    0.324064
      6          1           0       -1.023930   -0.120812    1.065493
      7          1           0       -1.186319   -0.777548   -0.601066
 ---------------------------------------------------------------------

 SCF Done:  E(RwB97X) =  -95.8212729898     A.U. after   12 cycles

 The electronic state is 1-A.
 Alpha  occ. eigenvalues --  -14.38115 -10.28029  -0.99377  -0.77564  -0.59758
 Alpha  occ. eigenvalues --   -0.53752  -0.50985  -0.46599  -0.32192
 Alpha virt. eigenvalues --    0.18491   0.23970   0.24879   0.28038   0.29419
 Alpha virt. eigenvalues --    0.34541   0.66199   0.67005   0.70019   0.84922
 Alpha virt. eigenvalues --    0.87825   0.90289   0.97818   1.03012   1.03943

 Mulliken charges:
               1
     1  N   -0.742544
     2  C   -0.326938
     3  H    0.159478
     4  H    0.309374
     5  H    0.308373
     6  H    0.127569
     7  H    0.164688
 Sum of Mulliken charges =  -0.00000

 Dipole moment (field-independent basis, Debye):
    X=             -0.1348    Y=              0.0967    Z=              1.3619  Tot=              1.3719
 Quadrupole moment (field-independent basis, Debye-Ang):
   XX=            -13.3791   YY=            -12.2642   ZZ=            -15.2770
   XY=              0.0304   XZ=              2.0840   YZ=             -0.0109

 Normal termination of Gaussian 16 at Wed Jun  5 17:01:41 2019.
