 Gaussian 16, Revision A.03,
 Gaussian 16:  ES64L-G16RevA.03 25-Dec-2016

 ----------------
 # 6-31g(d) wb97x
 ----------------

 ------------------------
 tmpdir/M2_conf_2_161.gjf
 ------------------------
 Symbolic Z-matrix:
 Charge =  0 Multiplicity = 1

                         Standard orientation:
 ---------------------------------------------------------------------
 Center     Atomic      Atomic             Coordinates (Angstroms)
 Number     Number       Type             X           Y           Z
 ---------------------------------------------------------------------
      1          6           0       -0.706516   -0.009385   -0.002961
      2          6           0        0.694489    0.006860   -0.000847
      3          1           0       -1.143354   -0.916030   -0.003029
      4          1           0       -1.297523    0.898509    0.017578
      5          1           0        1.251498   -0.887093    0.014574
      6          1           0        1.261541    0.919762   -0.006276
 ---------------------------------------------------------------------

 SCF Done:  E(RwB97X) =  -78.5451364454     A.U. after   13 cycles

 The electronic state is 1-A.
 Alpha  occ. eigenvalues --  -10.27104 -10.26770  -0.87483  -0.70980  -0.58039
 Alpha  occ. eigenvalues --   -0.51070  -0.47197  -0.35517
 Alpha virt. eigenvalues --    0.09755   0.22563   0.25431   0.26966   0.34918
 Alpha virt. eigenvalues --    0.40672   0.60134   0.65850   0.66687   0.74482
 Alpha virt. eigenvalues --    0.75770   0.77071   0.99953   1.00652   1.06916

 Mulliken charges:
               1
     1  C   -0.330811
     2  C   -0.338407
     3  H    0.170087
     4  H    0.168240
     5  H    0.167028
     6  H    0.163862
 Sum of Mulliken charges =  -0.00000

 Dipole moment (field-independent basis, Debye):
    X=              0.0120    Y=             -0.0364    Z=              0.0217  Tot=              0.0440
 Quadrupole moment (field-independent basis, Debye-Ang):
   XX=            -11.7781   YY=            -11.9770   ZZ=            -15.1699
   XY=             -0.0938   XZ=             -0.0095   YZ=              0.0006

 Normal termination of Gaussian 16 at Wed Jun  5 17:04:38 2019.
