 Gaussian 16, Revision A.03,
 Gaussian 16:  ES64L-G16RevA.03 25-Dec-2016

 ----------------
 # 6-31g(d) wb97x
 ----------------

 ------------------------
 tmpdir/M2_conf_2_167.gjf
 ------------------------
 Symbolic Z-matrix:
 Charge =  0 Multiplicity = 1

                         Standard orientation:
 ---------------------------------------------------------------------
 Center     Atomic      Atomic             Coordinates (Angstroms)
 Number     Number       Type             X           Y           Z
 ---------------------------------------------------------------------
      1          7           0        0.740380   -0.768071    0.079734
      2          6           0        0.079363    0.396590    0.029828
      3          6           0       -1.399009    0.311828    0.137391
      4          8           0        1.896140   -0.724337   -0.003787
      5          8           0        0.674812    1.461988   -0.106565
      6          8           0       -1.984307   -0.733556   -0.141437
      7          1           0       -1.957950    1.093231    0.452855
 ---------------------------------------------------------------------

 SCF Done:  E(RwB97X) =  -356.909091457     A.U. after   30 cycles

 The electronic state is 1-A.
 Alpha  occ. eigenvalues --  -19.37069 -19.26714 -19.23518 -14.58642 -10.42742
 Alpha  occ. eigenvalues --  -10.40105  -1.40397  -1.21612  -1.19294  -0.98413
 Alpha  occ. eigenvalues --   -0.83268  -0.73382  -0.69518  -0.66933  -0.63066
 Alpha  occ. eigenvalues --   -0.59852  -0.56446  -0.55022  -0.49478  -0.43766
 Alpha  occ. eigenvalues --   -0.39268  -0.33529
 Alpha virt. eigenvalues --   -0.12396  -0.00646   0.14158   0.23209   0.29055
 Alpha virt. eigenvalues --    0.33879   0.38829   0.46303   0.47603   0.58996
 Alpha virt. eigenvalues --    0.63021   0.67247   0.69799   0.71060   0.74893

 Mulliken charges:
               1
     1  N    0.024895
     2  C    0.464476
     3  C    0.201665
     4  O   -0.091719
     5  O   -0.449423
     6  O   -0.355754
     7  H    0.205859
 Sum of Mulliken charges =  -0.00000

 Dipole moment (field-independent basis, Debye):
    X=             -0.6293    Y=             -0.2723    Z=              0.8740  Tot=              1.1109
 Quadrupole moment (field-independent basis, Debye-Ang):
   XX=            -34.2171   YY=            -34.3646   ZZ=            -30.9976
   XY=             -6.1168   XZ=             -0.9908   YZ=              0.1451

 Normal termination of Gaussian 16 at Wed Jun  5 17:05:17 2019.
