 Gaussian 16, Revision A.03,
 Gaussian 16:  ES64L-G16RevA.03 25-Dec-2016

 ----------------
 # 6-31g(d) wb97x
 ----------------

 ------------------------
 tmpdir/M2_conf_2_114.gjf
 ------------------------
 Symbolic Z-matrix:
 Charge =  0 Multiplicity = 1

                         Standard orientation:
 ---------------------------------------------------------------------
 Center     Atomic      Atomic             Coordinates (Angstroms)
 Number     Number       Type             X           Y           Z
 ---------------------------------------------------------------------
      1          6           0       -0.695702   -0.010342   -0.001039
      2          6           0        0.692798   -0.009235   -0.000352
      3          1           0       -1.187371   -0.890642    0.000573
      4          1           0       -1.244883    0.928866    0.004747
      5          1           0        1.223161    0.940739   -0.000763
      6          1           0        1.226515   -0.861504    0.003790
 ---------------------------------------------------------------------

 SCF Done:  E(RwB97X) =  -78.5433391908     A.U. after   12 cycles

 The electronic state is 1-A.
 Alpha  occ. eigenvalues --  -10.26595 -10.26515  -0.87826  -0.71051  -0.58504
 Alpha  occ. eigenvalues --   -0.51057  -0.47256  -0.35711
 Alpha virt. eigenvalues --    0.10048   0.22262   0.26362   0.27093   0.35074
 Alpha virt. eigenvalues --    0.41028   0.59688   0.66089   0.66579   0.74669
 Alpha virt. eigenvalues --    0.75698   0.77955   0.99863   1.00356   1.08636

 Mulliken charges:
               1
     1  C   -0.332625
     2  C   -0.332716
     3  H    0.170016
     4  H    0.163741
     5  H    0.159930
     6  H    0.171654
 Sum of Mulliken charges =   0.00000

 Dipole moment (field-independent basis, Debye):
    X=              0.0056    Y=             -0.0427    Z=              0.0080  Tot=              0.0438
 Quadrupole moment (field-independent basis, Debye-Ang):
   XX=            -11.8754   YY=            -11.9055   ZZ=            -15.1022
   XY=             -0.0663   XZ=             -0.0028   YZ=             -0.0001

 Normal termination of Gaussian 16 at Wed Jun  5 17:04:30 2019.
