 Gaussian 16, Revision A.03,
 Gaussian 16:  ES64L-G16RevA.03 25-Dec-2016

 ----------------
 # 6-31g(d) wb97x
 ----------------

 ------------------------
 tmpdir/M2_conf_0_154.gjf
 ------------------------
 Symbolic Z-matrix:
 Charge =  0 Multiplicity = 1

                         Standard orientation:
 ---------------------------------------------------------------------
 Center     Atomic      Atomic             Coordinates (Angstroms)
 Number     Number       Type             X           Y           Z
 ---------------------------------------------------------------------
      1          6           0       -0.726344    0.491476    0.002981
      2          7           0        0.613872    0.632194   -0.003776
      3          6           0        1.439949   -0.403892    0.000537
      4          1           0       -1.248193    1.436677    0.006742
      5          8           0       -1.370313   -0.607551   -0.001387
      6          1           0        2.503080   -0.166134    0.004995
      7          1           0        1.128878   -1.360995    0.004684
 ---------------------------------------------------------------------

 SCF Done:  E(RwB97X) =  -207.872219755     A.U. after   17 cycles

 The electronic state is 1-A.
 Alpha  occ. eigenvalues --  -19.21926 -14.43360 -10.38478 -10.35786  -1.15747
 Alpha  occ. eigenvalues --   -1.05455  -0.84703  -0.70362  -0.64469  -0.57390
 Alpha  occ. eigenvalues --   -0.54846  -0.52780  -0.41613  -0.39852  -0.36677
 Alpha virt. eigenvalues --   -0.01668   0.14566   0.21359   0.24415   0.27805
 Alpha virt. eigenvalues --    0.32142   0.36823   0.45525   0.60016   0.62689
 Alpha virt. eigenvalues --    0.66957   0.67014   0.74246   0.74712   0.78616

 Mulliken charges:
               1
     1  C    0.287542
     2  N   -0.351319
     3  C   -0.100861
     4  H    0.167927
     5  O   -0.416302
     6  H    0.200665
     7  H    0.212348
 Sum of Mulliken charges =  -0.00000

 Dipole moment (field-independent basis, Debye):
    X=              2.3785    Y=             -0.0034    Z=              0.0212  Tot=              2.3786
 Quadrupole moment (field-independent basis, Debye-Ang):
   XX=            -21.8320   YY=            -23.3232   ZZ=            -22.6294
   XY=             -5.5008   XZ=              0.0122   YZ=              0.0068

 Normal termination of Gaussian 16 at Wed Jun  5 17:00:51 2019.
