 Gaussian 16, Revision A.03,
 Gaussian 16:  ES64L-G16RevA.03 25-Dec-2016

 ----------------
 # 6-31g(d) wb97x
 ----------------

 -----------------------
 tmpdir/M2_conf_2_62.gjf
 -----------------------
 Symbolic Z-matrix:
 Charge =  0 Multiplicity = 1

                         Standard orientation:
 ---------------------------------------------------------------------
 Center     Atomic      Atomic             Coordinates (Angstroms)
 Number     Number       Type             X           Y           Z
 ---------------------------------------------------------------------
      1          1           0        1.119798   -1.189581   -0.366987
      2          6           0        1.163965   -0.143006   -0.005885
      3          6           0       -0.233423    0.441488   -0.005111
      4          1           0        1.910756    0.480753   -0.601608
      5          1           0        1.522907   -0.188642    1.031312
      6          1           0       -0.369807    1.441826    0.032676
      7          8           0       -1.220864   -0.291906   -0.003677
 ---------------------------------------------------------------------

 SCF Done:  E(RwB97X) =  -153.775840996     A.U. after   15 cycles

 The electronic state is 1-A.
 Alpha  occ. eigenvalues --  -19.21332 -10.35797 -10.28499  -1.15962  -0.87513
 Alpha  occ. eigenvalues --   -0.72123  -0.58822  -0.54822  -0.53619  -0.50056
 Alpha  occ. eigenvalues --   -0.45765  -0.35632
 Alpha virt. eigenvalues --    0.06990   0.20339   0.23414   0.25407   0.26200
 Alpha virt. eigenvalues --    0.34929   0.37683   0.63292   0.64047   0.70114
 Alpha virt. eigenvalues --    0.70943   0.76784   0.82546   0.85482   0.95022

 Mulliken charges:
               1
     1  H    0.201339
     2  C   -0.562502
     3  C    0.240552
     4  H    0.167470
     5  H    0.195324
     6  H    0.149419
     7  O   -0.391602
 Sum of Mulliken charges =  -0.00000

 Dipole moment (field-independent basis, Debye):
    X=              2.3918    Y=              1.3061    Z=              0.1238  Tot=              2.7280
 Quadrupole moment (field-independent basis, Debye-Ang):
   XX=            -20.7016   YY=            -17.3143   ZZ=            -17.6173
   XY=             -1.1353   XZ=              0.1228   YZ=             -0.0464

 Normal termination of Gaussian 16 at Wed Jun  5 17:04:00 2019.
