 Gaussian 16, Revision A.03,
 Gaussian 16:  ES64L-G16RevA.03 25-Dec-2016

 ----------------
 # 6-31g(d) wb97x
 ----------------

 ------------------------
 tmpdir/M2_conf_2_179.gjf
 ------------------------
 Symbolic Z-matrix:
 Charge =  0 Multiplicity = 1

                         Standard orientation:
 ---------------------------------------------------------------------
 Center     Atomic      Atomic             Coordinates (Angstroms)
 Number     Number       Type             X           Y           Z
 ---------------------------------------------------------------------
      1          6           0        0.548082    0.013427   -0.000683
      2          1           0        1.124758   -0.901968    0.001405
      3          1           0        1.011465    0.903981    0.001477
      4          8           0       -0.678090   -0.010322    0.000152
 ---------------------------------------------------------------------

 SCF Done:  E(RwB97X) =  -114.457698357     A.U. after   14 cycles

 The electronic state is 1-A.
 Alpha  occ. eigenvalues --  -19.22983 -10.35812  -1.17060  -0.77362  -0.62295
 Alpha  occ. eigenvalues --   -0.54971  -0.49505  -0.36872
 Alpha virt. eigenvalues --    0.05595   0.21974   0.29701   0.31772   0.62181
 Alpha virt. eigenvalues --    0.70751   0.74237   0.78564   0.96274   0.98338
 Alpha virt. eigenvalues --    1.06476   1.07922   1.17822   1.48378   1.60979

 Mulliken charges:
               1
     1  C    0.055597
     2  H    0.140020
     3  H    0.155595
     4  O   -0.351212
 Sum of Mulliken charges =   0.00000

 Dipole moment (field-independent basis, Debye):
    X=              2.4528    Y=              0.1044    Z=              0.0003  Tot=              2.4550
 Quadrupole moment (field-independent basis, Debye-Ang):
   XX=            -11.7624   YY=            -11.2417   ZZ=            -11.3300
   XY=              0.0040   XZ=              0.0012   YZ=             -0.0000

 Normal termination of Gaussian 16 at Wed Jun  5 17:05:10 2019.
