 Gaussian 16, Revision A.03,
 Gaussian 16:  ES64L-G16RevA.03 25-Dec-2016

 ----------------
 # 6-31g(d) wb97x
 ----------------

 -----------------------
 tmpdir/M2_conf_2_11.gjf
 -----------------------
 Symbolic Z-matrix:
 Charge =  0 Multiplicity = 1

                         Standard orientation:
 ---------------------------------------------------------------------
 Center     Atomic      Atomic             Coordinates (Angstroms)
 Number     Number       Type             X           Y           Z
 ---------------------------------------------------------------------
      1          6           0        0.000556    0.002260   -0.001755
      2          1           0        0.578774   -0.516463   -0.785248
      3          1           0        0.381070    1.031018    0.100188
      4          1           0        0.152778   -0.538600    0.939959
      5          1           0       -1.115957    0.010481   -0.244367
 ---------------------------------------------------------------------

 SCF Done:  E(RwB97X) =  -40.4977740464     A.U. after   11 cycles

 The electronic state is 1-A.
 Alpha  occ. eigenvalues --  -10.25660  -0.81268  -0.49473  -0.49279  -0.48774
 Alpha virt. eigenvalues --    0.21116   0.26429   0.27179   0.27403   0.63968
 Alpha virt. eigenvalues --    0.64223   0.65581   0.98797   1.00941   1.01375
 Alpha virt. eigenvalues --    1.05169   1.20238   1.75998   1.76252   2.29914

 Mulliken charges:
               1
     1  C   -0.659251
     2  H    0.166589
     3  H    0.167432
     4  H    0.167554
     5  H    0.157677
 Sum of Mulliken charges =  -0.00000

 Dipole moment (field-independent basis, Debye):
    X=              0.0397    Y=             -0.0109    Z=              0.0224  Tot=              0.0468
 Quadrupole moment (field-independent basis, Debye-Ang):
   XX=             -8.2094   YY=             -8.3016   ZZ=             -8.3828
   XY=              0.0027   XZ=             -0.0183   YZ=             -0.0035

 Normal termination of Gaussian 16 at Wed Jun  5 17:03:30 2019.
