 Gaussian 16, Revision A.03,
 Gaussian 16:  ES64L-G16RevA.03 25-Dec-2016

 ----------------
 # 6-31g(d) wb97x
 ----------------

 ------------------------
 tmpdir/M2_conf_2_107.gjf
 ------------------------
 Symbolic Z-matrix:
 Charge =  0 Multiplicity = 1

                         Standard orientation:
 ---------------------------------------------------------------------
 Center     Atomic      Atomic             Coordinates (Angstroms)
 Number     Number       Type             X           Y           Z
 ---------------------------------------------------------------------
      1          6           0        1.426659   -0.462554   -0.000485
      2          6           0        0.575513    0.642180   -0.005270
      3          6           0       -0.807488    0.476504   -0.000246
      4          1           0        2.496076   -0.330995    0.005968
      5          1           0        1.034331   -1.394651   -0.002802
      6          1           0        0.958541    1.685445    0.022279
      7          1           0       -1.467150    1.341689   -0.006463
      8          8           0       -1.273737   -0.654784    0.002128
 ---------------------------------------------------------------------

 SCF Done:  E(RwB97X) =  -191.836619553     A.U. after   15 cycles

 The electronic state is 1-A.
 Alpha  occ. eigenvalues --  -19.20449 -10.34990 -10.29956 -10.29014  -1.16125
 Alpha  occ. eigenvalues --   -0.92008  -0.79682  -0.66503  -0.62927  -0.55633
 Alpha  occ. eigenvalues --   -0.52788  -0.50636  -0.49050  -0.36983  -0.35667
 Alpha virt. eigenvalues --    0.01069   0.17430   0.20134   0.24024   0.26572
 Alpha virt. eigenvalues --    0.30430   0.35137   0.40933   0.46100   0.61986
 Alpha virt. eigenvalues --    0.63578   0.68152   0.68787   0.70700   0.74666

 Mulliken charges:
               1
     1  C   -0.302235
     2  C   -0.194179
     3  C    0.211424
     4  H    0.183378
     5  H    0.213603
     6  H    0.163328
     7  H    0.137020
     8  O   -0.412338
 Sum of Mulliken charges =  -0.00000

 Dipole moment (field-independent basis, Debye):
    X=              2.0235    Y=              1.7240    Z=              0.0148  Tot=              2.6584
 Quadrupole moment (field-independent basis, Debye-Ang):
   XX=            -23.1052   YY=            -21.8799   ZZ=            -24.3151
   XY=             -3.3301   XZ=              0.0438   YZ=              0.0378

 Normal termination of Gaussian 16 at Wed Jun  5 17:04:27 2019.
