 Gaussian 16, Revision A.03,
 Gaussian 16:  ES64L-G16RevA.03 25-Dec-2016

 ----------------
 # 6-31g(d) wb97x
 ----------------

 -----------------------
 tmpdir/M2_conf_2_73.gjf
 -----------------------
 Symbolic Z-matrix:
 Charge =  0 Multiplicity = 1

                         Standard orientation:
 ---------------------------------------------------------------------
 Center     Atomic      Atomic             Coordinates (Angstroms)
 Number     Number       Type             X           Y           Z
 ---------------------------------------------------------------------
      1          1           0        1.243464    0.927410   -0.008299
      2          6           0        0.692828   -0.009642    0.001014
      3          6           0       -0.696457   -0.009025   -0.005476
      4          1           0        1.211229   -0.876753    0.010718
      5          1           0       -1.224281    0.942335    0.021011
      6          1           0       -1.208638   -0.880989    0.003341
 ---------------------------------------------------------------------

 SCF Done:  E(RwB97X) =  -78.5442556392     A.U. after   12 cycles

 The electronic state is 1-A.
 Alpha  occ. eigenvalues --  -10.26646 -10.26569  -0.87781  -0.70998  -0.58450
 Alpha  occ. eigenvalues --   -0.51019  -0.47257  -0.35697
 Alpha virt. eigenvalues --    0.10024   0.22258   0.26286   0.27021   0.35047
 Alpha virt. eigenvalues --    0.40990   0.59727   0.66109   0.66583   0.74650
 Alpha virt. eigenvalues --    0.75703   0.77883   0.99840   1.00341   1.08393

 Mulliken charges:
               1
     1  H    0.161797
     2  C   -0.333034
     3  C   -0.332483
     4  H    0.170277
     5  H    0.162286
     6  H    0.171157
 Sum of Mulliken charges =  -0.00000

 Dipole moment (field-independent basis, Debye):
    X=              0.0097    Y=             -0.0409    Z=              0.0257  Tot=              0.0493
 Quadrupole moment (field-independent basis, Debye-Ang):
   XX=            -11.8785   YY=            -11.9075   ZZ=            -15.1120
   XY=              0.0143   XZ=             -0.0274   YZ=             -0.0002

 Normal termination of Gaussian 16 at Wed Jun  5 17:04:12 2019.
