 Gaussian 16, Revision A.03,
 Gaussian 16:  ES64L-G16RevA.03 25-Dec-2016

 ----------------
 # 6-31g(d) wb97x
 ----------------

 -----------------------
 tmpdir/M2_conf_1_65.gjf
 -----------------------
 Symbolic Z-matrix:
 Charge =  0 Multiplicity = 1

                         Standard orientation:
 ---------------------------------------------------------------------
 Center     Atomic      Atomic             Coordinates (Angstroms)
 Number     Number       Type             X           Y           Z
 ---------------------------------------------------------------------
      1          6           0       -0.697832   -0.009946   -0.005523
      2          6           0        0.697353   -0.007578    0.000475
      3          1           0       -1.259377    0.931356    0.025043
      4          1           0       -1.183227   -0.895985   -0.000111
      5          1           0        1.232418    0.940156   -0.010532
      6          1           0        1.213057   -0.870384    0.015889
 ---------------------------------------------------------------------

 SCF Done:  E(RwB97X) =  -78.5425220830     A.U. after   12 cycles

 The electronic state is 1-A.
 Alpha  occ. eigenvalues --  -10.26778 -10.26624  -0.87689  -0.70984  -0.58434
 Alpha  occ. eigenvalues --   -0.50852  -0.47354  -0.35597
 Alpha virt. eigenvalues --    0.09901   0.22160   0.26282   0.26953   0.35005
 Alpha virt. eigenvalues --    0.40743   0.59778   0.66254   0.66646   0.74591
 Alpha virt. eigenvalues --    0.75646   0.77544   0.99655   1.00151   1.08351

 Mulliken charges:
               1
     1  C   -0.333520
     2  C   -0.332846
     3  H    0.163213
     4  H    0.170013
     5  H    0.161502
     6  H    0.171637
 Sum of Mulliken charges =  -0.00000

 Dipole moment (field-independent basis, Debye):
    X=              0.0051    Y=             -0.0475    Z=              0.0292  Tot=              0.0560
 Quadrupole moment (field-independent basis, Debye-Ang):
   XX=            -11.8976   YY=            -11.8891   ZZ=            -15.1328
   XY=             -0.0544   XZ=             -0.0249   YZ=             -0.0006

 Normal termination of Gaussian 16 at Wed Jun  5 17:01:42 2019.
