 Gaussian 16, Revision A.03,
 Gaussian 16:  ES64L-G16RevA.03 25-Dec-2016

 ----------------
 # 6-31g(d) wb97x
 ----------------

 ------------------------
 tmpdir/M2_conf_1_100.gjf
 ------------------------
 Symbolic Z-matrix:
 Charge =  0 Multiplicity = 1

                         Standard orientation:
 ---------------------------------------------------------------------
 Center     Atomic      Atomic             Coordinates (Angstroms)
 Number     Number       Type             X           Y           Z
 ---------------------------------------------------------------------
      1          6           0       -0.166648    0.392033   -0.014609
      2          7           0        1.086861   -0.160001   -0.021813
      3          1           0        1.846085    0.481970    0.150039
      4          1           0       -0.188189    1.479494   -0.021529
      5          8           0       -1.199834   -0.259328    0.013758
      6          1           0        1.332635   -1.119027    0.001777
 ---------------------------------------------------------------------

 SCF Done:  E(RwB97X) =  -169.839728313     A.U. after   16 cycles

 The electronic state is 1-A.
 Alpha  occ. eigenvalues --  -19.18140 -14.43864 -10.37527  -1.15387  -1.03509
 Alpha  occ. eigenvalues --   -0.75315  -0.65802  -0.60356  -0.51708  -0.50806
 Alpha  occ. eigenvalues --   -0.37157  -0.35529
 Alpha virt. eigenvalues --    0.12322   0.17891   0.20830   0.27701   0.36514
 Alpha virt. eigenvalues --    0.44300   0.64266   0.65749   0.75366   0.79346
 Alpha virt. eigenvalues --    0.81020   0.83144   0.95737   0.98107   0.99618

 Mulliken charges:
               1
     1  C    0.343604
     2  N   -0.738245
     3  H    0.342443
     4  H    0.135276
     5  O   -0.449668
     6  H    0.366591
 Sum of Mulliken charges =  -0.00000

 Dipole moment (field-independent basis, Debye):
    X=              3.8025    Y=              0.9819    Z=              0.2736  Tot=              3.9368
 Quadrupole moment (field-independent basis, Debye-Ang):
   XX=            -17.3674   YY=            -14.7416   ZZ=            -18.3906
   XY=             -1.4362   XZ=              0.6980   YZ=              0.1454

 Normal termination of Gaussian 16 at Wed Jun  5 17:01:53 2019.
