 Gaussian 16, Revision A.03,
 Gaussian 16:  ES64L-G16RevA.03 25-Dec-2016

 ----------------
 # 6-31g(d) wb97x
 ----------------

 -----------------------
 tmpdir/M2_conf_2_97.gjf
 -----------------------
 Symbolic Z-matrix:
 Charge =  0 Multiplicity = 1

                         Standard orientation:
 ---------------------------------------------------------------------
 Center     Atomic      Atomic             Coordinates (Angstroms)
 Number     Number       Type             X           Y           Z
 ---------------------------------------------------------------------
      1          8           0       -1.195814   -0.262372    0.013717
      2          6           0       -0.167335    0.396405   -0.014471
      3          7           0        1.084344   -0.159754   -0.021876
      4          1           0       -0.196759    1.483687   -0.020783
      5          1           0        1.849915    0.474722    0.149686
      6          1           0        1.326963   -1.119589    0.001320
 ---------------------------------------------------------------------

 SCF Done:  E(RwB97X) =  -169.839541799     A.U. after   16 cycles

 The electronic state is 1-A.
 Alpha  occ. eigenvalues --  -19.18095 -14.43823 -10.37523  -1.15393  -1.03429
 Alpha  occ. eigenvalues --   -0.75299  -0.65775  -0.60388  -0.51677  -0.50788
 Alpha  occ. eigenvalues --   -0.37110  -0.35505
 Alpha virt. eigenvalues --    0.12307   0.17944   0.20828   0.27656   0.36476
 Alpha virt. eigenvalues --    0.44326   0.64261   0.65734   0.75236   0.79487
 Alpha virt. eigenvalues --    0.81081   0.83180   0.95776   0.98140   0.99610

 Mulliken charges:
               1
     1  O   -0.450023
     2  C    0.343131
     3  N   -0.738529
     4  H    0.136929
     5  H    0.341747
     6  H    0.366745
 Sum of Mulliken charges =  -0.00000

 Dipole moment (field-independent basis, Debye):
    X=              3.7902    Y=              0.9982    Z=              0.2728  Tot=              3.9289
 Quadrupole moment (field-independent basis, Debye-Ang):
   XX=            -17.3496   YY=            -14.7262   ZZ=            -18.3906
   XY=             -1.4678   XZ=              0.6962   YZ=              0.1435

 Normal termination of Gaussian 16 at Wed Jun  5 17:04:21 2019.
