 Gaussian 16, Revision A.03,
 Gaussian 16:  ES64L-G16RevA.03 25-Dec-2016

 ----------------
 # 6-31g(d) wb97x
 ----------------

 ------------------------
 tmpdir/M2_conf_2_103.gjf
 ------------------------
 Symbolic Z-matrix:
 Charge =  0 Multiplicity = 1

                         Standard orientation:
 ---------------------------------------------------------------------
 Center     Atomic      Atomic             Coordinates (Angstroms)
 Number     Number       Type             X           Y           Z
 ---------------------------------------------------------------------
      1          6           0       -0.694852   -0.012178   -0.004661
      2          6           0        0.702006   -0.002664    0.000380
      3          1           0       -1.293874    0.924143    0.014047
      4          1           0       -1.200107   -0.884672    0.006997
      5          1           0        1.244178    0.928487   -0.001686
      6          1           0        1.206878   -0.878904    0.006326
 ---------------------------------------------------------------------

 SCF Done:  E(RwB97X) =  -78.5426182204     A.U. after   13 cycles

 The electronic state is 1-A.
 Alpha  occ. eigenvalues --  -10.26962 -10.26687  -0.87602  -0.71111  -0.58130
 Alpha  occ. eigenvalues --   -0.51145  -0.47177  -0.35591
 Alpha virt. eigenvalues --    0.09836   0.22290   0.26009   0.26835   0.35002
 Alpha virt. eigenvalues --    0.40907   0.59955   0.65806   0.66646   0.74530
 Alpha virt. eigenvalues --    0.75812   0.77281   0.98762   1.00800   1.08474

 Mulliken charges:
               1
     1  C   -0.333663
     2  C   -0.332853
     3  H    0.159432
     4  H    0.170585
     5  H    0.165262
     6  H    0.171237
 Sum of Mulliken charges =   0.00000

 Dipole moment (field-independent basis, Debye):
    X=             -0.0006    Y=             -0.0544    Z=              0.0242  Tot=              0.0595
 Quadrupole moment (field-independent basis, Debye-Ang):
   XX=            -11.7853   YY=            -11.9695   ZZ=            -15.1449
   XY=             -0.0076   XZ=             -0.0214   YZ=             -0.0011

 Normal termination of Gaussian 16 at Wed Jun  5 17:04:22 2019.
