 Gaussian 16, Revision A.03,
 Gaussian 16:  ES64L-G16RevA.03 25-Dec-2016

 ----------------
 # 6-31g(d) wb97x
 ----------------

 -----------------------
 tmpdir/M2_conf_0_87.gjf
 -----------------------
 Symbolic Z-matrix:
 Charge =  0 Multiplicity = 1

                         Standard orientation:
 ---------------------------------------------------------------------
 Center     Atomic      Atomic             Coordinates (Angstroms)
 Number     Number       Type             X           Y           Z
 ---------------------------------------------------------------------
      1          6           0        0.793120    0.483377    0.003754
      2          6           0       -0.587583    0.632880   -0.004852
      3          6           0       -1.424619   -0.482176    0.005164
      4          8           0        1.305013   -0.635023   -0.003049
      5          1           0        1.430797    1.365336    0.015515
      6          1           0       -1.045790    1.617792   -0.011243
      7          1           0       -1.013453   -1.406090   -0.002446
      8          1           0       -2.497163   -0.301344   -0.001828
 ---------------------------------------------------------------------

 SCF Done:  E(RwB97X) =  -191.837080108     A.U. after   15 cycles

 The electronic state is 1-A.
 Alpha  occ. eigenvalues --  -19.20501 -10.35071 -10.30091 -10.28722  -1.15747
 Alpha  occ. eigenvalues --   -0.92329  -0.79617  -0.66461  -0.63534  -0.55488
 Alpha  occ. eigenvalues --   -0.52431  -0.50468  -0.49344  -0.37058  -0.35715
 Alpha virt. eigenvalues --    0.00950   0.17439   0.20137   0.23900   0.26962
 Alpha virt. eigenvalues --    0.30396   0.34791   0.40921   0.46551   0.61969
 Alpha virt. eigenvalues --    0.63155   0.68383   0.68802   0.70715   0.74424

 Mulliken charges:
               1
     1  C    0.212261
     2  C   -0.195948
     3  C   -0.298013
     4  O   -0.417972
     5  H    0.135215
     6  H    0.168453
     7  H    0.213960
     8  H    0.182044
 Sum of Mulliken charges =  -0.00000

 Dipole moment (field-independent basis, Debye):
    X=             -2.1859    Y=              1.7249    Z=              0.0049  Tot=              2.7845
 Quadrupole moment (field-independent basis, Debye-Ang):
   XX=            -23.2522   YY=            -21.8700   ZZ=            -24.3072
   XY=              3.0286   XZ=              0.0300   YZ=             -0.0055

 Normal termination of Gaussian 16 at Wed Jun  5 16:59:56 2019.
