 Gaussian 16, Revision A.03,
 Gaussian 16:  ES64L-G16RevA.03 25-Dec-2016

 ----------------
 # 6-31g(d) wb97x
 ----------------

 ------------------------
 tmpdir/M2_conf_2_163.gjf
 ------------------------
 Symbolic Z-matrix:
 Charge =  0 Multiplicity = 1

                         Standard orientation:
 ---------------------------------------------------------------------
 Center     Atomic      Atomic             Coordinates (Angstroms)
 Number     Number       Type             X           Y           Z
 ---------------------------------------------------------------------
      1          6           0       -0.750454    0.503478   -0.003743
      2          6           0        0.629883    0.668761   -0.000949
      3          6           0        1.375021   -0.508194   -0.002012
      4          8           0       -1.318442   -0.630620    0.002362
      5          1           0       -1.412699    1.368472   -0.005946
      6          1           0        1.077152    1.655324    0.023841
      7          1           0        0.906679   -1.451692    0.009227
      8          1           0        2.449706   -0.511416   -0.005795
 ---------------------------------------------------------------------

 SCF Done:  E(RwB97X) =  -191.837163721     A.U. after   15 cycles

 The electronic state is 1-A.
 Alpha  occ. eigenvalues --  -19.20180 -10.35272 -10.30716 -10.29330  -1.13480
 Alpha  occ. eigenvalues --   -0.92671  -0.79535  -0.66619  -0.63183  -0.55361
 Alpha  occ. eigenvalues --   -0.51702  -0.49456  -0.49233  -0.37011  -0.35386
 Alpha virt. eigenvalues --    0.00588   0.16700   0.20337   0.23620   0.26561
 Alpha virt. eigenvalues --    0.29647   0.34511   0.41283   0.45405   0.62120
 Alpha virt. eigenvalues --    0.62847   0.68570   0.68893   0.70601   0.74450

 Mulliken charges:
               1
     1  C    0.204633
     2  C   -0.192903
     3  C   -0.300046
     4  O   -0.439192
     5  H    0.140744
     6  H    0.182448
     7  H    0.221941
     8  H    0.182376
 Sum of Mulliken charges =   0.00000

 Dipole moment (field-independent basis, Debye):
    X=              2.4336    Y=              1.7194    Z=              0.0116  Tot=              2.9798
 Quadrupole moment (field-independent basis, Debye-Ang):
   XX=            -23.6501   YY=            -21.4270   ZZ=            -24.3933
   XY=             -3.2473   XZ=              0.0321   YZ=              0.0268

 Normal termination of Gaussian 16 at Wed Jun  5 17:04:55 2019.
