 Gaussian 16, Revision A.03,
 Gaussian 16:  ES64L-G16RevA.03 25-Dec-2016

 ----------------
 # 6-31g(d) wb97x
 ----------------

 -----------------------
 tmpdir/M2_conf_0_36.gjf
 -----------------------
 Symbolic Z-matrix:
 Charge =  0 Multiplicity = 1

                         Standard orientation:
 ---------------------------------------------------------------------
 Center     Atomic      Atomic             Coordinates (Angstroms)
 Number     Number       Type             X           Y           Z
 ---------------------------------------------------------------------
      1          7           0       -0.743820    0.001882   -0.113868
      2          6           0        0.704592    0.000913    0.011179
      3          1           0        1.109007   -0.891332   -0.481425
      4          1           0       -1.129770    0.842817    0.310137
      5          1           0       -1.151383   -0.835681    0.286346
      6          1           0        1.018501   -0.034239    1.073932
      7          1           0        1.132830    0.899787   -0.458991
 ---------------------------------------------------------------------

 SCF Done:  E(RwB97X) =  -95.8215975741     A.U. after   13 cycles

 The electronic state is 1-A.
 Alpha  occ. eigenvalues --  -14.37967 -10.28045  -0.99489  -0.77395  -0.60186
 Alpha  occ. eigenvalues --   -0.53562  -0.50574  -0.47015  -0.32182
 Alpha virt. eigenvalues --    0.18468   0.24228   0.25488   0.27571   0.29069
 Alpha virt. eigenvalues --    0.34256   0.66059   0.67723   0.69769   0.84849
 Alpha virt. eigenvalues --    0.87367   0.89550   0.97732   1.02646   1.04765

 Mulliken charges:
               1
     1  N   -0.741551
     2  C   -0.328571
     3  H    0.162363
     4  H    0.307879
     5  H    0.310017
     6  H    0.127272
     7  H    0.162591
 Sum of Mulliken charges =   0.00000

 Dipole moment (field-independent basis, Debye):
    X=              0.1626    Y=             -0.0194    Z=              1.3590  Tot=              1.3689
 Quadrupole moment (field-independent basis, Debye-Ang):
   XX=            -13.6049   YY=            -12.1392   ZZ=            -15.2699
   XY=              0.0726   XZ=             -2.0625   YZ=              0.0266

 Normal termination of Gaussian 16 at Wed Jun  5 16:59:19 2019.
