 Gaussian 16, Revision A.03,
 Gaussian 16:  ES64L-G16RevA.03 25-Dec-2016

 ----------------
 # 6-31g(d) wb97x
 ----------------

 -----------------------
 tmpdir/M2_conf_1_87.gjf
 -----------------------
 Symbolic Z-matrix:
 Charge =  0 Multiplicity = 1

                         Standard orientation:
 ---------------------------------------------------------------------
 Center     Atomic      Atomic             Coordinates (Angstroms)
 Number     Number       Type             X           Y           Z
 ---------------------------------------------------------------------
      1          6           0        0.794054    0.483074    0.003744
      2          6           0       -0.586793    0.631237   -0.004837
      3          6           0       -1.427605   -0.480970    0.005157
      4          8           0        1.307031   -0.634829   -0.003037
      5          1           0        1.430875    1.365651    0.015468
      6          1           0       -1.045956    1.615705   -0.011247
      7          1           0       -1.019577   -1.406275   -0.002432
      8          1           0       -2.499529   -0.296497   -0.001874
 ---------------------------------------------------------------------

 SCF Done:  E(RwB97X) =  -191.837080576     A.U. after   15 cycles

 The electronic state is 1-A.
 Alpha  occ. eigenvalues --  -19.20512 -10.35081 -10.30096 -10.28724  -1.15750
 Alpha  occ. eigenvalues --   -0.92327  -0.79628  -0.66470  -0.63533  -0.55476
 Alpha  occ. eigenvalues --   -0.52470  -0.50470  -0.49320  -0.37064  -0.35721
 Alpha virt. eigenvalues --    0.00941   0.17445   0.20115   0.23903   0.26965
 Alpha virt. eigenvalues --    0.30382   0.34775   0.40926   0.46599   0.61962
 Alpha virt. eigenvalues --    0.63135   0.68292   0.68799   0.70746   0.74410

 Mulliken charges:
               1
     1  C    0.212086
     2  C   -0.195562
     3  C   -0.298109
     4  O   -0.417697
     5  H    0.135316
     6  H    0.168132
     7  H    0.213663
     8  H    0.182172
 Sum of Mulliken charges =  -0.00000

 Dipole moment (field-independent basis, Debye):
    X=             -2.1888    Y=              1.7247    Z=              0.0048  Tot=              2.7867
 Quadrupole moment (field-independent basis, Debye-Ang):
   XX=            -23.2440   YY=            -21.8791   ZZ=            -24.3080
   XY=              3.0314   XZ=              0.0300   YZ=             -0.0055

 Normal termination of Gaussian 16 at Wed Jun  5 17:02:02 2019.
