 Gaussian 16, Revision A.03,
 Gaussian 16:  ES64L-G16RevA.03 25-Dec-2016

 ----------------
 # 6-31g(d) wb97x
 ----------------

 ------------------------
 tmpdir/M2_conf_0_192.gjf
 ------------------------
 Symbolic Z-matrix:
 Charge =  0 Multiplicity = 1

                         Standard orientation:
 ---------------------------------------------------------------------
 Center     Atomic      Atomic             Coordinates (Angstroms)
 Number     Number       Type             X           Y           Z
 ---------------------------------------------------------------------
      1          6           0        0.750374    0.508801   -0.006237
      2          6           0       -0.643308    0.603451   -0.001490
      3          7           0       -1.412430   -0.483812   -0.001425
      4          1           0        1.379274    1.380261   -0.002190
      5          8           0        1.246713   -0.616673    0.004075
      6          1           0       -1.129421    1.578429    0.026557
      7          1           0       -0.978943   -1.312134   -0.000623
 ---------------------------------------------------------------------

 SCF Done:  E(RwB97X) =  -207.864396332     A.U. after   15 cycles

 The electronic state is 1-A.
 Alpha  occ. eigenvalues --  -19.23816 -14.42762 -10.37373 -10.33729  -1.18987
 Alpha  occ. eigenvalues --   -1.03856  -0.85482  -0.71193  -0.65146  -0.59915
 Alpha  occ. eigenvalues --   -0.53614  -0.53452  -0.42146  -0.39857  -0.38026
 Alpha virt. eigenvalues --   -0.01885   0.15073   0.20936   0.24295   0.25223
 Alpha virt. eigenvalues --    0.32830   0.43637   0.47647   0.60649   0.63038
 Alpha virt. eigenvalues --    0.68851   0.69990   0.73737   0.77941   0.81677

 Mulliken charges:
               1
     1  C    0.208226
     2  C   -0.036699
     3  N   -0.470263
     4  H    0.159491
     5  O   -0.390561
     6  H    0.185406
     7  H    0.344400
 Sum of Mulliken charges =  -0.00000

 Dipole moment (field-independent basis, Debye):
    X=              0.5418    Y=              2.1307    Z=             -0.0049  Tot=              2.1985
 Quadrupole moment (field-independent basis, Debye-Ang):
   XX=            -28.9533   YY=            -19.3764   ZZ=            -22.6191
   XY=              1.8729   XZ=             -0.0282   YZ=              0.0364

 Normal termination of Gaussian 16 at Wed Jun  5 17:01:01 2019.
