 Gaussian 16, Revision A.03,
 Gaussian 16:  ES64L-G16RevA.03 25-Dec-2016

 ----------------
 # 6-31g(d) wb97x
 ----------------

 ------------------------
 tmpdir/M2_conf_1_150.gjf
 ------------------------
 Symbolic Z-matrix:
 Charge =  0 Multiplicity = 1

                         Standard orientation:
 ---------------------------------------------------------------------
 Center     Atomic      Atomic             Coordinates (Angstroms)
 Number     Number       Type             X           Y           Z
 ---------------------------------------------------------------------
      1          7           0       -1.393194   -0.467811   -0.001235
      2          6           0       -0.577485    0.583426    0.002558
      3          7           0        0.769142    0.532675   -0.003893
      4          1           0       -0.995902   -1.317853   -0.001791
      5          1           0       -0.972500    1.588267    0.005176
      6          8           0        1.225209   -0.528127    0.002145
 ---------------------------------------------------------------------

 SCF Done:  E(RwB97X) =  -223.823570232     A.U. after   22 cycles

 The electronic state is 1-A.
 Alpha  occ. eigenvalues --  -19.30132 -14.53399 -14.44531 -10.36186  -1.35811
 Alpha  occ. eigenvalues --   -1.06339  -0.93047  -0.73331  -0.67220  -0.63570
 Alpha  occ. eigenvalues --   -0.62247  -0.53778  -0.44521  -0.42210  -0.34156
 Alpha virt. eigenvalues --   -0.04816   0.12610   0.21812   0.24655   0.35940
 Alpha virt. eigenvalues --    0.37271   0.52497   0.62609   0.65954   0.68645
 Alpha virt. eigenvalues --    0.77703   0.79184   0.79651   0.80805   0.84989

 Mulliken charges:
               1
     1  N   -0.464437
     2  C    0.098516
     3  N    0.061422
     4  H    0.344014
     5  H    0.205610
     6  O   -0.245124
 Sum of Mulliken charges =  -0.00000

 Dipole moment (field-independent basis, Debye):
    X=             -0.3111    Y=              0.2241    Z=              0.0095  Tot=              0.3835
 Quadrupole moment (field-independent basis, Debye-Ang):
   XX=            -28.5978   YY=            -19.7719   ZZ=            -21.3726
   XY=             -0.8679   XZ=              0.0123   YZ=              0.0329

 Normal termination of Gaussian 16 at Wed Jun  5 17:02:31 2019.
