 Gaussian 16, Revision A.03,
 Gaussian 16:  ES64L-G16RevA.03 25-Dec-2016

 ----------------
 # 6-31g(d) wb97x
 ----------------

 -----------------------
 tmpdir/M2_conf_2_91.gjf
 -----------------------
 Symbolic Z-matrix:
 Charge =  0 Multiplicity = 1

                         Standard orientation:
 ---------------------------------------------------------------------
 Center     Atomic      Atomic             Coordinates (Angstroms)
 Number     Number       Type             X           Y           Z
 ---------------------------------------------------------------------
      1          6           0        1.227449   -0.632427   -0.029398
      2          6           0        0.033171    0.083520    0.083424
      3          6           0       -1.311188   -0.583988    0.153812
      4          8           0        2.299144   -0.043305   -0.098490
      5          1           0        1.216551   -1.718491   -0.098249
      6          8           0        0.071762    1.311993    0.100789
      7          8           0       -2.322339   -0.006634   -0.216022
      8          1           0       -1.301681   -1.580570    0.561004
 ---------------------------------------------------------------------

 SCF Done:  E(RwB97X) =  -341.018218362     A.U. after   18 cycles

 The electronic state is 1-A.
 Alpha  occ. eigenvalues --  -19.26980 -19.26845 -19.26679 -10.40183 -10.39585
 Alpha  occ. eigenvalues --  -10.39472  -1.23748  -1.20936  -1.18534  -0.91849
 Alpha  occ. eigenvalues --   -0.79262  -0.69767  -0.67994  -0.60272  -0.59609
 Alpha  occ. eigenvalues --   -0.57517  -0.57018  -0.52798  -0.48532  -0.43651
 Alpha  occ. eigenvalues --   -0.41887  -0.37798
 Alpha virt. eigenvalues --   -0.06601   0.02917   0.15563   0.18886   0.22658
 Alpha virt. eigenvalues --    0.25945   0.35859   0.36392   0.43829   0.49956
 Alpha virt. eigenvalues --    0.56788   0.58692   0.64268   0.69638   0.71414

 Mulliken charges:
               1
     1  C    0.157828
     2  C    0.332942
     3  C    0.180251
     4  O   -0.324306
     5  H    0.161894
     6  O   -0.342331
     7  O   -0.327450
     8  H    0.161173
 Sum of Mulliken charges =  -0.00000

 Dipole moment (field-independent basis, Debye):
    X=             -0.1055    Y=             -3.9089    Z=              0.7137  Tot=              3.9750
 Quadrupole moment (field-independent basis, Debye-Ang):
   XX=            -43.2891   YY=            -31.9861   ZZ=            -30.3295
   XY=             -0.0606   XZ=             -1.0107   YZ=             -0.3916

 Normal termination of Gaussian 16 at Wed Jun  5 17:04:20 2019.
