 Gaussian 16, Revision A.03,
 Gaussian 16:  ES64L-G16RevA.03 25-Dec-2016

 ----------------
 # 6-31g(d) wb97x
 ----------------

 -----------------------
 tmpdir/M2_conf_0_18.gjf
 -----------------------
 Symbolic Z-matrix:
 Charge =  0 Multiplicity = 1

                         Standard orientation:
 ---------------------------------------------------------------------
 Center     Atomic      Atomic             Coordinates (Angstroms)
 Number     Number       Type             X           Y           Z
 ---------------------------------------------------------------------
      1          1           0       -1.020596   -0.027182    1.073489
      2          6           0       -0.704903    0.000551    0.011255
      3          7           0        0.743329    0.001993   -0.113510
      4          1           0       -1.133561    0.896667   -0.464928
      5          1           0       -1.099430   -0.897682   -0.478705
      6          1           0        1.151028   -0.833988    0.289882
      7          1           0        1.128676    0.844930    0.307297
 ---------------------------------------------------------------------

 SCF Done:  E(RwB97X) =  -95.8215810820     A.U. after   13 cycles

 The electronic state is 1-A.
 Alpha  occ. eigenvalues --  -14.37958 -10.28046  -0.99496  -0.77374  -0.60204
 Alpha  occ. eigenvalues --   -0.53583  -0.50525  -0.47023  -0.32185
 Alpha virt. eigenvalues --    0.18456   0.24245   0.25494   0.27562   0.29054
 Alpha virt. eigenvalues --    0.34244   0.66056   0.67773   0.69765   0.84861
 Alpha virt. eigenvalues --    0.87298   0.89572   0.97727   1.02596   1.04790

 Mulliken charges:
               1
     1  H    0.127431
     2  C   -0.328254
     3  N   -0.741614
     4  H    0.162481
     5  H    0.162337
     6  H    0.309971
     7  H    0.307649
 Sum of Mulliken charges =  -0.00000

 Dipole moment (field-independent basis, Debye):
    X=             -0.1606    Y=             -0.0148    Z=              1.3588  Tot=              1.3684
 Quadrupole moment (field-independent basis, Debye-Ang):
   XX=            -13.6231   YY=            -12.1324   ZZ=            -15.2651
   XY=             -0.0738   XZ=              2.0548   YZ=              0.0217

 Normal termination of Gaussian 16 at Wed Jun  5 16:59:30 2019.
